Generated by CHARMM-GUI FF-Converter
66079
   37PMPE     N    1   4.955   5.062   7.431
   37PMPE   HN1    2   4.995   5.026   7.342
   37PMPE   HN2    3   4.938   5.163   7.426
   37PMPE   HN3    4   5.030   5.042   7.502
   37PMPE   C12    5   4.828   4.989   7.465
   37PMPE  H12A    6   4.754   5.008   7.383
   37PMPE  H12B    7   4.786   5.032   7.558
   37PMPE   C11    8   4.858   4.840   7.479
   37PMPE  H11A    9   4.764   4.783   7.492
   37PMPE  H11B   10   4.921   4.824   7.570
   37PMPE     P   11   5.062   4.724   7.356
   37PMPE   O13   12   5.066   4.599   7.436
   37PMPE   O14   13   5.158   4.828   7.397
   37PMPE   O11   14   5.081   4.687   7.207
   37PMPE   O12   15   4.919   4.792   7.360
   37PMPE    C1   16   5.029   4.767   7.101
   37PMPE    HA   17   5.075   4.868   7.102
   37PMPE    HB   18   4.919   4.778   7.109
   37PMPE    C2   19   5.057   4.691   6.970
   37PMPE    HS   20   5.000   4.595   6.978
   37PMPE   O21   21   5.198   4.665   6.958
   37PMPE   C21   22   5.220   4.565   6.875
   37PMPE   O22   23   5.137   4.498   6.817
   37PMPE   C22   24   5.365   4.562   6.841
   37PMPE   H2R   25   5.436   4.571   6.926
   37PMPE   H2S   26   5.361   4.650   6.777
   37PMPE    C3   27   5.004   4.769   6.847
   37PMPE    HX   28   4.897   4.789   6.863
   37PMPE    HY   29   5.007   4.698   6.760
   37PMPE   O31   30   5.069   4.900   6.835
   37PMPE   C31   31   5.110   4.923   6.711
   37PMPE   O32   32   5.097   4.840   6.624
   37PMPE   C32   33   5.176   5.062   6.696
   37PMPE   H2X   34   5.283   5.075   6.711
   37PMPE   H2Y   35   5.152   5.120   6.784
   37PMPE   C23   36   5.403   4.474   6.726
   37PMPE   H3R   37   5.328   4.482   6.644
   37PMPE   H3S   38   5.402   4.371   6.768
   37PMPE   C24   39   5.542   4.493   6.667
   37PMPE   H4R   40   5.517   4.415   6.592
   37PMPE   H4S   41   5.631   4.510   6.731
   37PMPE   C25   42   5.615   4.567   6.560
   37PMPE   H5R   43   5.630   4.658   6.626
   37PMPE   H5S   44   5.542   4.550   6.473
   37PMPE   C26   45   5.716   4.552   6.458
   37PMPE   H6R   46   5.691   4.465   6.392
   37PMPE   H6S   47   5.809   4.554   6.516
   37PMPE   C27   48   5.727   4.673   6.374
   37PMPE   H7R   49   5.768   4.633   6.280
   37PMPE   H7S   50   5.758   4.772   6.405
   37PMPE   C28   51   5.649   4.713   6.275
   37PMPE   H8R   52   5.557   4.670   6.316
   37PMPE   H8S   53   5.594   4.636   6.213
   37PMPE   C29   54   5.678   4.890   6.239
   37PMPE   H9R   55   5.745   4.874   6.156
   37PMPE  C217   56   5.691   5.024   6.320
   37PMPE  H17R   57   5.764   5.084   6.263
   37PMPE  H17S   58   5.639   5.051   6.409
   37PMPE  C210   59   5.564   5.040   6.231
   37PMPE  H10R   60   5.601   5.106   6.156
   37PMPE  C211   61   5.369   5.052   6.217
   37PMPE  H11R   62   5.330   5.150   6.210
   37PMPE  H11S   63   5.310   5.016   6.304
   37PMPE  C212   64   5.255   4.960   6.126
   37PMPE  H12R   65   5.153   4.964   6.166
   37PMPE  H12S   66   5.246   4.847   6.127
   37PMPE  C213   67   5.252   4.987   5.978
   37PMPE  H13R   68   5.344   4.995   5.922
   37PMPE  H13S   69   5.224   5.091   5.964
   37PMPE  C214   70   5.194   4.877   5.892
   37PMPE  H14R   71   5.085   4.890   5.903
   37PMPE  H14S   72   5.219   4.772   5.918
   37PMPE  C215   73   5.247   4.902   5.753
   37PMPE  H15R   74   5.201   4.816   5.702
   37PMPE  H15S   75   5.350   4.879   5.718
   37PMPE  C216   76   5.216   5.048   5.711
   37PMPE  H16R   77   5.111   5.074   5.716
   37PMPE  H16S   78   5.251   5.136   5.765
   37PMPE  H16T   79   5.253   5.046   5.609
   37PMPE   C33   80   5.180   5.115   6.553
   37PMPE   H3X   81   5.205   5.039   6.476
   37PMPE   H3Y   82   5.262   5.191   6.547
   37PMPE   C34   83   5.050   5.181   6.519
   37PMPE   H4X   84   5.066   5.220   6.417
   37PMPE   H4Y   85   5.039   5.264   6.590
   37PMPE   C35   86   4.923   5.096   6.529
   37PMPE   H5X   87   4.842   5.167   6.503
   37PMPE   H5Y   88   4.900   5.060   6.632
   37PMPE   C36   89   4.922   4.980   6.431
   37PMPE   H6X   90   4.974   4.894   6.472
   37PMPE   H6Y   91   4.978   5.007   6.339
   37PMPE   C37   92   4.785   4.929   6.390
   37PMPE   H7X   93   4.724   5.017   6.363
   37PMPE   H7Y   94   4.736   4.877   6.476
   37PMPE   C38   95   4.799   4.828   6.275
   37PMPE   H8X   96   4.844   4.875   6.185
   37PMPE   H8Y   97   4.700   4.790   6.245
   37PMPE   C39   98   4.886   4.708   6.314
   37PMPE   H9X   99   4.846   4.663   6.408
   37PMPE   H9Y  100   4.990   4.739   6.338
   37PMPE  C310  101   4.899   4.608   6.199
   37PMPE  H10X  102   4.940   4.661   6.110
   37PMPE  H10Y  103   4.801   4.566   6.170
   37PMPE  C311  104   4.990   4.493   6.239
   37PMPE  H11X  105   4.941   4.436   6.320
   37PMPE  H11Y  106   5.088   4.533   6.278
   37PMPE  C312  107   5.013   4.405   6.119
   37PMPE  H12X  108   4.922   4.398   6.056
   37PMPE  H12Y  109   5.031   4.301   6.146
   37PMPE  C313  110   5.128   4.466   6.043
   37PMPE  H13X  111   5.224   4.467   6.101
   37PMPE  H13Y  112   5.104   4.570   6.012
   37PMPE  C314  113   5.151   4.399   5.912
   37PMPE  H14X  114   5.053   4.361   5.875
   37PMPE  H14Y  115   5.208   4.318   5.952
   37PMPE  C315  116   5.231   4.498   5.825
   37PMPE  H15X  117   5.316   4.526   5.891
   37PMPE  H15Y  118   5.155   4.570   5.790
   37PMPE  C316  119   5.301   4.463   5.699
   37PMPE  H16X  120   5.370   4.514   5.630
   37PMPE  H16Y  121   5.220   4.438   5.630
   37PMPE  H16Z  122   5.364   4.391   5.753
   38PMPE     N  123   3.238   4.715   7.181
   38PMPE   HN1  124   3.233   4.805   7.127
   38PMPE   HN2  125   3.249   4.635   7.116
   38PMPE   HN3  126   3.151   4.700   7.237
   38PMPE   C12  127   3.356   4.718   7.276
   38PMPE  H12A  128   3.370   4.822   7.311
   38PMPE  H12B  129   3.444   4.685   7.218
   38PMPE   C11  130   3.336   4.630   7.402
   38PMPE  H11A  131   3.271   4.686   7.473
   38PMPE  H11B  132   3.435   4.611   7.449
   38PMPE     P  133   3.261   4.381   7.466
   38PMPE   O13  134   3.136   4.397   7.540
   38PMPE   O14  135   3.384   4.361   7.545
   38PMPE   O11  136   3.241   4.266   7.363
   38PMPE   O12  137   3.273   4.508   7.368
   38PMPE    C1  138   3.354   4.231   7.286
   38PMPE    HA  139   3.324   4.133   7.251
   38PMPE    HB  140   3.447   4.218   7.348
   38PMPE    C2  141   3.384   4.325   7.164
   38PMPE    HS  142   3.427   4.418   7.208
   38PMPE   O21  143   3.263   4.350   7.092
   38PMPE   C21  144   3.274   4.431   6.992
   38PMPE   O22  145   3.364   4.513   6.974
   38PMPE   C22  146   3.146   4.423   6.912
   38PMPE   H2R  147   3.067   4.479   6.966
   38PMPE   H2S  148   3.116   4.316   6.904
   38PMPE    C3  149   3.491   4.272   7.066
   38PMPE    HX  150   3.571   4.249   7.136
   38PMPE    HY  151   3.538   4.347   7.000
   38PMPE   O31  152   3.443   4.162   6.988
   38PMPE   C31  153   3.529   4.106   6.906
   38PMPE   O32  154   3.627   4.160   6.857
   38PMPE   C32  155   3.481   3.968   6.872
   38PMPE   H2X  156   3.464   3.904   6.959
   38PMPE   H2Y  157   3.567   3.915   6.830
   38PMPE   C23  158   3.166   4.475   6.771
   38PMPE   H3R  159   3.254   4.425   6.722
   38PMPE   H3S  160   3.190   4.584   6.779
   38PMPE   C24  161   3.044   4.439   6.685
   38PMPE   H4R  162   2.954   4.481   6.734
   38PMPE   H4S  163   3.032   4.329   6.678
   38PMPE   C25  164   3.060   4.493   6.545
   38PMPE   H5R  165   2.964   4.487   6.487
   38PMPE   H5S  166   3.133   4.443   6.480
   38PMPE   C26  167   3.105   4.634   6.572
   38PMPE   H6R  168   3.210   4.662   6.589
   38PMPE   H6S  169   3.039   4.676   6.655
   38PMPE   C27  170   3.069   4.709   6.460
   38PMPE   H7R  171   3.052   4.809   6.485
   38PMPE   H7S  172   2.966   4.702   6.481
   38PMPE   C28  173   3.150   4.705   6.332
   38PMPE   H8R  174   3.234   4.772   6.367
   38PMPE   H8S  175   3.096   4.749   6.248
   38PMPE   C29  176   3.219   4.590   6.278
   38PMPE   H9R  177   3.303   4.563   6.340
   38PMPE  C217  178   3.256   4.593   6.128
   38PMPE  H17R  179   3.351   4.550   6.108
   38PMPE  H17S  180   3.210   4.669   6.065
   38PMPE  C210  181   3.156   4.495   6.181
   38PMPE  H10R  182   3.178   4.394   6.212
   38PMPE  C211  183   3.029   4.526   6.117
   38PMPE  H11R  184   3.037   4.607   6.040
   38PMPE  H11S  185   2.959   4.539   6.198
   38PMPE  C212  186   2.961   4.425   6.041
   38PMPE  H12R  187   2.890   4.367   6.105
   38PMPE  H12S  188   3.038   4.358   5.996
   38PMPE  C213  189   2.888   4.504   5.932
   38PMPE  H13R  190   2.851   4.436   5.870
   38PMPE  H13S  191   2.947   4.562   5.860
   38PMPE  C214  192   2.741   4.525   5.949
   38PMPE  H14R  193   2.737   4.600   6.018
   38PMPE  H14S  194   2.689   4.440   5.985
   38PMPE  C215  195   2.664   4.612   5.859
   38PMPE  H15R  196   2.731   4.670   5.787
   38PMPE  H15S  197   2.599   4.672   5.926
   38PMPE  C216  198   2.550   4.568   5.786
   38PMPE  H16R  199   2.539   4.469   5.750
   38PMPE  H16S  200   2.508   4.632   5.709
   38PMPE  H16T  201   2.630   4.517   5.746
   38PMPE   C33  202   3.344   3.972   6.798
   38PMPE   H3X  203   3.278   4.049   6.841
   38PMPE   H3Y  204   3.292   3.873   6.797
   38PMPE   C34  205   3.358   4.012   6.656
   38PMPE   H4X  206   3.377   3.915   6.614
   38PMPE   H4Y  207   3.441   4.080   6.636
   38PMPE   C35  208   3.237   4.022   6.573
   38PMPE   H5X  209   3.185   4.117   6.585
   38PMPE   H5Y  210   3.176   3.936   6.599
   38PMPE   C36  211   3.256   3.992   6.428
   38PMPE   H6X  212   3.170   4.046   6.382
   38PMPE   H6Y  213   3.286   3.892   6.390
   38PMPE   C37  214   3.319   4.082   6.340
   38PMPE   H7X  215   3.388   4.107   6.425
   38PMPE   H7Y  216   3.297   4.187   6.364
   38PMPE   C38  217   3.365   4.031   6.182
   38PMPE   H8X  218   3.442   3.951   6.159
   38PMPE   H8Y  219   3.444   4.090   6.130
   38PMPE   C39  220   3.308   4.098   6.062
   38PMPE   H9X  221   3.282   4.203   6.079
   38PMPE   H9Y  222   3.238   4.032   6.102
   38PMPE  C310  223   3.363   4.053   5.926
   38PMPE  H10X  224   3.275   4.011   5.873
   38PMPE  H10Y  225   3.439   3.972   5.935
   38PMPE  C311  226   3.412   4.167   5.836
   38PMPE  H11X  227   3.455   4.126   5.743
   38PMPE  H11Y  228   3.495   4.225   5.874
   38PMPE  C312  229   3.318   4.286   5.821
   38PMPE  H12X  230   3.295   4.331   5.921
   38PMPE  H12Y  231   3.224   4.250   5.776
   38PMPE  C313  232   3.384   4.400   5.741
   38PMPE  H13X  233   3.428   4.357   5.648
   38PMPE  H13Y  234   3.467   4.439   5.805
   38PMPE  C314  235   3.282   4.512   5.720
   38PMPE  H14X  236   3.272   4.563   5.819
   38PMPE  H14Y  237   3.189   4.458   5.696
   38PMPE  C315  238   3.280   4.615   5.605
   38PMPE  H15X  239   3.347   4.697   5.606
   38PMPE  H15Y  240   3.190   4.676   5.618
   38PMPE  C316  241   3.306   4.573   5.463
   38PMPE  H16X  242   3.300   4.667   5.401
   38PMPE  H16Y  243   3.228   4.502   5.437
   38PMPE  H16Z  244   3.410   4.532   5.451
   39PMPE     N  245   3.816   5.494   7.654
   39PMPE   HN1  246   3.881   5.413   7.643
   39PMPE   HN2  247   3.871   5.576   7.620
   39PMPE   HN3  248   3.790   5.510   7.754
   39PMPE   C12  249   3.697   5.477   7.563
   39PMPE  H12A  250   3.681   5.576   7.514
   39PMPE  H12B  251   3.608   5.451   7.623
   39PMPE   C11  252   3.726   5.367   7.461
   39PMPE  H11A  253   3.636   5.358   7.395
   39PMPE  H11B  254   3.739   5.270   7.515
   39PMPE     P  255   3.903   5.287   7.289
   39PMPE   O13  256   3.889   5.159   7.363
   39PMPE   O14  257   4.036   5.330   7.244
   39PMPE   O11  258   3.803   5.286   7.169
   39PMPE   O12  259   3.841   5.401   7.384
   39PMPE    C1  260   3.769   5.398   7.090
   39PMPE    HA  261   3.816   5.495   7.124
   39PMPE    HB  262   3.660   5.412   7.098
   39PMPE    C2  263   3.806   5.372   6.940
   39PMPE    HS  264   3.736   5.430   6.876
   39PMPE   O21  265   3.803   5.232   6.903
   39PMPE   C21  266   3.680   5.180   6.902
   39PMPE   O22  267   3.579   5.238   6.938
   39PMPE   C22  268   3.678   5.044   6.830
   39PMPE   H2R  269   3.664   4.962   6.902
   39PMPE   H2S  270   3.776   5.030   6.781
   39PMPE    C3  271   3.948   5.433   6.914
   39PMPE    HX  272   3.999   5.449   7.012
   39PMPE    HY  273   3.934   5.532   6.866
   39PMPE   O31  274   4.034   5.351   6.837
   39PMPE   C31  275   4.043   5.374   6.711
   39PMPE   O32  276   3.978   5.449   6.640
   39PMPE   C32  277   4.155   5.292   6.664
   39PMPE   H2X  278   4.246   5.312   6.726
   39PMPE   H2Y  279   4.182   5.310   6.558
   39PMPE   C23  280   3.565   5.039   6.724
   39PMPE   H3R  281   3.562   5.134   6.667
   39PMPE   H3S  282   3.466   5.029   6.774
   39PMPE   C24  283   3.585   4.925   6.622
   39PMPE   H4R  284   3.588   4.827   6.675
   39PMPE   H4S  285   3.681   4.939   6.568
   39PMPE   C25  286   3.470   4.917   6.522
   39PMPE   H5R  287   3.377   4.907   6.583
   39PMPE   H5S  288   3.476   4.825   6.460
   39PMPE   C26  289   3.457   5.040   6.430
   39PMPE   H6R  290   3.426   5.129   6.490
   39PMPE   H6S  291   3.375   5.017   6.360
   39PMPE   C27  292   3.576   5.077   6.338
   39PMPE   H7R  293   3.668   5.088   6.399
   39PMPE   H7S  294   3.553   5.173   6.288
   39PMPE   C28  295   3.608   4.969   6.233
   39PMPE   H8R  296   3.601   4.884   6.296
   39PMPE   H8S  297   3.702   4.982   6.176
   39PMPE   C29  298   3.503   4.949   6.133
   39PMPE   H9R  299   3.450   5.040   6.133
   39PMPE  C217  300   3.427   4.820   6.113
   39PMPE  H17R  301   3.330   4.819   6.068
   39PMPE  H17S  302   3.457   4.741   6.178
   39PMPE  C210  303   3.526   4.869   6.008
   39PMPE  H10R  304   3.508   4.935   5.922
   39PMPE  C211  305   3.625   4.763   5.983
   39PMPE  H11R  306   3.577   4.663   5.970
   39PMPE  H11S  307   3.688   4.766   6.072
   39PMPE  C212  308   3.696   4.807   5.856
   39PMPE  H12R  309   3.617   4.833   5.782
   39PMPE  H12S  310   3.758   4.724   5.817
   39PMPE  C213  311   3.778   4.934   5.876
   39PMPE  H13R  312   3.860   4.905   5.945
   39PMPE  H13S  313   3.716   5.017   5.915
   39PMPE  C214  314   3.844   4.994   5.754
   39PMPE  H14R  315   3.921   4.922   5.750
   39PMPE  H14S  316   3.911   5.080   5.765
   39PMPE  C215  317   3.751   5.026   5.638
   39PMPE  H15R  318   3.680   4.943   5.621
   39PMPE  H15S  319   3.813   5.049   5.547
   39PMPE  C216  320   3.666   5.147   5.650
   39PMPE  H16R  321   3.573   5.125   5.705
   39PMPE  H16S  322   3.729   5.216   5.708
   39PMPE  H16T  323   3.644   5.185   5.548
   39PMPE   C33  324   4.106   5.153   6.695
   39PMPE   H3X  325   4.089   5.118   6.798
   39PMPE   H3Y  326   4.201   5.115   6.676
   39PMPE   C34  327   3.997   5.099   6.610
   39PMPE   H4X  328   3.932   5.174   6.562
   39PMPE   H4Y  329   3.940   5.020   6.667
   39PMPE   C35  330   4.042   5.023   6.496
   39PMPE   H5X  331   3.945   4.996   6.444
   39PMPE   H5Y  332   4.079   4.927   6.538
   39PMPE   C36  333   4.135   5.079   6.390
   39PMPE   H6X  334   4.184   4.986   6.352
   39PMPE   H6Y  335   4.238   5.094   6.401
   39PMPE   C37  336   4.077   5.191   6.295
   39PMPE   H7X  337   4.168   5.224   6.238
   39PMPE   H7Y  338   4.038   5.267   6.364
   39PMPE   C38  339   3.966   5.169   6.184
   39PMPE   H8X  340   3.882   5.102   6.210
   39PMPE   H8Y  341   4.017   5.126   6.097
   39PMPE   C39  342   3.928   5.268   6.077
   39PMPE   H9X  343   3.887   5.216   5.985
   39PMPE   H9Y  344   4.020   5.321   6.042
   39PMPE  C310  345   3.823   5.353   6.137
   39PMPE  H10X  346   3.876   5.417   6.210
   39PMPE  H10Y  347   3.749   5.290   6.192
   39PMPE  C311  348   3.757   5.435   6.028
   39PMPE  H11X  349   3.694   5.508   6.083
   39PMPE  H11Y  350   3.691   5.370   5.966
   39PMPE  C312  351   3.863   5.507   5.943
   39PMPE  H12X  352   3.924   5.437   5.880
   39PMPE  H12Y  353   3.934   5.551   6.017
   39PMPE  C313  354   3.804   5.620   5.859
   39PMPE  H13X  355   3.871   5.708   5.866
   39PMPE  H13Y  356   3.708   5.648   5.905
   39PMPE  C314  357   3.784   5.590   5.709
   39PMPE  H14X  358   3.879   5.546   5.671
   39PMPE  H14Y  359   3.769   5.687   5.656
   39PMPE  C315  360   3.664   5.499   5.680
   39PMPE  H15X  361   3.671   5.408   5.744
   39PMPE  H15Y  362   3.667   5.463   5.575
   39PMPE  C316  363   3.527   5.563   5.708
   39PMPE  H16X  364   3.447   5.491   5.686
   39PMPE  H16Y  365   3.511   5.654   5.646
   39PMPE  H16Z  366   3.516   5.589   5.815
   40PMPE     N  367   4.531   3.459   7.157
   40PMPE   HN1  368   4.532   3.562   7.142
   40PMPE   HN2  369   4.626   3.420   7.139
   40PMPE   HN3  370   4.458   3.413   7.099
   40PMPE   C12  371   4.497   3.442   7.302
   40PMPE  H12A  372   4.462   3.338   7.317
   40PMPE  H12B  373   4.414   3.513   7.322
   40PMPE   C11  374   4.617   3.477   7.393
   40PMPE  H11A  375   4.698   3.401   7.382
   40PMPE  H11B  376   4.581   3.469   7.499
   40PMPE     P  377   4.654   3.722   7.472
   40PMPE   O13  378   4.747   3.690   7.582
   40PMPE   O14  379   4.510   3.733   7.502
   40PMPE   O11  380   4.708   3.848   7.402
   40PMPE   O12  381   4.670   3.606   7.362
   40PMPE    C1  382   4.773   3.846   7.278
   40PMPE    HA  383   4.766   3.749   7.222
   40PMPE    HB  384   4.879   3.874   7.285
   40PMPE    C2  385   4.703   3.950   7.202
   40PMPE    HS  386   4.735   4.054   7.229
   40PMPE   O21  387   4.563   3.925   7.222
   40PMPE   C21  388   4.515   3.999   7.135
   40PMPE   O22  389   4.571   4.094   7.085
   40PMPE   C22  390   4.399   3.929   7.072
   40PMPE   H2R  391   4.327   4.011   7.055
   40PMPE   H2S  392   4.490   3.907   7.012
   40PMPE    C3  393   4.749   3.923   7.063
   40PMPE    HX  394   4.855   3.935   7.077
   40PMPE    HY  395   4.747   4.021   7.002
   40PMPE   O31  396   4.696   3.783   7.022
   40PMPE   C31  397   4.673   3.789   6.895
   40PMPE   O32  398   4.692   3.904   6.851
   40PMPE   C32  399   4.627   3.635   6.813
   40PMPE   H2X  400   4.565   3.591   6.888
   40PMPE   H2Y  401   4.701   3.551   6.813
   40PMPE   C23  402   4.366   3.820   6.961
   40PMPE   H3R  403   4.258   3.810   6.942
   40PMPE   H3S  404   4.404   3.724   6.995
   40PMPE   C24  405   4.408   3.855   6.821
   40PMPE   H4R  406   4.367   3.796   6.740
   40PMPE   H4S  407   4.501   3.895   6.812
   40PMPE   C25  408   4.401   3.996   6.789
   40PMPE   H5R  409   4.386   4.068   6.866
   40PMPE   H5S  410   4.298   3.981   6.823
   40PMPE   C26  411   4.451   4.056   6.636
   40PMPE   H6R  412   4.512   3.969   6.627
   40PMPE   H6S  413   4.486   4.157   6.677
   40PMPE   C27  414   4.363   4.081   6.489
   40PMPE   H7R  415   4.262   4.118   6.474
   40PMPE   H7S  416   4.298   3.999   6.456
   40PMPE   C28  417   4.402   4.168   6.380
   40PMPE   H8R  418   4.432   4.260   6.436
   40PMPE   H8S  419   4.316   4.186   6.307
   40PMPE   C29  420   4.486   4.049   6.356
   40PMPE   H9R  421   4.462   3.941   6.384
   40PMPE  C217  422   4.622   4.088   6.408
   40PMPE  H17R  423   4.658   4.002   6.456
   40PMPE  H17S  424   4.623   4.190   6.447
   40PMPE  C210  425   4.591   4.066   6.262
   40PMPE  H10R  426   4.624   3.969   6.223
   40PMPE  C211  427   4.580   4.193   6.183
   40PMPE  H11R  428   4.618   4.277   6.246
   40PMPE  H11S  429   4.475   4.217   6.155
   40PMPE  C212  430   4.667   4.181   6.059
   40PMPE  H12R  431   4.772   4.168   6.092
   40PMPE  H12S  432   4.663   4.278   6.006
   40PMPE  C213  433   4.635   4.063   5.965
   40PMPE  H13R  434   4.652   3.967   6.019
   40PMPE  H13S  435   4.709   4.065   5.882
   40PMPE  C214  436   4.493   4.062   5.904
   40PMPE  H14R  437   4.488   4.132   5.818
   40PMPE  H14S  438   4.423   4.103   5.980
   40PMPE  C215  439   4.443   3.919   5.871
   40PMPE  H15R  440   4.331   3.921   5.864
   40PMPE  H15S  441   4.475   3.850   5.950
   40PMPE  C216  442   4.487   3.858   5.740
   40PMPE  H16R  443   4.431   3.909   5.664
   40PMPE  H16S  444   4.588   3.884   5.716
   40PMPE  H16T  445   4.472   3.748   5.730
   40PMPE   C33  446   4.609   3.585   6.650
   40PMPE   H3X  447   4.523   3.645   6.619
   40PMPE   H3Y  448   4.593   3.476   6.658
   40PMPE   C34  449   4.714   3.591   6.524
   40PMPE   H4X  450   4.821   3.567   6.536
   40PMPE   H4Y  451   4.711   3.692   6.476
   40PMPE   C35  452   4.689   3.545   6.385
   40PMPE   H5X  453   4.601   3.605   6.349
   40PMPE   H5Y  454   4.669   3.440   6.408
   40PMPE   C36  455   4.813   3.565   6.294
   40PMPE   H6X  456   4.910   3.541   6.343
   40PMPE   H6Y  457   4.830   3.670   6.260
   40PMPE   C37  458   4.794   3.470   6.177
   40PMPE   H7X  459   4.745   3.378   6.215
   40PMPE   H7Y  460   4.891   3.439   6.133
   40PMPE   C38  461   4.706   3.532   6.070
   40PMPE   H8X  462   4.769   3.612   6.031
   40PMPE   H8Y  463   4.614   3.581   6.111
   40PMPE   C39  464   4.668   3.435   5.959
   40PMPE   H9X  465   4.757   3.376   5.926
   40PMPE   H9Y  466   4.628   3.490   5.871
   40PMPE  C310  467   4.557   3.344   6.009
   40PMPE  H10X  468   4.486   3.398   6.075
   40PMPE  H10Y  469   4.609   3.278   6.076
   40PMPE  C311  470   4.479   3.272   5.899
   40PMPE  H11X  471   4.421   3.193   5.950
   40PMPE  H11Y  472   4.551   3.231   5.825
   40PMPE  C312  473   4.375   3.361   5.832
   40PMPE  H12X  474   4.427   3.456   5.810
   40PMPE  H12Y  475   4.293   3.379   5.905
   40PMPE  C313  476   4.312   3.315   5.701
   40PMPE  H13X  477   4.265   3.217   5.723
   40PMPE  H13Y  478   4.386   3.290   5.624
   40PMPE  C314  479   4.217   3.428   5.648
   40PMPE  H14X  480   4.258   3.527   5.672
   40PMPE  H14Y  481   4.121   3.420   5.704
   40PMPE  C315  482   4.190   3.446   5.496
   40PMPE  H15X  483   4.086   3.473   5.474
   40PMPE  H15Y  484   4.157   3.361   5.444
   40PMPE  C316  485   4.303   3.429   5.402
   40PMPE  H16X  486   4.278   3.445   5.296
   40PMPE  H16Y  487   4.334   3.320   5.404
   40PMPE  H16Z  488   4.378   3.498   5.438
   41PMPE     N  489   5.311   4.355   7.491
   41PMPE   HN1  490   5.395   4.300   7.519
   41PMPE   HN2  491   5.319   4.458   7.506
   41PMPE   HN3  492   5.227   4.314   7.536
   41PMPE   C12  493   5.298   4.335   7.343
   41PMPE  H12A  494   5.398   4.356   7.300
   41PMPE  H12B  495   5.226   4.412   7.307
   41PMPE   C11  496   5.257   4.191   7.304
   41PMPE  H11A  497   5.279   4.182   7.195
   41PMPE  H11B  498   5.146   4.183   7.315
   41PMPE     P  499   5.246   3.950   7.405
   41PMPE   O13  500   5.124   3.981   7.480
   41PMPE   O14  501   5.334   3.843   7.461
   41PMPE   O11  502   5.209   3.904   7.258
   41PMPE   O12  503   5.326   4.088   7.379
   41PMPE    C1  504   5.317   3.852   7.179
   41PMPE    HA  505   5.337   3.747   7.211
   41PMPE    HB  506   5.410   3.912   7.190
   41PMPE    C2  507   5.293   3.853   7.027
   41PMPE    HS  508   5.286   3.958   6.989
   41PMPE   O21  509   5.175   3.779   7.002
   41PMPE   C21  510   5.073   3.856   7.011
   41PMPE   O22  511   5.066   3.975   7.034
   41PMPE   C22  512   4.966   3.778   6.955
   41PMPE   H2R  513   4.908   3.859   6.907
   41PMPE   H2S  514   4.908   3.719   7.031
   41PMPE    C3  515   5.408   3.783   6.953
   41PMPE    HX  516   5.416   3.679   6.995
   41PMPE    HY  517   5.500   3.838   6.982
   41PMPE   O31  518   5.394   3.788   6.810
   41PMPE   C31  519   5.366   3.675   6.745
   41PMPE   O32  520   5.347   3.566   6.796
   41PMPE   C32  521   5.375   3.702   6.595
   41PMPE   H2X  522   5.453   3.779   6.577
   41PMPE   H2Y  523   5.279   3.744   6.559
   41PMPE   C23  524   5.002   3.706   6.829
   41PMPE   H3R  525   5.033   3.602   6.859
   41PMPE   H3S  526   5.059   3.759   6.751
   41PMPE   C24  527   4.878   3.687   6.753
   41PMPE   H4R  528   4.844   3.642   6.851
   41PMPE   H4S  529   4.901   3.603   6.691
   41PMPE   C25  530   4.799   3.795   6.664
   41PMPE   H5R  531   4.691   3.824   6.674
   41PMPE   H5S  532   4.701   3.790   6.613
   41PMPE   C26  533   4.863   3.898   6.598
   41PMPE   H6R  534   4.929   3.934   6.677
   41PMPE   H6S  535   4.784   3.973   6.582
   41PMPE   C27  536   4.917   3.828   6.479
   41PMPE   H7R  537   4.843   3.818   6.396
   41PMPE   H7S  538   4.951   3.725   6.506
   41PMPE   C28  539   5.037   3.901   6.442
   41PMPE   H8R  540   5.082   3.836   6.366
   41PMPE   H8S  541   5.100   3.907   6.533
   41PMPE   C29  542   4.995   4.039   6.397
   41PMPE   H9R  543   4.964   4.116   6.470
   41PMPE  C217  544   4.923   4.043   6.263
   41PMPE  H17R  545   4.850   4.123   6.265
   41PMPE  H17S  546   4.904   3.944   6.225
   41PMPE  C210  547   5.067   4.088   6.277
   41PMPE  H10R  548   5.091   4.193   6.288
   41PMPE  C211  549   5.175   3.996   6.227
   41PMPE  H11R  550   5.131   3.908   6.175
   41PMPE  H11S  551   5.242   3.960   6.308
   41PMPE  C212  552   5.260   4.073   6.133
   41PMPE  H12R  553   5.353   4.016   6.115
   41PMPE  H12S  554   5.290   4.174   6.168
   41PMPE  C213  555   5.202   4.085   5.998
   41PMPE  H13R  556   5.114   4.156   6.001
   41PMPE  H13S  557   5.153   3.993   5.960
   41PMPE  C214  558   5.337   4.127   5.927
   41PMPE  H14R  559   5.402   4.055   5.879
   41PMPE  H14S  560   5.371   4.231   5.927
   41PMPE  C215  561   5.326   4.134   5.791
   41PMPE  H15R  562   5.231   4.185   5.812
   41PMPE  H15S  563   5.246   4.047   5.775
   41PMPE  C216  564   5.450   4.199   5.671
   41PMPE  H16R  565   5.409   4.229   5.569
   41PMPE  H16S  566   5.461   4.302   5.646
   41PMPE  H16T  567   5.463   4.164   5.566
   41PMPE   C33  568   5.404   3.572   6.517
   41PMPE   H3X  569   5.475   3.508   6.573
   41PMPE   H3Y  570   5.450   3.595   6.418
   41PMPE   C34  571   5.277   3.490   6.488
   41PMPE   H4X  572   5.220   3.473   6.583
   41PMPE   H4Y  573   5.312   3.393   6.449
   41PMPE   C35  574   5.176   3.549   6.389
   41PMPE   H5X  575   5.118   3.628   6.441
   41PMPE   H5Y  576   5.107   3.465   6.365
   41PMPE   C36  577   5.233   3.608   6.259
   41PMPE   H6X  578   5.314   3.542   6.221
   41PMPE   H6Y  579   5.277   3.707   6.286
   41PMPE   C37  580   5.126   3.622   6.148
   41PMPE   H7X  581   5.044   3.684   6.189
   41PMPE   H7Y  582   5.087   3.522   6.121
   41PMPE   C38  583   5.170   3.689   6.018
   41PMPE   H8X  584   5.241   3.626   5.960
   41PMPE   H8Y  585   5.221   3.783   6.049
   41PMPE   C39  586   5.059   3.743   5.929
   41PMPE   H9X  587   5.105   3.815   5.857
   41PMPE   H9Y  588   4.992   3.800   5.997
   41PMPE  C310  589   4.979   3.641   5.849
   41PMPE  H10X  590   4.966   3.548   5.909
   41PMPE  H10Y  591   5.036   3.615   5.757
   41PMPE  C311  592   4.844   3.698   5.803
   41PMPE  H11X  593   4.773   3.719   5.885
   41PMPE  H11Y  594   4.793   3.628   5.735
   41PMPE  C312  595   4.857   3.836   5.746
   41PMPE  H12X  596   4.887   3.911   5.822
   41PMPE  H12Y  597   4.760   3.869   5.712
   41PMPE  C313  598   4.936   3.854   5.621
   41PMPE  H13X  599   4.913   3.773   5.549
   41PMPE  H13Y  600   5.044   3.851   5.646
   41PMPE  C314  601   4.882   3.993   5.582
   41PMPE  H14X  602   4.894   4.064   5.660
   41PMPE  H14Y  603   4.774   3.996   5.553
   41PMPE  C315  604   4.942   4.051   5.470
   41PMPE  H15X  605   5.050   4.036   5.484
   41PMPE  H15Y  606   4.925   4.162   5.445
   41PMPE  C316  607   4.876   3.964   5.379
   41PMPE  H16X  608   4.810   3.981   5.297
   41PMPE  H16Y  609   4.907   3.857   5.378
   41PMPE  H16Z  610   4.952   4.030   5.341
   42PMPE     N  611   3.282   3.113   7.720
   42PMPE   HN1  612   3.216   3.046   7.765
   42PMPE   HN2  613   3.376   3.109   7.765
   42PMPE   HN3  614   3.239   3.208   7.732
   42PMPE   C12  615   3.295   3.094   7.571
   42PMPE  H12A  616   3.316   2.987   7.550
   42PMPE  H12B  617   3.383   3.153   7.539
   42PMPE   C11  618   3.172   3.149   7.495
   42PMPE  H11A  619   3.145   3.251   7.528
   42PMPE  H11B  620   3.080   3.088   7.509
   42PMPE     P  621   3.232   3.026   7.275
   42PMPE   O13  622   3.135   2.924   7.319
   42PMPE   O14  623   3.376   2.996   7.286
   42PMPE   O11  624   3.194   3.074   7.132
   42PMPE   O12  625   3.204   3.158   7.357
   42PMPE    C1  626   3.055   3.091   7.102
   42PMPE    HA  627   2.996   3.144   7.181
   42PMPE    HB  628   3.007   2.991   7.091
   42PMPE    C2  629   3.048   3.174   6.971
   42PMPE    HS  630   2.948   3.153   6.923
   42PMPE   O21  631   3.164   3.156   6.879
   42PMPE   C21  632   3.153   3.031   6.842
   42PMPE   O22  633   3.054   2.969   6.870
   42PMPE   C22  634   3.279   2.975   6.769
   42PMPE   H2R  635   3.359   2.979   6.845
   42PMPE   H2S  636   3.300   3.033   6.678
   42PMPE    C3  637   3.046   3.322   7.008
   42PMPE    HX  638   3.120   3.334   7.089
   42PMPE    HY  639   2.946   3.355   7.042
   42PMPE   O31  640   3.089   3.400   6.900
   42PMPE   C31  641   3.028   3.372   6.787
   42PMPE   O32  642   2.924   3.311   6.769
   42PMPE   C32  643   3.106   3.435   6.683
   42PMPE   H2X  644   3.194   3.390   6.638
   42PMPE   H2Y  645   3.162   3.517   6.736
   42PMPE   C23  646   3.273   2.826   6.729
   42PMPE   H3R  647   3.194   2.817   6.654
   42PMPE   H3S  648   3.258   2.776   6.826
   42PMPE   C24  649   3.392   2.752   6.669
   42PMPE   H4R  650   3.360   2.648   6.642
   42PMPE   H4S  651   3.467   2.741   6.750
   42PMPE   C25  652   3.453   2.826   6.550
   42PMPE   H5R  653   3.548   2.772   6.527
   42PMPE   H5S  654   3.479   2.929   6.582
   42PMPE   C26  655   3.370   2.837   6.421
   42PMPE   H6R  656   3.433   2.892   6.348
   42PMPE   H6S  657   3.278   2.899   6.434
   42PMPE   C27  658   3.333   2.701   6.364
   42PMPE   H7R  659   3.236   2.668   6.408
   42PMPE   H7S  660   3.407   2.625   6.398
   42PMPE   C28  661   3.336   2.697   6.211
   42PMPE   H8R  662   3.313   2.592   6.183
   42PMPE   H8S  663   3.432   2.722   6.165
   42PMPE   C29  664   3.243   2.796   6.146
   42PMPE   H9R  665   3.213   2.890   6.198
   42PMPE  C217  666   3.130   2.704   6.151
   42PMPE  H17R  667   3.060   2.750   6.205
   42PMPE  H17S  668   3.124   2.598   6.153
   42PMPE  C210  669   3.162   2.772   6.022
   42PMPE  H10R  670   3.093   2.852   5.992
   42PMPE  C211  671   3.219   2.690   5.912
   42PMPE  H11R  672   3.142   2.683   5.832
   42PMPE  H11S  673   3.227   2.591   5.955
   42PMPE  C212  674   3.362   2.732   5.867
   42PMPE  H12R  675   3.428   2.723   5.954
   42PMPE  H12S  676   3.349   2.835   5.830
   42PMPE  C213  677   3.429   2.645   5.759
   42PMPE  H13R  678   3.340   2.640   5.707
   42PMPE  H13S  679   3.451   2.539   5.783
   42PMPE  C214  680   3.529   2.689   5.655
   42PMPE  H14R  681   3.525   2.618   5.568
   42PMPE  H14S  682   3.624   2.670   5.705
   42PMPE  C215  683   3.517   2.832   5.603
   42PMPE  H15R  684   3.523   2.904   5.687
   42PMPE  H15S  685   3.418   2.841   5.552
   42PMPE  C216  686   3.621   2.863   5.496
   42PMPE  H16R  687   3.633   2.770   5.436
   42PMPE  H16S  688   3.599   2.951   5.435
   42PMPE  H16T  689   3.717   2.893   5.535
   42PMPE   C33  690   2.997   3.473   6.578
   42PMPE   H3X  691   3.080   3.525   6.533
   42PMPE   H3Y  692   2.916   3.547   6.598
   42PMPE   C34  693   2.949   3.391   6.467
   42PMPE   H4X  694   2.886   3.453   6.397
   42PMPE   H4Y  695   2.884   3.320   6.521
   42PMPE   C35  696   3.071   3.336   6.398
   42PMPE   H5X  697   3.132   3.282   6.473
   42PMPE   H5Y  698   3.136   3.417   6.357
   42PMPE   C36  699   3.026   3.243   6.290
   42PMPE   H6X  700   2.953   3.295   6.223
   42PMPE   H6Y  701   2.972   3.163   6.344
   42PMPE   C37  702   3.141   3.184   6.209
   42PMPE   H7X  703   3.094   3.115   6.137
   42PMPE   H7Y  704   3.207   3.127   6.278
   42PMPE   C38  705   3.224   3.289   6.132
   42PMPE   H8X  706   3.285   3.350   6.203
   42PMPE   H8Y  707   3.154   3.357   6.080
   42PMPE   C39  708   3.323   3.232   6.028
   42PMPE   H9X  709   3.272   3.164   5.957
   42PMPE   H9Y  710   3.402   3.175   6.083
   42PMPE  C310  711   3.388   3.348   5.951
   42PMPE  H10X  712   3.437   3.413   6.027
   42PMPE  H10Y  713   3.306   3.408   5.906
   42PMPE  C311  714   3.498   3.315   5.848
   42PMPE  H11X  715   3.584   3.260   5.888
   42PMPE  H11Y  716   3.532   3.412   5.803
   42PMPE  C312  717   3.450   3.237   5.730
   42PMPE  H12X  718   3.395   3.144   5.760
   42PMPE  H12Y  719   3.530   3.211   5.657
   42PMPE  C313  720   3.362   3.336   5.662
   42PMPE  H13X  721   3.398   3.434   5.626
   42PMPE  H13Y  722   3.266   3.338   5.720
   42PMPE  C314  723   3.331   3.293   5.532
   42PMPE  H14X  724   3.309   3.195   5.580
   42PMPE  H14Y  725   3.394   3.237   5.459
   42PMPE  C315  726   3.215   3.395   5.493
   42PMPE  H15X  727   3.204   3.356   5.391
   42PMPE  H15Y  728   3.226   3.485   5.431
   42PMPE  C316  729   3.085   3.412   5.594
   42PMPE  H16X  730   3.060   3.511   5.629
   42PMPE  H16Y  731   3.051   3.325   5.656
   42PMPE  H16Z  732   2.987   3.395   5.553
   43PMPE     N  733   2.690   5.212   7.311
   43PMPE   HN1  734   2.603   5.159   7.331
   43PMPE   HN2  735   2.668   5.299   7.258
   43PMPE   HN3  736   2.755   5.156   7.251
   43PMPE   C12  737   2.760   5.252   7.439
   43PMPE  H12A  738   2.804   5.162   7.486
   43PMPE  H12B  739   2.681   5.291   7.508
   43PMPE   C11  740   2.864   5.366   7.421
   43PMPE  H11A  741   2.898   5.398   7.521
   43PMPE  H11B  742   2.817   5.452   7.369
   43PMPE     P  743   3.102   5.257   7.397
   43PMPE   O13  744   3.051   5.123   7.434
   43PMPE   O14  745   3.161   5.343   7.502
   43PMPE   O11  746   3.195   5.248   7.269
   43PMPE   O12  747   2.976   5.332   7.341
   43PMPE    C1  748   3.234   5.368   7.199
   43PMPE    HA  749   3.331   5.349   7.148
   43PMPE    HB  750   3.256   5.452   7.269
   43PMPE    C2  751   3.132   5.415   7.091
   43PMPE    HS  752   3.041   5.453   7.142
   43PMPE   O21  753   3.098   5.308   7.000
   43PMPE   C21  754   2.978   5.256   7.012
   43PMPE   O22  755   2.896   5.273   7.101
   43PMPE   C22  756   2.947   5.172   6.892
   43PMPE   H2R  757   2.966   5.228   6.799
   43PMPE   H2S  758   2.838   5.146   6.894
   43PMPE    C3  759   3.186   5.536   7.012
   43PMPE    HX  760   3.281   5.515   6.958
   43PMPE    HY  761   3.210   5.617   7.084
   43PMPE   O31  762   3.084   5.580   6.922
   43PMPE   C31  763   3.091   5.520   6.803
   43PMPE   O32  764   3.179   5.448   6.762
   43PMPE   C32  765   2.974   5.559   6.720
   43PMPE   H2X  766   2.997   5.665   6.697
   43PMPE   H2Y  767   2.887   5.547   6.790
   43PMPE   C23  768   3.033   5.048   6.895
   43PMPE   H3R  769   3.025   4.992   6.992
   43PMPE   H3S  770   3.139   5.066   6.869
   43PMPE   C24  771   2.979   4.954   6.796
   43PMPE   H4R  772   2.869   4.949   6.817
   43PMPE   H4S  773   3.040   4.861   6.812
   43PMPE   C25  774   2.984   4.973   6.650
   43PMPE   H5R  775   2.897   5.026   6.607
   43PMPE   H5S  776   2.969   4.866   6.632
   43PMPE   C26  777   3.120   4.997   6.590
   43PMPE   H6R  778   3.179   4.902   6.603
   43PMPE   H6S  779   3.170   5.073   6.652
   43PMPE   C27  780   3.110   5.053   6.447
   43PMPE   H7R  781   3.210   5.090   6.423
   43PMPE   H7S  782   3.033   5.131   6.442
   43PMPE   C28  783   3.081   4.968   6.327
   43PMPE   H8R  784   3.000   4.895   6.339
   43PMPE   H8S  785   3.178   4.929   6.289
   43PMPE   C29  786   3.012   5.019   6.213
   43PMPE   H9R  787   2.904   5.036   6.226
   43PMPE  C217  788   3.057   4.945   6.087
   43PMPE  H17R  789   2.998   4.952   6.006
   43PMPE  H17S  790   3.124   4.860   6.091
   43PMPE  C210  791   3.087   5.087   6.113
   43PMPE  H10R  792   3.024   5.152   6.053
   43PMPE  C211  793   3.231   5.085   6.117
   43PMPE  H11R  794   3.263   4.982   6.110
   43PMPE  H11S  795   3.268   5.110   6.217
   43PMPE  C212  796   3.289   5.152   5.995
   43PMPE  H12R  797   3.400   5.157   5.997
   43PMPE  H12S  798   3.253   5.254   6.003
   43PMPE  C213  799   3.250   5.095   5.860
   43PMPE  H13R  800   3.312   5.148   5.785
   43PMPE  H13S  801   3.142   5.107   5.840
   43PMPE  C214  802   3.262   4.947   5.840
   43PMPE  H14R  803   3.180   4.886   5.881
   43PMPE  H14S  804   3.336   4.899   5.896
   43PMPE  C215  805   3.281   4.912   5.696
   43PMPE  H15R  806   3.185   4.921   5.643
   43PMPE  H15S  807   3.305   4.810   5.729
   43PMPE  C216  808   3.393   4.969   5.611
   43PMPE  H16R  809   3.490   4.930   5.646
   43PMPE  H16S  810   3.376   4.939   5.505
   43PMPE  H16T  811   3.399   5.078   5.605
   43PMPE   C33  812   2.950   5.493   6.580
   43PMPE   H3X  813   2.974   5.386   6.594
   43PMPE   H3Y  814   3.023   5.542   6.511
   43PMPE   C34  815   2.809   5.497   6.513
   43PMPE   H4X  816   2.759   5.593   6.491
   43PMPE   H4Y  817   2.736   5.450   6.582
   43PMPE   C35  818   2.807   5.447   6.370
   43PMPE   H5X  819   2.703   5.411   6.350
   43PMPE   H5Y  820   2.881   5.366   6.363
   43PMPE   C36  821   2.835   5.555   6.266
   43PMPE   H6X  822   2.926   5.616   6.284
   43PMPE   H6Y  823   2.750   5.628   6.272
   43PMPE   C37  824   2.841   5.495   6.125
   43PMPE   H7X  825   2.869   5.574   6.059
   43PMPE   H7Y  826   2.743   5.456   6.091
   43PMPE   C38  827   2.960   5.416   6.075
   43PMPE   H8X  828   2.923   5.357   5.988
   43PMPE   H8Y  829   2.987   5.351   6.160
   43PMPE   C39  830   3.086   5.498   6.032
   43PMPE   H9X  831   3.169   5.425   6.029
   43PMPE   H9Y  832   3.110   5.570   6.113
   43PMPE  C310  833   3.090   5.568   5.895
   43PMPE  H10X  834   3.152   5.661   5.897
   43PMPE  H10Y  835   2.992   5.603   5.862
   43PMPE  C311  836   3.144   5.478   5.784
   43PMPE  H11X  837   3.090   5.381   5.780
   43PMPE  H11Y  838   3.251   5.457   5.805
   43PMPE  C312  839   3.130   5.541   5.646
   43PMPE  H12X  840   3.170   5.644   5.647
   43PMPE  H12Y  841   3.023   5.548   5.616
   43PMPE  C313  842   3.202   5.448   5.549
   43PMPE  H13X  843   3.140   5.356   5.538
   43PMPE  H13Y  844   3.299   5.416   5.591
   43PMPE  C314  845   3.233   5.511   5.415
   43PMPE  H14X  846   3.144   5.560   5.382
   43PMPE  H14Y  847   3.248   5.425   5.346
   43PMPE  C315  848   3.342   5.624   5.420
   43PMPE  H15X  849   3.430   5.571   5.457
   43PMPE  H15Y  850   3.319   5.693   5.502
   43PMPE  C316  851   3.384   5.702   5.288
   43PMPE  H16X  852   3.308   5.746   5.231
   43PMPE  H16Y  853   3.366   5.655   5.196
   43PMPE  H16Z  854   3.446   5.791   5.293
   44PMPE     N  855   4.079   6.306   7.692
   44PMPE   HN1  856   4.137   6.387   7.725
   44PMPE   HN2  857   3.991   6.346   7.656
   44PMPE   HN3  858   4.058   6.245   7.774
   44PMPE   C12  859   4.148   6.228   7.581
   44PMPE  H12A  860   4.082   6.143   7.553
   44PMPE  H12B  861   4.243   6.188   7.620
   44PMPE   C11  862   4.173   6.315   7.456
   44PMPE  H11A  863   4.184   6.421   7.491
   44PMPE  H11B  864   4.084   6.313   7.388
   44PMPE     P  865   4.284   6.157   7.278
   44PMPE   O13  866   4.222   6.213   7.156
   44PMPE   O14  867   4.219   6.042   7.345
   44PMPE   O11  868   4.434   6.121   7.250
   44PMPE   O12  869   4.292   6.275   7.387
   44PMPE    C1  870   4.545   6.175   7.321
   44PMPE    HA  871   4.579   6.104   7.399
   44PMPE    HB  872   4.522   6.272   7.371
   44PMPE    C2  873   4.661   6.200   7.223
   44PMPE    HS  874   4.730   6.272   7.268
   44PMPE   O21  875   4.614   6.253   7.099
   44PMPE   C21  876   4.556   6.369   7.109
   44PMPE   O22  877   4.548   6.440   7.208
   44PMPE   C22  878   4.520   6.411   6.968
   44PMPE   H2R  879   4.578   6.352   6.893
   44PMPE   H2S  880   4.541   6.519   6.960
   44PMPE    C3  881   4.743   6.072   7.194
   44PMPE    HX  882   4.787   6.035   7.289
   44PMPE    HY  883   4.827   6.091   7.124
   44PMPE   O31  884   4.658   5.970   7.145
   44PMPE   C31  885   4.629   5.976   7.019
   44PMPE   O32  886   4.693   6.031   6.930
   44PMPE   C32  887   4.515   5.885   7.003
   44PMPE   H2X  888   4.467   5.855   7.099
   44PMPE   H2Y  889   4.571   5.796   6.973
   44PMPE   C23  890   4.376   6.397   6.940
   44PMPE   H3R  891   4.326   6.455   7.021
   44PMPE   H3S  892   4.357   6.288   6.946
   44PMPE   C24  893   4.336   6.448   6.803
   44PMPE   H4R  894   4.321   6.560   6.806
   44PMPE   H4S  895   4.245   6.397   6.770
   44PMPE   C25  896   4.436   6.427   6.694
   44PMPE   H5R  897   4.498   6.335   6.686
   44PMPE   H5S  898   4.499   6.508   6.722
   44PMPE   C26  899   4.375   6.469   6.565
   44PMPE   H6R  900   4.356   6.580   6.563
   44PMPE   H6S  901   4.287   6.409   6.535
   44PMPE   C27  902   4.475   6.450   6.464
   44PMPE   H7R  903   4.517   6.346   6.466
   44PMPE   H7S  904   4.559   6.519   6.480
   44PMPE   C28  905   4.412   6.484   6.332
   44PMPE   H8R  906   4.363   6.398   6.292
   44PMPE   H8S  907   4.509   6.526   6.292
   44PMPE   C29  908   4.320   6.583   6.288
   44PMPE   H9R  909   4.366   6.641   6.361
   44PMPE  C217  910   4.175   6.563   6.264
   44PMPE  H17R  911   4.125   6.631   6.331
   44PMPE  H17S  912   4.157   6.459   6.248
   44PMPE  C210  913   4.258   6.622   6.148
   44PMPE  H10R  914   4.216   6.720   6.112
   44PMPE  C211  915   4.253   6.559   6.017
   44PMPE  H11R  916   4.195   6.629   5.948
   44PMPE  H11S  917   4.211   6.460   6.027
   44PMPE  C212  918   4.389   6.552   5.963
   44PMPE  H12R  919   4.435   6.457   5.972
   44PMPE  H12S  920   4.454   6.613   6.022
   44PMPE  C213  921   4.396   6.601   5.825
   44PMPE  H13R  922   4.504   6.584   5.801
   44PMPE  H13S  923   4.359   6.707   5.824
   44PMPE  C214  924   4.327   6.519   5.723
   44PMPE  H14R  925   4.232   6.488   5.770
   44PMPE  H14S  926   4.396   6.432   5.714
   44PMPE  C215  927   4.304   6.589   5.587
   44PMPE  H15R  928   4.214   6.654   5.594
   44PMPE  H15S  929   4.280   6.505   5.518
   44PMPE  C216  930   4.416   6.668   5.518
   44PMPE  H16R  931   4.515   6.619   5.529
   44PMPE  H16S  932   4.394   6.686   5.411
   44PMPE  H16T  933   4.424   6.770   5.557
   44PMPE   C33  934   4.409   5.959   6.920
   44PMPE   H3X  935   4.383   6.061   6.951
   44PMPE   H3Y  936   4.316   5.900   6.944
   44PMPE   C34  937   4.445   5.977   6.769
   44PMPE   H4X  938   4.464   5.869   6.778
   44PMPE   H4Y  939   4.547   5.972   6.729
   44PMPE   C35  940   4.327   6.034   6.669
   44PMPE   H5X  941   4.314   6.139   6.698
   44PMPE   H5Y  942   4.224   6.002   6.698
   44PMPE   C36  943   4.305   6.007   6.511
   44PMPE   H6X  944   4.211   5.952   6.486
   44PMPE   H6Y  945   4.364   5.942   6.446
   44PMPE   C37  946   4.357   6.117   6.430
   44PMPE   H7X  947   4.422   6.085   6.342
   44PMPE   H7Y  948   4.420   6.173   6.501
   44PMPE   C38  949   4.230   6.176   6.386
   44PMPE   H8X  950   4.254   6.279   6.363
   44PMPE   H8Y  951   4.154   6.174   6.467
   44PMPE   C39  952   4.186   6.096   6.267
   44PMPE   H9X  953   4.151   5.993   6.295
   44PMPE   H9Y  954   4.269   6.085   6.194
   44PMPE  C310  955   4.073   6.155   6.194
   44PMPE  H10X  956   4.080   6.265   6.176
   44PMPE  H10Y  957   3.983   6.142   6.260
   44PMPE  C311  958   4.072   6.069   6.066
   44PMPE  H11X  959   3.973   6.043   6.034
   44PMPE  H11Y  960   4.081   5.962   6.086
   44PMPE  C312  961   4.157   6.120   5.948
   44PMPE  H12X  962   4.261   6.104   5.979
   44PMPE  H12Y  963   4.147   6.230   5.930
   44PMPE  C313  964   4.125   6.042   5.818
   44PMPE  H13X  965   4.055   6.094   5.754
   44PMPE  H13Y  966   4.078   5.945   5.846
   44PMPE  C314  967   4.233   6.035   5.716
   44PMPE  H14X  968   4.220   5.949   5.647
   44PMPE  H14Y  969   4.314   6.015   5.789
   44PMPE  C315  970   4.265   6.168   5.640
   44PMPE  H15X  971   4.351   6.153   5.571
   44PMPE  H15Y  972   4.291   6.246   5.713
   44PMPE  C316  973   4.162   6.221   5.546
   44PMPE  H16X  974   4.183   6.311   5.485
   44PMPE  H16Y  975   4.064   6.224   5.585
   44PMPE  H16Z  976   4.162   6.139   5.480
   45PMPE     N  977   2.344   4.857   7.602
   45PMPE   HN1  978   2.260   4.846   7.661
   45PMPE   HN2  979   2.418   4.788   7.631
   45PMPE   HN3  980   2.380   4.952   7.613
   45PMPE   C12  981   2.315   4.827   7.458
   45PMPE  H12A  982   2.391   4.880   7.397
   45PMPE  H12B  983   2.215   4.867   7.432
   45PMPE   C11  984   2.330   4.677   7.441
   45PMPE  H11A  985   2.276   4.643   7.350
   45PMPE  H11B  986   2.284   4.621   7.525
   45PMPE     P  987   2.526   4.559   7.323
   45PMPE   O13  988   2.446   4.436   7.315
   45PMPE   O14  989   2.672   4.547   7.342
   45PMPE   O11  990   2.493   4.656   7.205
   45PMPE   O12  991   2.468   4.643   7.444
   45PMPE    C1  992   2.563   4.779   7.191
   45PMPE    HA  993   2.661   4.781   7.245
   45PMPE    HB  994   2.501   4.863   7.226
   45PMPE    C2  995   2.591   4.797   7.043
   45PMPE    HS  996   2.637   4.896   7.023
   45PMPE   O21  997   2.475   4.783   6.960
   45PMPE   C21  998   2.392   4.881   6.958
   45PMPE   O22  999   2.386   4.974   7.036
   45PMPE   C22 1000   2.307   4.867   6.834
   45PMPE   H2R 1001   2.220   4.810   6.874
   45PMPE   H2S 1002   2.362   4.814   6.753
   45PMPE    C3 1003   2.689   4.689   7.001
   45PMPE    HX 1004   2.672   4.588   7.040
   45PMPE    HY 1005   2.785   4.720   7.050
   45PMPE   O31 1006   2.674   4.683   6.857
   45PMPE   C31 1007   2.781   4.723   6.801
   45PMPE   O32 1008   2.889   4.722   6.860
   45PMPE   C32 1009   2.745   4.756   6.654
   45PMPE   H2X 1010   2.801   4.826   6.594
   45PMPE   H2Y 1011   2.648   4.806   6.648
   45PMPE   C23 1012   2.236   4.988   6.782
   45PMPE   H3R 1013   2.308   5.058   6.738
   45PMPE   H3S 1014   2.180   5.028   6.870
   45PMPE   C24 1015   2.140   4.943   6.675
   45PMPE   H4R 1016   2.062   5.023   6.672
   45PMPE   H4S 1017   2.096   4.846   6.705
   45PMPE   C25 1018   2.212   4.916   6.544
   45PMPE   H5R 1019   2.273   4.824   6.539
   45PMPE   H5S 1020   2.270   5.002   6.507
   45PMPE   C26 1021   2.123   4.892   6.435
   45PMPE   H6R 1022   2.058   4.983   6.429
   45PMPE   H6S 1023   2.064   4.794   6.437
   45PMPE   C27 1024   2.194   4.903   6.309
   45PMPE   H7R 1025   2.193   5.000   6.257
   45PMPE   H7S 1026   2.112   4.846   6.271
   45PMPE   C28 1027   2.289   4.799   6.265
   45PMPE   H8R 1028   2.376   4.819   6.324
   45PMPE   H8S 1029   2.314   4.795   6.159
   45PMPE   C29 1030   2.229   4.668   6.278
   45PMPE   H9R 1031   2.121   4.655   6.307
   45PMPE  C217 1032   2.337   4.595   6.358
   45PMPE  H17R 1033   2.278   4.628   6.436
   45PMPE  H17S 1034   2.422   4.651   6.383
   45PMPE  C210 1035   2.296   4.557   6.217
   45PMPE  H10R 1036   2.238   4.473   6.190
   45PMPE  C211 1037   2.417   4.560   6.142
   45PMPE  H11R 1038   2.489   4.621   6.199
   45PMPE  H11S 1039   2.396   4.601   6.045
   45PMPE  C212 1040   2.462   4.416   6.133
   45PMPE  H12R 1041   2.474   4.365   6.229
   45PMPE  H12S 1042   2.563   4.435   6.104
   45PMPE  C213 1043   2.390   4.324   6.035
   45PMPE  H13R 1044   2.280   4.339   6.034
   45PMPE  H13S 1045   2.414   4.219   6.046
   45PMPE  C214 1046   2.441   4.353   5.902
   45PMPE  H14R 1047   2.550   4.341   5.893
   45PMPE  H14S 1048   2.397   4.456   5.893
   45PMPE  C215 1049   2.403   4.272   5.783
   45PMPE  H15R 1050   2.306   4.277   5.829
   45PMPE  H15S 1051   2.426   4.168   5.792
   45PMPE  C216 1052   2.413   4.320   5.634
   45PMPE  H16R 1053   2.512   4.311   5.596
   45PMPE  H16S 1054   2.337   4.273   5.567
   45PMPE  H16T 1055   2.390   4.429   5.620
   45PMPE   C33 1056   2.744   4.622   6.582
   45PMPE   H3X 1057   2.667   4.558   6.629
   45PMPE   H3Y 1058   2.839   4.574   6.603
   45PMPE   C34 1059   2.714   4.626   6.434
   45PMPE   H4X 1060   2.619   4.679   6.416
   45PMPE   H4Y 1061   2.713   4.521   6.398
   45PMPE   C35 1062   2.805   4.700   6.342
   45PMPE   H5X 1063   2.897   4.639   6.332
   45PMPE   H5Y 1064   2.828   4.804   6.373
   45PMPE   C36 1065   2.764   4.692   6.206
   45PMPE   H6X 1066   2.662   4.730   6.197
   45PMPE   H6Y 1067   2.772   4.582   6.189
   45PMPE   C37 1068   2.856   4.773   6.119
   45PMPE   H7X 1069   2.957   4.742   6.127
   45PMPE   H7Y 1070   2.853   4.861   6.179
   45PMPE   C38 1071   2.818   4.817   5.978
   45PMPE   H8X 1072   2.845   4.739   5.911
   45PMPE   H8Y 1073   2.873   4.883   5.909
   45PMPE   C39 1074   2.691   4.892   5.995
   45PMPE   H9X 1075   2.717   4.966   6.076
   45PMPE   H9Y 1076   2.610   4.828   6.036
   45PMPE  C310 1077   2.651   4.968   5.870
   45PMPE  H10X 1078   2.736   5.026   5.829
   45PMPE  H10Y 1079   2.574   5.034   5.912
   45PMPE  C311 1080   2.603   4.886   5.750
   45PMPE  H11X 1081   2.578   4.797   5.794
   45PMPE  H11Y 1082   2.677   4.855   5.674
   45PMPE  C312 1083   2.461   4.897   5.700
   45PMPE  H12X 1084   2.428   4.803   5.650
   45PMPE  H12Y 1085   2.460   4.975   5.629
   45PMPE  C313 1086   2.360   4.919   5.809
   45PMPE  H13X 1087   2.385   4.962   5.910
   45PMPE  H13Y 1088   2.402   4.824   5.843
   45PMPE  C314 1089   2.210   4.955   5.752
   45PMPE  H14X 1090   2.185   5.059   5.764
   45PMPE  H14Y 1091   2.115   4.984   5.806
   45PMPE  C315 1092   2.132   4.876   5.652
   45PMPE  H15X 1093   2.191   4.891   5.562
   45PMPE  H15Y 1094   2.023   4.910   5.655
   45PMPE  C316 1095   2.125   4.738   5.634
   45PMPE  H16X 1096   2.069   4.708   5.726
   45PMPE  H16Y 1097   2.225   4.691   5.622
   45PMPE  H16Z 1098   2.064   4.694   5.552
   46PMPE     N 1099   3.750   2.218   7.632
   46PMPE   HN1 1100   3.820   2.169   7.692
   46PMPE   HN2 1101   3.662   2.234   7.684
   46PMPE   HN3 1102   3.727   2.161   7.548
   46PMPE   C12 1103   3.807   2.348   7.580
   46PMPE  H12A 1104   3.883   2.322   7.504
   46PMPE  H12B 1105   3.856   2.400   7.664
   46PMPE   C11 1106   3.701   2.442   7.521
   46PMPE  H11A 1107   3.752   2.531   7.477
   46PMPE  H11B 1108   3.634   2.483   7.598
   46PMPE     P 1109   3.645   2.390   7.271
   46PMPE   O13 1110   3.731   2.509   7.249
   46PMPE   O14 1111   3.514   2.382   7.207
   46PMPE   O11 1112   3.731   2.261   7.244
   46PMPE   O12 1113   3.622   2.371   7.428
   46PMPE    C1 1114   3.677   2.130   7.256
   46PMPE    HA 1115   3.565   2.129   7.257
   46PMPE    HB 1116   3.711   2.089   7.352
   46PMPE    C2 1117   3.728   2.035   7.143
   46PMPE    HS 1118   3.706   1.930   7.172
   46PMPE   O21 1119   3.869   2.048   7.124
   46PMPE   C21 1120   3.950   2.011   7.218
   46PMPE   O22 1121   3.921   1.962   7.327
   46PMPE   C22 1122   4.091   2.036   7.168
   46PMPE   H2R 1123   4.129   1.941   7.126
   46PMPE   H2S 1124   4.152   2.071   7.253
   46PMPE    C3 1125   3.658   2.056   7.003
   46PMPE    HX 1126   3.548   2.070   7.017
   46PMPE    HY 1127   3.670   1.960   6.949
   46PMPE   O31 1128   3.720   2.158   6.922
   46PMPE   C31 1129   3.656   2.273   6.907
   46PMPE   O32 1130   3.542   2.297   6.940
   46PMPE   C32 1131   3.744   2.366   6.824
   46PMPE   H2X 1132   3.695   2.384   6.726
   46PMPE   H2Y 1133   3.841   2.316   6.806
   46PMPE   C23 1134   4.111   2.136   7.053
   46PMPE   H3R 1135   4.219   2.163   7.051
   46PMPE   H3S 1136   4.053   2.227   7.079
   46PMPE   C24 1137   4.074   2.078   6.916
   46PMPE   H4R 1138   3.964   2.066   6.914
   46PMPE   H4S 1139   4.119   1.977   6.900
   46PMPE   C25 1140   4.116   2.176   6.806
   46PMPE   H5R 1141   4.226   2.191   6.813
   46PMPE   H5S 1142   4.066   2.272   6.829
   46PMPE   C26 1143   4.074   2.140   6.664
   46PMPE   H6R 1144   4.140   2.068   6.622
   46PMPE   H6S 1145   4.094   2.225   6.596
   46PMPE   C27 1146   3.934   2.080   6.647
   46PMPE   H7R 1147   3.867   2.166   6.661
   46PMPE   H7S 1148   3.915   2.002   6.724
   46PMPE   C28 1149   3.906   2.018   6.508
   46PMPE   H8R 1150   3.955   2.082   6.432
   46PMPE   H8S 1151   3.798   2.023   6.487
   46PMPE   C29 1152   3.946   1.869   6.499
   46PMPE   H9R 1153   3.953   1.810   6.592
   46PMPE  C217 1154   4.082   1.853   6.436
   46PMPE  H17R 1155   4.140   1.773   6.478
   46PMPE  H17S 1156   4.112   1.954   6.415
   46PMPE  C210 1157   3.964   1.804   6.364
   46PMPE  H10R 1158   3.952   1.695   6.362
   46PMPE  C211 1159   3.941   1.882   6.237
   46PMPE  H11R 1160   4.002   1.836   6.156
   46PMPE  H11S 1161   3.972   1.989   6.242
   46PMPE  C212 1162   3.791   1.867   6.212
   46PMPE  H12R 1163   3.727   1.898   6.297
   46PMPE  H12S 1164   3.777   1.757   6.202
   46PMPE  C213 1165   3.745   1.943   6.089
   46PMPE  H13R 1166   3.749   2.052   6.106
   46PMPE  H13S 1167   3.638   1.923   6.065
   46PMPE  C214 1168   3.833   1.902   5.974
   46PMPE  H14R 1169   3.814   1.795   5.949
   46PMPE  H14S 1170   3.942   1.912   5.988
   46PMPE  C215 1171   3.817   1.991   5.858
   46PMPE  H15R 1172   3.873   2.085   5.855
   46PMPE  H15S 1173   3.714   2.032   5.870
   46PMPE  C216 1174   3.859   1.907   5.738
   46PMPE  H16R 1175   3.959   1.864   5.734
   46PMPE  H16S 1176   3.790   1.818   5.734
   46PMPE  H16T 1177   3.846   1.963   5.644
   46PMPE   C33 1178   3.775   2.500   6.893
   46PMPE   H3X 1179   3.855   2.481   6.967
   46PMPE   H3Y 1180   3.686   2.539   6.948
   46PMPE   C34 1181   3.818   2.607   6.793
   46PMPE   H4X 1182   3.860   2.694   6.848
   46PMPE   H4Y 1183   3.727   2.641   6.739
   46PMPE   C35 1184   3.916   2.561   6.683
   46PMPE   H5X 1185   3.873   2.475   6.628
   46PMPE   H5Y 1186   4.011   2.524   6.729
   46PMPE   C36 1187   3.934   2.676   6.582
   46PMPE   H6X 1188   4.024   2.737   6.587
   46PMPE   H6Y 1189   3.858   2.753   6.606
   46PMPE   C37 1190   3.935   2.636   6.436
   46PMPE   H7X 1191   3.974   2.723   6.377
   46PMPE   H7Y 1192   3.829   2.621   6.407
   46PMPE   C38 1193   4.021   2.513   6.399
   46PMPE   H8X 1194   3.984   2.421   6.448
   46PMPE   H8Y 1195   4.127   2.527   6.431
   46PMPE   C39 1196   4.015   2.497   6.248
   46PMPE   H9X 1197   4.101   2.445   6.202
   46PMPE   H9Y 1198   4.032   2.602   6.221
   46PMPE  C310 1199   3.879   2.435   6.204
   46PMPE  H10X 1200   3.794   2.489   6.252
   46PMPE  H10Y 1201   3.875   2.329   6.235
   46PMPE  C311 1202   3.851   2.429   6.054
   46PMPE  H11X 1203   3.916   2.506   6.024
   46PMPE  H11Y 1204   3.747   2.455   6.025
   46PMPE  C312 1205   3.932   2.333   5.967
   46PMPE  H12X 1206   3.912   2.235   6.011
   46PMPE  H12Y 1207   4.040   2.363   5.975
   46PMPE  C313 1208   3.891   2.327   5.818
   46PMPE  H13X 1209   3.779   2.336   5.808
   46PMPE  H13Y 1210   3.942   2.247   5.763
   46PMPE  C314 1211   3.947   2.434   5.734
   46PMPE  H14X 1212   4.051   2.464   5.752
   46PMPE  H14Y 1213   3.890   2.491   5.807
   46PMPE  C315 1214   3.905   2.447   5.585
   46PMPE  H15X 1215   3.797   2.434   5.570
   46PMPE  H15Y 1216   3.974   2.377   5.537
   46PMPE  C316 1217   3.930   2.575   5.510
   46PMPE  H16X 1218   3.849   2.645   5.516
   46PMPE  H16Y 1219   3.960   2.606   5.409
   46PMPE  H16Z 1220   4.025   2.590   5.562
   47PMPE     N 1221   4.568   2.582   7.586
   47PMPE   HN1 1222   4.546   2.551   7.682
   47PMPE   HN2 1223   4.542   2.682   7.572
   47PMPE   HN3 1224   4.517   2.520   7.519
   47PMPE   C12 1225   4.715   2.565   7.559
   47PMPE  H12A 1226   4.731   2.457   7.541
   47PMPE  H12B 1227   4.774   2.597   7.647
   47PMPE   C11 1228   4.759   2.645   7.437
   47PMPE  H11A 1229   4.735   2.753   7.450
   47PMPE  H11B 1230   4.706   2.607   7.346
   47PMPE     P 1231   4.980   2.680   7.303
   47PMPE   O13 1232   4.944   2.598   7.186
   47PMPE   O14 1233   5.124   2.696   7.340
   47PMPE   O11 1234   4.916   2.823   7.287
   47PMPE   O12 1235   4.899   2.627   7.429
   47PMPE    C1 1236   4.942   2.929   7.379
   47PMPE    HA 1237   5.047   2.929   7.416
   47PMPE    HB 1238   4.877   2.918   7.469
   47PMPE    C2 1239   4.917   3.068   7.313
   47PMPE    HS 1240   4.912   3.144   7.393
   47PMPE   O21 1241   4.799   3.075   7.231
   47PMPE   C21 1242   4.682   3.070   7.291
   47PMPE   O22 1243   4.659   3.064   7.410
   47PMPE   C22 1244   4.577   3.084   7.182
   47PMPE   H2R 1245   4.592   3.179   7.126
   47PMPE   H2S 1246   4.474   3.086   7.224
   47PMPE    C3 1247   5.038   3.108   7.223
   47PMPE    HX 1248   5.119   3.136   7.293
   47PMPE    HY 1249   5.011   3.198   7.163
   47PMPE   O31 1250   5.086   2.999   7.141
   47PMPE   C31 1251   5.032   2.987   7.020
   47PMPE   O32 1252   4.964   3.071   6.964
   47PMPE   C32 1253   5.089   2.859   6.956
   47PMPE   H2X 1254   5.118   2.788   7.036
   47PMPE   H2Y 1255   5.181   2.887   6.901
   47PMPE   C23 1256   4.600   2.964   7.090
   47PMPE   H3R 1257   4.585   2.869   7.150
   47PMPE   H3S 1258   4.697   2.966   7.039
   47PMPE   C24 1259   4.502   2.953   6.979
   47PMPE   H4R 1260   4.417   2.939   7.045
   47PMPE   H4S 1261   4.524   2.858   6.926
   47PMPE   C25 1262   4.485   3.076   6.889
   47PMPE   H5R 1263   4.490   3.167   6.949
   47PMPE   H5S 1264   4.383   3.074   6.845
   47PMPE   C26 1265   4.587   3.089   6.775
   47PMPE   H6R 1266   4.688   3.053   6.803
   47PMPE   H6S 1267   4.585   3.188   6.726
   47PMPE   C27 1268   4.545   2.998   6.665
   47PMPE   H7R 1269   4.434   3.012   6.664
   47PMPE   H7S 1270   4.576   2.904   6.717
   47PMPE   C28 1271   4.610   3.020   6.528
   47PMPE   H8R 1272   4.716   2.990   6.530
   47PMPE   H8S 1273   4.575   3.115   6.481
   47PMPE   C29 1274   4.570   2.928   6.427
   47PMPE   H9R 1275   4.459   2.938   6.419
   47PMPE  C217 1276   4.674   2.814   6.387
   47PMPE  H17R 1277   4.656   2.708   6.400
   47PMPE  H17S 1278   4.779   2.808   6.378
   47PMPE  C210 1279   4.607   2.912   6.288
   47PMPE  H10R 1280   4.509   2.910   6.232
   47PMPE  C211 1281   4.717   2.973   6.223
   47PMPE  H11R 1282   4.784   2.893   6.185
   47PMPE  H11S 1283   4.760   3.025   6.310
   47PMPE  C212 1284   4.658   3.063   6.117
   47PMPE  H12R 1285   4.743   3.126   6.086
   47PMPE  H12S 1286   4.571   3.115   6.164
   47PMPE  C213 1287   4.592   3.008   5.992
   47PMPE  H13R 1288   4.491   3.026   5.958
   47PMPE  H13S 1289   4.592   2.907   6.014
   47PMPE  C214 1290   4.676   3.004   5.874
   47PMPE  H14R 1291   4.759   2.941   5.922
   47PMPE  H14S 1292   4.719   3.106   5.873
   47PMPE  C215 1293   4.623   2.957   5.729
   47PMPE  H15R 1294   4.584   2.860   5.707
   47PMPE  H15S 1295   4.696   2.927   5.653
   47PMPE  C216 1296   4.534   3.046   5.650
   47PMPE  H16R 1297   4.460   3.084   5.722
   47PMPE  H16S 1298   4.598   3.124   5.604
   47PMPE  H16T 1299   4.486   2.983   5.572
   47PMPE   C33 1300   4.993   2.785   6.859
   47PMPE   H3X 1301   4.890   2.778   6.903
   47PMPE   H3Y 1302   5.033   2.682   6.851
   47PMPE   C34 1303   4.993   2.846   6.718
   47PMPE   H4X 1304   5.100   2.848   6.686
   47PMPE   H4Y 1305   4.958   2.952   6.723
   47PMPE   C35 1306   4.903   2.777   6.614
   47PMPE   H5X 1307   4.924   2.828   6.516
   47PMPE   H5Y 1308   4.797   2.798   6.638
   47PMPE   C36 1309   4.910   2.624   6.602
   47PMPE   H6X 1310   4.843   2.592   6.518
   47PMPE   H6Y 1311   4.869   2.574   6.691
   47PMPE   C37 1312   5.048   2.577   6.577
   47PMPE   H7X 1313   5.059   2.465   6.575
   47PMPE   H7Y 1314   5.123   2.612   6.652
   47PMPE   C38 1315   5.090   2.639   6.445
   47PMPE   H8X 1316   5.169   2.565   6.447
   47PMPE   H8Y 1317   5.130   2.742   6.453
   47PMPE   C39 1318   5.003   2.627   6.320
   47PMPE   H9X 1319   4.894   2.629   6.336
   47PMPE   H9Y 1320   5.002   2.524   6.294
   47PMPE  C310 1321   5.042   2.708   6.195
   47PMPE  H10X 1322   5.114   2.678   6.121
   47PMPE  H10Y 1323   5.097   2.800   6.212
   47PMPE  C311 1324   4.943   2.688   6.089
   47PMPE  H11X 1325   4.976   2.734   5.992
   47PMPE  H11Y 1326   4.849   2.721   6.132
   47PMPE  C312 1327   4.919   2.553   6.040
   47PMPE  H12X 1328   4.896   2.471   6.115
   47PMPE  H12Y 1329   4.995   2.505   5.982
   47PMPE  C313 1330   4.860   2.572   5.911
   47PMPE  H13X 1331   4.815   2.484   5.942
   47PMPE  H13Y 1332   4.887   2.565   5.805
   47PMPE  C314 1333   4.742   2.623   5.908
   47PMPE  H14X 1334   4.773   2.725   5.882
   47PMPE  H14Y 1335   4.721   2.654   6.006
   47PMPE  C315 1336   4.643   2.515   5.847
   47PMPE  H15X 1337   4.546   2.520   5.891
   47PMPE  H15Y 1338   4.572   2.440   5.889
   47PMPE  C316 1339   4.657   2.490   5.709
   47PMPE  H16X 1340   4.701   2.588   5.684
   47PMPE  H16Y 1341   4.568   2.486   5.649
   47PMPE  H16Z 1342   4.705   2.398   5.679
   48PMPE     N 1343   5.859   4.492   7.434
   48PMPE   HN1 1344   5.828   4.528   7.340
   48PMPE   HN2 1345   5.955   4.529   7.447
   48PMPE   HN3 1346   5.856   4.389   7.438
   48PMPE   C12 1347   5.772   4.550   7.542
   48PMPE  H12A 1348   5.798   4.497   7.636
   48PMPE  H12B 1349   5.666   4.533   7.514
   48PMPE   C11 1350   5.799   4.699   7.553
   48PMPE  H11A 1351   5.908   4.717   7.573
   48PMPE  H11B 1352   5.743   4.738   7.641
   48PMPE     P 1353   5.844   4.802   7.313
   48PMPE   O13 1354   5.811   4.698   7.213
   48PMPE   O14 1355   5.984   4.805   7.362
   48PMPE   O11 1356   5.791   4.941   7.271
   48PMPE   O12 1357   5.753   4.765   7.436
   48PMPE    C1 1358   5.813   5.052   7.355
   48PMPE    HA 1359   5.858   5.030   7.456
   48PMPE    HB 1360   5.709   5.084   7.379
   48PMPE    C2 1361   5.897   5.160   7.281
   48PMPE    HS 1362   5.883   5.264   7.309
   48PMPE   O21 1363   5.884   5.156   7.140
   48PMPE   C21 1364   5.767   5.183   7.087
   48PMPE   O22 1365   5.660   5.207   7.138
   48PMPE   C22 1366   5.784   5.196   6.941
   48PMPE   H2R 1367   5.882   5.241   6.920
   48PMPE   H2S 1368   5.701   5.261   6.905
   48PMPE    C3 1369   6.046   5.156   7.317
   48PMPE    HX 1370   6.064   5.161   7.426
   48PMPE    HY 1371   6.086   5.248   7.271
   48PMPE   O31 1372   6.115   5.046   7.268
   48PMPE   C31 1373   6.157   5.062   7.145
   48PMPE   O32 1374   6.151   5.164   7.077
   48PMPE   C32 1375   6.228   4.935   7.117
   48PMPE   H2X 1376   6.175   4.855   7.174
   48PMPE   H2Y 1377   6.331   4.951   7.156
   48PMPE   C23 1378   5.771   5.055   6.890
   48PMPE   H3R 1379   5.831   4.982   6.950
   48PMPE   H3S 1380   5.804   5.049   6.784
   48PMPE   C24 1381   5.628   5.013   6.898
   48PMPE   H4R 1382   5.566   5.075   6.830
   48PMPE   H4S 1383   5.582   5.018   6.999
   48PMPE   C25 1384   5.630   4.871   6.854
   48PMPE   H5R 1385   5.691   4.804   6.920
   48PMPE   H5S 1386   5.662   4.860   6.748
   48PMPE   C26 1387   5.496   4.816   6.862
   48PMPE   H6R 1388   5.450   4.807   6.964
   48PMPE   H6S 1389   5.527   4.720   6.819
   48PMPE   C27 1390   5.394   4.886   6.779
   48PMPE   H7R 1391   5.373   4.978   6.838
   48PMPE   H7S 1392   5.303   4.825   6.788
   48PMPE   C28 1393   5.416   4.907   6.630
   48PMPE   H8R 1394   5.517   4.947   6.605
   48PMPE   H8S 1395   5.365   4.982   6.572
   48PMPE   C29 1396   5.334   4.808   6.548
   48PMPE   H9R 1397   5.268   4.729   6.593
   48PMPE  C217 1398   5.444   4.741   6.518
   48PMPE  H17R 1399   5.415   4.645   6.550
   48PMPE  H17S 1400   5.546   4.783   6.534
   48PMPE  C210 1401   5.358   4.769   6.403
   48PMPE  H10R 1402   5.349   4.667   6.361
   48PMPE  C211 1403   5.445   4.846   6.327
   48PMPE  H11R 1404   5.537   4.866   6.385
   48PMPE  H11S 1405   5.447   4.941   6.387
   48PMPE  C212 1406   5.465   4.817   6.146
   48PMPE  H12R 1407   5.391   4.744   6.139
   48PMPE  H12S 1408   5.535   4.751   6.094
   48PMPE  C213 1409   5.530   4.916   6.030
   48PMPE  H13R 1410   5.635   4.957   6.039
   48PMPE  H13S 1411   5.478   5.012   6.035
   48PMPE  C214 1412   5.564   4.891   5.895
   48PMPE  H14R 1413   5.464   4.849   5.884
   48PMPE  H14S 1414   5.642   4.817   5.892
   48PMPE  C215 1415   5.606   5.030   5.848
   48PMPE  H15R 1416   5.709   5.067   5.864
   48PMPE  H15S 1417   5.551   5.100   5.908
   48PMPE  C216 1418   5.542   5.054   5.721
   48PMPE  H16R 1419   5.582   4.977   5.655
   48PMPE  H16S 1420   5.438   5.044   5.745
   48PMPE  H16T 1421   5.542   5.155   5.687
   48PMPE   C33 1422   6.232   4.904   6.968
   48PMPE   H3X 1423   6.305   4.821   6.960
   48PMPE   H3Y 1424   6.271   4.993   6.914
   48PMPE   C34 1425   6.094   4.867   6.911
   48PMPE   H4X 1426   6.041   4.963   6.894
   48PMPE   H4Y 1427   6.034   4.809   6.984
   48PMPE   C35 1428   6.101   4.797   6.774
   48PMPE   H5X 1429   6.165   4.706   6.776
   48PMPE   H5Y 1430   6.148   4.871   6.705
   48PMPE   C36 1431   5.965   4.767   6.712
   48PMPE   H6X 1432   5.889   4.835   6.757
   48PMPE   H6Y 1433   5.930   4.663   6.729
   48PMPE   C37 1434   5.965   4.799   6.562
   48PMPE   H7X 1435   5.997   4.903   6.542
   48PMPE   H7Y 1436   5.858   4.798   6.543
   48PMPE   C38 1437   6.046   4.699   6.479
   48PMPE   H8X 1438   6.019   4.597   6.515
   48PMPE   H8Y 1439   6.154   4.715   6.495
   48PMPE   C39 1440   6.023   4.701   6.329
   48PMPE   H9X 1441   6.015   4.800   6.280
   48PMPE   H9Y 1442   5.931   4.660   6.321
   48PMPE  C310 1443   6.084   4.591   6.244
   48PMPE  H10X 1444   6.077   4.489   6.289
   48PMPE  H10Y 1445   6.186   4.620   6.244
   48PMPE  C311 1446   6.038   4.593   6.099
   48PMPE  H11X 1447   6.074   4.498   6.054
   48PMPE  H11Y 1448   6.089   4.672   6.042
   48PMPE  C312 1449   5.888   4.614   6.078
   48PMPE  H12X 1450   5.851   4.710   6.113
   48PMPE  H12Y 1451   5.833   4.535   6.134
   48PMPE  C313 1452   5.849   4.612   5.933
   48PMPE  H13X 1453   5.746   4.569   5.924
   48PMPE  H13Y 1454   5.929   4.549   5.892
   48PMPE  C314 1455   5.873   4.739   5.853
   48PMPE  H14X 1456   5.983   4.739   5.829
   48PMPE  H14Y 1457   5.839   4.821   5.914
   48PMPE  C315 1458   5.803   4.754   5.722
   48PMPE  H15X 1459   5.820   4.843   5.660
   48PMPE  H15Y 1460   5.694   4.720   5.718
   48PMPE  C316 1461   5.879   4.664   5.649
   48PMPE  H16X 1462   5.985   4.643   5.638
   48PMPE  H16Y 1463   5.895   4.684   5.544
   48PMPE  H16Z 1464   5.808   4.578   5.671
   49PMPE     N 1465   5.458   6.324   7.409
   49PMPE   HN1 1466   5.497   6.366   7.496
   49PMPE   HN2 1467   5.473   6.221   7.408
   49PMPE   HN3 1468   5.501   6.369   7.324
   49PMPE   C12 1469   5.313   6.351   7.413
   49PMPE  H12A 1470   5.280   6.384   7.313
   49PMPE  H12B 1471   5.297   6.432   7.485
   49PMPE   C11 1472   5.240   6.228   7.460
   49PMPE  H11A 1473   5.281   6.190   7.556
   49PMPE  H11B 1474   5.248   6.146   7.385
   49PMPE     P 1475   4.994   6.246   7.375
   49PMPE   O13 1476   4.864   6.270   7.441
   49PMPE   O14 1477   5.022   6.120   7.305
   49PMPE   O11 1478   5.027   6.360   7.273
   49PMPE   O12 1479   5.107   6.270   7.483
   49PMPE    C1 1480   5.004   6.495   7.305
   49PMPE    HA 1481   5.071   6.530   7.385
   49PMPE    HB 1482   4.901   6.512   7.344
   49PMPE    C2 1483   5.023   6.573   7.175
   49PMPE    HS 1484   5.000   6.680   7.195
   49PMPE   O21 1485   4.960   6.524   7.060
   49PMPE   C21 1486   4.841   6.494   7.081
   49PMPE   O22 1487   4.772   6.543   7.171
   49PMPE   C22 1488   4.802   6.433   6.948
   49PMPE   H2R 1489   4.719   6.492   6.911
   49PMPE   H2S 1490   4.781   6.326   6.963
   49PMPE    C3 1491   5.159   6.579   7.125
   49PMPE    HX 1492   5.212   6.599   7.222
   49PMPE    HY 1493   5.159   6.660   7.053
   49PMPE   O31 1494   5.194   6.467   7.042
   49PMPE   C31 1495   5.321   6.446   7.056
   49PMPE   O32 1496   5.386   6.494   7.146
   49PMPE   C32 1497   5.374   6.337   6.971
   49PMPE   H2X 1498   5.468   6.299   7.017
   49PMPE   H2Y 1499   5.403   6.376   6.871
   49PMPE   C23 1500   4.883   6.455   6.821
   49PMPE   H3R 1501   4.989   6.445   6.839
   49PMPE   H3S 1502   4.878   6.562   6.803
   49PMPE   C24 1503   4.830   6.366   6.705
   49PMPE   H4R 1504   4.735   6.390   6.656
   49PMPE   H4S 1505   4.806   6.270   6.755
   49PMPE   C25 1506   4.930   6.351   6.587
   49PMPE   H5R 1507   4.900   6.258   6.536
   49PMPE   H5S 1508   5.029   6.338   6.635
   49PMPE   C26 1509   4.940   6.455   6.472
   49PMPE   H6R 1510   5.028   6.448   6.408
   49PMPE   H6S 1511   4.968   6.552   6.508
   49PMPE   C27 1512   4.812   6.474   6.392
   49PMPE   H7R 1513   4.813   6.572   6.338
   49PMPE   H7S 1514   4.734   6.478   6.468
   49PMPE   C28 1515   4.790   6.368   6.289
   49PMPE   H8R 1516   4.770   6.269   6.335
   49PMPE   H8S 1517   4.886   6.370   6.233
   49PMPE   C29 1518   4.685   6.412   6.190
   49PMPE   H9R 1519   4.675   6.521   6.175
   49PMPE  C217 1520   4.555   6.333   6.189
   49PMPE  H17R 1521   4.474   6.388   6.145
   49PMPE  H17S 1522   4.552   6.278   6.282
   49PMPE  C210 1523   4.641   6.318   6.081
   49PMPE  H10R 1524   4.595   6.362   5.992
   49PMPE  C211 1525   4.648   6.171   6.092
   49PMPE  H11R 1526   4.566   6.124   6.034
   49PMPE  H11S 1527   4.643   6.129   6.195
   49PMPE  C212 1528   4.784   6.168   6.035
   49PMPE  H12R 1529   4.821   6.065   6.046
   49PMPE  H12S 1530   4.850   6.237   6.091
   49PMPE  C213 1531   4.783   6.216   5.891
   49PMPE  H13R 1532   4.889   6.211   5.859
   49PMPE  H13S 1533   4.751   6.320   5.868
   49PMPE  C214 1534   4.700   6.119   5.812
   49PMPE  H14R 1535   4.694   6.022   5.866
   49PMPE  H14S 1536   4.749   6.116   5.715
   49PMPE  C215 1537   4.561   6.136   5.764
   49PMPE  H15R 1538   4.562   6.218   5.689
   49PMPE  H15S 1539   4.495   6.164   5.849
   49PMPE  C216 1540   4.530   6.000   5.700
   49PMPE  H16R 1541   4.504   5.921   5.775
   49PMPE  H16S 1542   4.445   6.006   5.634
   49PMPE  H16T 1543   4.606   5.964   5.629
   49PMPE   C33 1544   5.264   6.232   6.977
   49PMPE   H3X 1545   5.180   6.252   7.049
   49PMPE   H3Y 1546   5.308   6.139   7.017
   49PMPE   C34 1547   5.200   6.214   6.841
   49PMPE   H4X 1548   5.173   6.313   6.798
   49PMPE   H4Y 1549   5.105   6.158   6.856
   49PMPE   C35 1550   5.298   6.135   6.756
   49PMPE   H5X 1551   5.309   6.036   6.805
   49PMPE   H5Y 1552   5.397   6.185   6.761
   49PMPE   C36 1553   5.256   6.113   6.610
   49PMPE   H6X 1554   5.146   6.095   6.609
   49PMPE   H6Y 1555   5.309   6.022   6.574
   49PMPE   C37 1556   5.282   6.234   6.518
   49PMPE   H7X 1557   5.389   6.260   6.532
   49PMPE   H7Y 1558   5.222   6.317   6.560
   49PMPE   C38 1559   5.245   6.227   6.367
   49PMPE   H8X 1560   5.315   6.157   6.315
   49PMPE   H8Y 1561   5.259   6.326   6.318
   49PMPE   C39 1562   5.099   6.190   6.333
   49PMPE   H9X 1563   5.034   6.277   6.327
   49PMPE   H9Y 1564   5.062   6.124   6.415
   49PMPE  C310 1565   5.078   6.121   6.199
   49PMPE  H10X 1566   4.983   6.064   6.187
   49PMPE  H10Y 1567   5.148   6.047   6.216
   49PMPE  C311 1568   5.150   6.156   6.071
   49PMPE  H11X 1569   5.110   6.253   6.046
   49PMPE  H11Y 1570   5.109   6.083   5.997
   49PMPE  C312 1571   5.306   6.162   6.064
   49PMPE  H12X 1572   5.356   6.075   6.113
   49PMPE  H12Y 1573   5.365   6.239   6.111
   49PMPE  C313 1574   5.337   6.185   5.916
   49PMPE  H13X 1575   5.272   6.105   5.882
   49PMPE  H13Y 1576   5.441   6.172   5.879
   49PMPE  C314 1577   5.243   6.271   5.835
   49PMPE  H14X 1578   5.244   6.361   5.896
   49PMPE  H14Y 1579   5.139   6.227   5.832
   49PMPE  C315 1580   5.281   6.290   5.691
   49PMPE  H15X 1581   5.250   6.202   5.632
   49PMPE  H15Y 1582   5.391   6.305   5.676
   49PMPE  C316 1583   5.203   6.405   5.633
   49PMPE  H16X 1584   5.237   6.415   5.528
   49PMPE  H16Y 1585   5.222   6.499   5.688
   49PMPE  H16Z 1586   5.094   6.385   5.637
   50PMPE     N 1587   2.506   3.054   7.670
   50PMPE   HN1 1588   2.555   3.108   7.596
   50PMPE   HN2 1589   2.468   3.119   7.742
   50PMPE   HN3 1590   2.573   2.988   7.715
   50PMPE   C12 1591   2.397   2.979   7.598
   50PMPE  H12A 1592   2.341   2.920   7.673
   50PMPE  H12B 1593   2.447   2.912   7.525
   50PMPE   C11 1594   2.308   3.076   7.520
   50PMPE  H11A 1595   2.281   3.163   7.584
   50PMPE  H11B 1596   2.213   3.024   7.492
   50PMPE     P 1597   2.358   3.051   7.263
   50PMPE   O13 1598   2.221   3.084   7.216
   50PMPE   O14 1599   2.391   2.910   7.288
   50PMPE   O11 1600   2.471   3.116   7.173
   50PMPE   O12 1601   2.379   3.123   7.406
   50PMPE    C1 1602   2.447   3.236   7.098
   50PMPE    HA 1603   2.535   3.303   7.107
   50PMPE    HB 1604   2.362   3.292   7.142
   50PMPE    C2 1605   2.418   3.205   6.947
   50PMPE    HS 1606   2.350   3.117   6.944
   50PMPE   O21 1607   2.541   3.185   6.871
   50PMPE   C21 1608   2.551   3.067   6.807
   50PMPE   O22 1609   2.469   2.977   6.808
   50PMPE   C22 1610   2.679   3.067   6.722
   50PMPE   H2R 1611   2.725   2.966   6.723
   50PMPE   H2S 1612   2.752   3.137   6.765
   50PMPE    C3 1613   2.338   3.320   6.881
   50PMPE    HX 1614   2.400   3.412   6.885
   50PMPE    HY 1615   2.244   3.342   6.937
   50PMPE   O31 1616   2.315   3.285   6.744
   50PMPE   C31 1617   2.194   3.238   6.711
   50PMPE   O32 1618   2.095   3.241   6.781
   50PMPE   C32 1619   2.203   3.200   6.563
   50PMPE   H2X 1620   2.278   3.119   6.553
   50PMPE   H2Y 1621   2.242   3.290   6.510
   50PMPE   C23 1622   2.646   3.118   6.579
   50PMPE   H3R 1623   2.743   3.141   6.528
   50PMPE   H3S 1624   2.591   3.213   6.588
   50PMPE   C24 1625   2.561   3.019   6.497
   50PMPE   H4R 1626   2.454   3.037   6.506
   50PMPE   H4S 1627   2.587   2.916   6.531
   50PMPE   C25 1628   2.584   3.032   6.348
   50PMPE   H5R 1629   2.695   3.031   6.365
   50PMPE   H5S 1630   2.579   3.129   6.297
   50PMPE   C26 1631   2.515   2.917   6.259
   50PMPE   H6R 1632   2.407   2.905   6.266
   50PMPE   H6S 1633   2.545   2.825   6.315
   50PMPE   C27 1634   2.549   2.915   6.102
   50PMPE   H7R 1635   2.640   2.860   6.082
   50PMPE   H7S 1636   2.585   3.013   6.065
   50PMPE   C28 1637   2.491   2.816   5.999
   50PMPE   H8R 1638   2.526   2.831   5.897
   50PMPE   H8S 1639   2.387   2.848   5.992
   50PMPE   C29 1640   2.514   2.669   6.048
   50PMPE   H9R 1641   2.472   2.671   6.146
   50PMPE  C217 1642   2.633   2.566   6.047
   50PMPE  H17R 1643   2.654   2.510   6.132
   50PMPE  H17S 1644   2.717   2.552   5.984
   50PMPE  C210 1645   2.512   2.543   5.960
   50PMPE  H10R 1646   2.480   2.443   5.986
   50PMPE  C211 1647   2.523   2.541   5.813
   50PMPE  H11R 1648   2.562   2.443   5.781
   50PMPE  H11S 1649   2.579   2.616   5.771
   50PMPE  C212 1650   2.409   2.603   5.741
   50PMPE  H12R 1651   2.382   2.688   5.809
   50PMPE  H12S 1652   2.340   2.518   5.740
   50PMPE  C213 1653   2.427   2.661   5.599
   50PMPE  H13R 1654   2.430   2.574   5.529
   50PMPE  H13S 1655   2.518   2.721   5.581
   50PMPE  C214 1656   2.313   2.750   5.555
   50PMPE  H14R 1657   2.225   2.686   5.560
   50PMPE  H14S 1658   2.334   2.770   5.448
   50PMPE  C215 1659   2.289   2.878   5.636
   50PMPE  H15R 1660   2.275   2.858   5.745
   50PMPE  H15S 1661   2.202   2.932   5.596
   50PMPE  C216 1662   2.404   2.972   5.631
   50PMPE  H16R 1663   2.392   3.062   5.694
   50PMPE  H16S 1664   2.483   2.913   5.679
   50PMPE  H16T 1665   2.438   3.001   5.529
   50PMPE   C33 1666   2.072   3.162   6.490
   50PMPE   H3X 1667   1.992   3.232   6.522
   50PMPE   H3Y 1668   2.040   3.058   6.515
   50PMPE   C34 1669   2.087   3.170   6.336
   50PMPE   H4X 1670   2.077   3.276   6.305
   50PMPE   H4Y 1671   2.003   3.112   6.291
   50PMPE   C35 1672   2.219   3.111   6.281
   50PMPE   H5X 1673   2.223   3.004   6.312
   50PMPE   H5Y 1674   2.309   3.161   6.323
   50PMPE   C36 1675   2.234   3.117   6.129
   50PMPE   H6X 1676   2.154   3.055   6.082
   50PMPE   H6Y 1677   2.332   3.073   6.101
   50PMPE   C37 1678   2.228   3.256   6.067
   50PMPE   H7X 1679   2.281   3.329   6.132
   50PMPE   H7Y 1680   2.122   3.287   6.064
   50PMPE   C38 1681   2.289   3.259   5.925
   50PMPE   H8X 1682   2.254   3.350   5.873
   50PMPE   H8Y 1683   2.244   3.177   5.866
   50PMPE   C39 1684   2.444   3.253   5.921
   50PMPE   H9X 1685   2.473   3.213   5.822
   50PMPE   H9Y 1686   2.487   3.192   6.003
   50PMPE  C310 1687   2.510   3.389   5.933
   50PMPE  H10X 1688   2.508   3.418   6.038
   50PMPE  H10Y 1689   2.440   3.445   5.866
   50PMPE  C311 1690   2.648   3.424   5.881
   50PMPE  H11X 1691   2.721   3.350   5.916
   50PMPE  H11Y 1692   2.684   3.526   5.910
   50PMPE  C312 1693   2.629   3.433   5.734
   50PMPE  H12X 1694   2.582   3.529   5.714
   50PMPE  H12Y 1695   2.559   3.357   5.694
   50PMPE  C313 1696   2.753   3.439   5.656
   50PMPE  H13X 1697   2.816   3.355   5.685
   50PMPE  H13Y 1698   2.818   3.526   5.681
   50PMPE  C314 1699   2.694   3.441   5.515
   50PMPE  H14X 1700   2.651   3.539   5.489
   50PMPE  H14Y 1701   2.618   3.361   5.500
   50PMPE  C315 1702   2.794   3.405   5.419
   50PMPE  H15X 1703   2.808   3.301   5.452
   50PMPE  H15Y 1704   2.883   3.470   5.431
   50PMPE  C316 1705   2.765   3.400   5.274
   50PMPE  H16X 1706   2.758   3.472   5.195
   50PMPE  H16Y 1707   2.697   3.322   5.244
   50PMPE  H16Z 1708   2.873   3.394   5.241
   51PMPE     N 1709   2.582   5.701   7.605
   51PMPE   HN1 1710   2.684   5.682   7.614
   51PMPE   HN2 1711   2.527   5.658   7.683
   51PMPE   HN3 1712   2.548   5.664   7.514
   51PMPE   C12 1713   2.564   5.851   7.603
   51PMPE  H12A 1714   2.610   5.891   7.695
   51PMPE  H12B 1715   2.456   5.876   7.605
   51PMPE   C11 1716   2.632   5.913   7.480
   51PMPE  H11A 1717   2.737   5.879   7.470
   51PMPE  H11B 1718   2.635   6.024   7.494
   51PMPE     P 1719   2.456   5.961   7.285
   51PMPE   O13 1720   2.368   6.023   7.386
   51PMPE   O14 1721   2.397   5.872   7.184
   51PMPE   O11 1722   2.538   6.076   7.216
   51PMPE   O12 1723   2.564   5.874   7.362
   51PMPE    C1 1724   2.670   6.060   7.165
   51PMPE    HA 1725   2.730   5.987   7.225
   51PMPE    HB 1726   2.721   6.158   7.175
   51PMPE    C2 1727   2.677   6.019   7.015
   51PMPE    HS 1728   2.771   6.065   6.972
   51PMPE   O21 1729   2.555   6.052   6.947
   51PMPE   C21 1730   2.557   6.155   6.872
   51PMPE   O22 1731   2.651   6.228   6.852
   51PMPE   C22 1732   2.431   6.174   6.790
   51PMPE   H2R 1733   2.361   6.242   6.844
   51PMPE   H2S 1734   2.377   6.080   6.782
   51PMPE    C3 1735   2.693   5.867   6.998
   51PMPE    HX 1736   2.604   5.819   7.042
   51PMPE    HY 1737   2.782   5.827   7.053
   51PMPE   O31 1738   2.689   5.834   6.859
   51PMPE   C31 1739   2.801   5.800   6.810
   51PMPE   O32 1740   2.909   5.793   6.866
   51PMPE   C32 1741   2.767   5.751   6.671
   51PMPE   H2X 1742   2.660   5.733   6.651
   51PMPE   H2Y 1743   2.777   5.647   6.678
   51PMPE   C23 1744   2.485   6.222   6.652
   51PMPE   H3R 1745   2.566   6.161   6.612
   51PMPE   H3S 1746   2.558   6.306   6.660
   51PMPE   C24 1747   2.373   6.257   6.549
   51PMPE   H4R 1748   2.412   6.314   6.461
   51PMPE   H4S 1749   2.289   6.319   6.585
   51PMPE   C25 1750   2.294   6.148   6.509
   51PMPE   H5R 1751   2.201   6.194   6.475
   51PMPE   H5S 1752   2.266   6.092   6.599
   51PMPE   C26 1753   2.385   6.090   6.404
   51PMPE   H6R 1754   2.486   6.070   6.448
   51PMPE   H6S 1755   2.399   6.159   6.318
   51PMPE   C27 1756   2.324   5.963   6.366
   51PMPE   H7R 1757   2.215   5.975   6.388
   51PMPE   H7S 1758   2.370   5.887   6.433
   51PMPE   C28 1759   2.339   5.922   6.222
   51PMPE   H8R 1760   2.432   5.865   6.212
   51PMPE   H8S 1761   2.359   6.001   6.149
   51PMPE   C29 1762   2.210   5.858   6.179
   51PMPE   H9R 1763   2.118   5.847   6.239
   51PMPE  C217 1764   2.242   5.724   6.139
   51PMPE  H17R 1765   2.165   5.650   6.155
   51PMPE  H17S 1766   2.349   5.714   6.128
   51PMPE  C210 1767   2.193   5.812   6.039
   51PMPE  H10R 1768   2.091   5.791   6.022
   51PMPE  C211 1769   2.296   5.809   5.931
   51PMPE  H11R 1770   2.284   5.717   5.868
   51PMPE  H11S 1771   2.399   5.812   5.971
   51PMPE  C212 1772   2.269   5.940   5.864
   51PMPE  H12R 1773   2.232   6.007   5.944
   51PMPE  H12S 1774   2.185   5.924   5.793
   51PMPE  C213 1775   2.398   6.000   5.807
   51PMPE  H13R 1776   2.439   5.927   5.735
   51PMPE  H13S 1777   2.467   6.020   5.891
   51PMPE  C214 1778   2.395   6.126   5.721
   51PMPE  H14R 1779   2.347   6.086   5.629
   51PMPE  H14S 1780   2.491   6.175   5.702
   51PMPE  C215 1781   2.311   6.234   5.777
   51PMPE  H15R 1782   2.335   6.257   5.878
   51PMPE  H15S 1783   2.229   6.159   5.776
   51PMPE  C216 1784   2.286   6.373   5.709
   51PMPE  H16R 1785   2.356   6.430   5.726
   51PMPE  H16S 1786   2.276   6.390   5.605
   51PMPE  H16T 1787   2.230   6.456   5.753
   51PMPE   C33 1788   2.848   5.810   6.557
   51PMPE   H3X 1789   2.875   5.740   6.474
   51PMPE   H3Y 1790   2.948   5.849   6.585
   51PMPE   C34 1791   2.747   5.908   6.508
   51PMPE   H4X 1792   2.713   5.966   6.596
   51PMPE   H4Y 1793   2.661   5.858   6.458
   51PMPE   C35 1794   2.809   5.993   6.409
   51PMPE   H5X 1795   2.903   6.025   6.463
   51PMPE   H5Y 1796   2.755   6.089   6.395
   51PMPE   C36 1797   2.824   5.913   6.274
   51PMPE   H6X 1798   2.869   5.815   6.287
   51PMPE   H6Y 1799   2.903   5.932   6.201
   51PMPE   C37 1800   2.716   5.956   6.179
   51PMPE   H7X 1801   2.708   6.067   6.175
   51PMPE   H7Y 1802   2.629   5.914   6.230
   51PMPE   C38 1803   2.724   5.906   6.035
   51PMPE   H8X 1804   2.803   5.943   5.971
   51PMPE   H8Y 1805   2.631   5.930   5.984
   51PMPE   C39 1806   2.762   5.763   6.027
   51PMPE   H9X 1807   2.697   5.708   6.097
   51PMPE   H9Y 1808   2.870   5.761   6.062
   51PMPE  C310 1809   2.761   5.700   5.887
   51PMPE  H10X 1810   2.809   5.600   5.882
   51PMPE  H10Y 1811   2.816   5.765   5.817
   51PMPE  C311 1812   2.623   5.662   5.839
   51PMPE  H11X 1813   2.569   5.757   5.821
   51PMPE  H11Y 1814   2.569   5.607   5.918
   51PMPE  C312 1815   2.631   5.581   5.709
   51PMPE  H12X 1816   2.691   5.487   5.716
   51PMPE  H12Y 1817   2.678   5.646   5.633
   51PMPE  C313 1818   2.492   5.547   5.663
   51PMPE  H13X 1819   2.429   5.543   5.754
   51PMPE  H13Y 1820   2.482   5.454   5.602
   51PMPE  C314 1821   2.428   5.662   5.593
   51PMPE  H14X 1822   2.415   5.746   5.663
   51PMPE  H14Y 1823   2.333   5.618   5.569
   51PMPE  C315 1824   2.478   5.696   5.456
   51PMPE  H15X 1825   2.431   5.622   5.387
   51PMPE  H15Y 1826   2.588   5.684   5.449
   51PMPE  C316 1827   2.436   5.837   5.420
   51PMPE  H16X 1828   2.459   5.857   5.314
   51PMPE  H16Y 1829   2.489   5.911   5.484
   51PMPE  H16Z 1830   2.327   5.852   5.438
   52PMPE     N 1831   4.424   6.763   7.471
   52PMPE   HN1 1832   4.404   6.864   7.452
   52PMPE   HN2 1833   4.354   6.701   7.425
   52PMPE   HN3 1834   4.424   6.747   7.574
   52PMPE   C12 1835   4.563   6.736   7.424
   52PMPE  H12A 1836   4.570   6.742   7.314
   52PMPE  H12B 1837   4.590   6.635   7.454
   52PMPE   C11 1838   4.656   6.834   7.495
   52PMPE  H11A 1839   4.763   6.805   7.478
   52PMPE  H11B 1840   4.638   6.824   7.605
   52PMPE     P 1841   4.713   7.047   7.348
   52PMPE   O13 1842   4.845   7.085   7.404
   52PMPE   O14 1843   4.629   7.152   7.288
   52PMPE   O11 1844   4.730   6.934   7.242
   52PMPE   O12 1845   4.626   6.968   7.457
   52PMPE    C1 1846   4.857   6.908   7.188
   52PMPE    HA 1847   4.888   6.817   7.244
   52PMPE    HB 1848   4.936   6.983   7.206
   52PMPE    C2 1849   4.839   6.885   7.036
   52PMPE    HS 1850   4.940   6.875   6.988
   52PMPE   O21 1851   4.760   6.970   6.961
   52PMPE   C21 1852   4.787   7.091   6.971
   52PMPE   O22 1853   4.893   7.141   7.008
   52PMPE   C22 1854   4.667   7.154   6.907
   52PMPE   H2R 1855   4.645   7.253   6.950
   52PMPE   H2S 1856   4.578   7.089   6.925
   52PMPE    C3 1857   4.770   6.759   7.018
   52PMPE    HX 1858   4.679   6.740   7.080
   52PMPE    HY 1859   4.859   6.717   7.062
   52PMPE   O31 1860   4.762   6.719   6.884
   52PMPE   C31 1861   4.646   6.714   6.826
   52PMPE   O32 1862   4.538   6.734   6.878
   52PMPE   C32 1863   4.660   6.666   6.682
   52PMPE   H2X 1864   4.575   6.700   6.623
   52PMPE   H2Y 1865   4.661   6.556   6.679
   52PMPE   C23 1866   4.689   7.165   6.758
   52PMPE   H3R 1867   4.742   7.081   6.709
   52PMPE   H3S 1868   4.752   7.252   6.745
   52PMPE   C24 1869   4.556   7.185   6.693
   52PMPE   H4R 1870   4.520   7.290   6.710
   52PMPE   H4S 1871   4.480   7.111   6.723
   52PMPE   C25 1872   4.562   7.153   6.550
   52PMPE   H5R 1873   4.599   7.061   6.505
   52PMPE   H5S 1874   4.661   7.194   6.530
   52PMPE   C26 1875   4.429   7.208   6.501
   52PMPE   H6R 1876   4.427   7.228   6.401
   52PMPE   H6S 1877   4.395   7.308   6.531
   52PMPE   C27 1878   4.338   7.104   6.452
   52PMPE   H7R 1879   4.245   7.147   6.406
   52PMPE   H7S 1880   4.322   7.051   6.547
   52PMPE   C28 1881   4.406   7.022   6.345
   52PMPE   H8R 1882   4.503   6.973   6.371
   52PMPE   H8S 1883   4.408   7.037   6.234
   52PMPE   C29 1884   4.299   6.948   6.328
   52PMPE   H9R 1885   4.206   6.978   6.271
   52PMPE  C217 1886   4.314   6.839   6.427
   52PMPE  H17R 1887   4.224   6.779   6.441
   52PMPE  H17S 1888   4.407   6.809   6.471
   52PMPE  C210 1889   4.358   6.835   6.275
   52PMPE  H10R 1890   4.265   6.803   6.251
   52PMPE  C211 1891   4.500   6.785   6.213
   52PMPE  H11R 1892   4.502   6.678   6.189
   52PMPE  H11S 1893   4.583   6.789   6.284
   52PMPE  C212 1894   4.539   6.819   6.067
   52PMPE  H12R 1895   4.577   6.917   6.085
   52PMPE  H12S 1896   4.447   6.818   6.003
   52PMPE  C213 1897   4.650   6.733   5.995
   52PMPE  H13R 1898   4.635   6.626   5.974
   52PMPE  H13S 1899   4.740   6.737   6.060
   52PMPE  C214 1900   4.686   6.789   5.857
   52PMPE  H14R 1901   4.780   6.749   5.817
   52PMPE  H14S 1902   4.711   6.878   5.910
   52PMPE  C215 1903   4.588   6.820   5.740
   52PMPE  H15R 1904   4.524   6.742   5.727
   52PMPE  H15S 1905   4.634   6.796   5.642
   52PMPE  C216 1906   4.472   6.924   5.741
   52PMPE  H16R 1907   4.492   6.995   5.661
   52PMPE  H16S 1908   4.373   6.883   5.712
   52PMPE  H16T 1909   4.459   6.971   5.840
   52PMPE   C33 1910   4.787   6.683   6.606
   52PMPE   H3X 1911   4.772   6.686   6.498
   52PMPE   H3Y 1912   4.844   6.595   6.629
   52PMPE   C34 1913   4.877   6.788   6.646
   52PMPE   H4X 1914   4.922   6.768   6.747
   52PMPE   H4Y 1915   4.813   6.878   6.646
   52PMPE   C35 1916   4.988   6.790   6.546
   52PMPE   H5X 1917   4.956   6.807   6.441
   52PMPE   H5Y 1918   5.058   6.703   6.550
   52PMPE   C36 1919   5.069   6.897   6.600
   52PMPE   H6X 1920   5.172   6.867   6.570
   52PMPE   H6Y 1921   5.066   6.890   6.710
   52PMPE   C37 1922   5.011   7.035   6.575
   52PMPE   H7X 1923   5.084   7.103   6.621
   52PMPE   H7Y 1924   4.924   7.060   6.635
   52PMPE   C38 1925   4.988   7.064   6.425
   52PMPE   H8X 1926   4.927   6.996   6.365
   52PMPE   H8Y 1927   5.080   7.045   6.384
   52PMPE   C39 1928   4.994   7.209   6.384
   52PMPE   H9X 1929   5.083   7.274   6.382
   52PMPE   H9Y 1930   4.956   7.224   6.482
   52PMPE  C310 1931   4.911   7.245   6.265
   52PMPE  H10X 1932   4.823   7.182   6.296
   52PMPE  H10Y 1933   4.934   7.192   6.172
   52PMPE  C311 1934   4.909   7.406   6.239
   52PMPE  H11X 1935   4.995   7.441   6.184
   52PMPE  H11Y 1936   4.890   7.469   6.325
   52PMPE  C312 1937   4.794   7.485   6.172
   52PMPE  H12X 1938   4.742   7.582   6.175
   52PMPE  H12Y 1939   4.719   7.490   6.245
   52PMPE  C313 1940   4.728   7.403   6.087
   52PMPE  H13X 1941   4.622   7.406   6.098
   52PMPE  H13Y 1942   4.745   7.301   6.127
   52PMPE  C314 1943   4.726   7.484   5.964
   52PMPE  H14X 1944   4.829   7.518   5.957
   52PMPE  H14Y 1945   4.653   7.569   5.973
   52PMPE  C315 1946   4.677   7.430   5.843
   52PMPE  H15X 1947   4.732   7.469   5.758
   52PMPE  H15Y 1948   4.566   7.410   5.827
   52PMPE  C316 1949   4.742   7.357   5.755
   52PMPE  H16X 1950   4.660   7.296   5.704
   52PMPE  H16Y 1951   4.811   7.273   5.772
   52PMPE  H16Z 1952   4.835   7.301   5.774
   53PMPE     N 1953   5.596   2.712   7.333
   53PMPE   HN1 1954   5.556   2.617   7.352
   53PMPE   HN2 1955   5.521   2.785   7.326
   53PMPE   HN3 1956   5.649   2.709   7.244
   53PMPE   C12 1957   5.686   2.749   7.447
   53PMPE  H12A 1958   5.622   2.807   7.516
   53PMPE  H12B 1959   5.766   2.818   7.413
   53PMPE   C11 1960   5.749   2.628   7.520
   53PMPE  H11A 1961   5.674   2.571   7.578
   53PMPE  H11B 1962   5.816   2.672   7.598
   53PMPE     P 1963   5.782   2.411   7.373
   53PMPE   O13 1964   5.643   2.395   7.419
   53PMPE   O14 1965   5.880   2.305   7.397
   53PMPE   O11 1966   5.785   2.460   7.224
   53PMPE   O12 1967   5.831   2.545   7.439
   53PMPE    C1 1968   5.898   2.534   7.178
   53PMPE    HA 1969   5.994   2.483   7.204
   53PMPE    HB 1970   5.901   2.634   7.225
   53PMPE    C2 1971   5.887   2.544   7.025
   53PMPE    HS 1972   5.968   2.609   6.984
   53PMPE   O21 1973   5.757   2.588   6.977
   53PMPE   C21 1974   5.735   2.714   6.989
   53PMPE   O22 1975   5.804   2.791   7.054
   53PMPE   C22 1976   5.603   2.751   6.918
   53PMPE   H2R 1977   5.566   2.838   6.976
   53PMPE   H2S 1978   5.529   2.670   6.932
   53PMPE    C3 1979   5.915   2.404   6.969
   53PMPE    HX 1980   5.904   2.329   7.050
   53PMPE    HY 1981   6.020   2.403   6.932
   53PMPE   O31 1982   5.818   2.376   6.869
   53PMPE   C31 1983   5.867   2.353   6.754
   53PMPE   O32 1984   5.978   2.307   6.731
   53PMPE   C32 1985   5.754   2.376   6.653
   53PMPE   H2X 1986   5.709   2.470   6.637
   53PMPE   H2Y 1987   5.674   2.332   6.713
   53PMPE   C23 1988   5.601   2.788   6.766
   53PMPE   H3R 1989   5.690   2.829   6.722
   53PMPE   H3S 1990   5.534   2.874   6.748
   53PMPE   C24 1991   5.562   2.673   6.677
   53PMPE   H4R 1992   5.452   2.661   6.682
   53PMPE   H4S 1993   5.606   2.586   6.727
   53PMPE   C25 1994   5.610   2.687   6.532
   53PMPE   H5R 1995   5.589   2.590   6.483
   53PMPE   H5S 1996   5.719   2.702   6.520
   53PMPE   C26 1997   5.537   2.799   6.458
   53PMPE   H6R 1998   5.552   2.898   6.504
   53PMPE   H6S 1999   5.429   2.785   6.479
   53PMPE   C27 2000   5.579   2.813   6.309
   53PMPE   H7R 2001   5.688   2.809   6.297
   53PMPE   H7S 2002   5.533   2.907   6.270
   53PMPE   C28 2003   5.537   2.708   6.214
   53PMPE   H8R 2004   5.582   2.608   6.236
   53PMPE   H8S 2005   5.549   2.730   6.106
   53PMPE   C29 2006   5.400   2.703   6.248
   53PMPE   H9R 2007   5.324   2.787   6.248
   53PMPE  C217 2008   5.382   2.588   6.347
   53PMPE  H17R 2009   5.327   2.640   6.420
   53PMPE  H17S 2010   5.446   2.506   6.366
   53PMPE  C210 2011   5.350   2.585   6.202
   53PMPE  H10R 2012   5.248   2.605   6.207
   53PMPE  C211 2013   5.426   2.488   6.105
   53PMPE  H11R 2014   5.386   2.386   6.099
   53PMPE  H11S 2015   5.514   2.442   6.148
   53PMPE  C212 2016   5.419   2.543   5.962
   53PMPE  H12R 2017   5.463   2.642   5.959
   53PMPE  H12S 2018   5.322   2.580   5.928
   53PMPE  C213 2019   5.465   2.440   5.862
   53PMPE  H13R 2020   5.422   2.338   5.866
   53PMPE  H13S 2021   5.566   2.417   5.884
   53PMPE  C214 2022   5.456   2.484   5.720
   53PMPE  H14R 2023   5.527   2.566   5.708
   53PMPE  H14S 2024   5.360   2.525   5.688
   53PMPE  C215 2025   5.484   2.366   5.631
   53PMPE  H15R 2026   5.471   2.424   5.540
   53PMPE  H15S 2027   5.406   2.285   5.635
   53PMPE  C216 2028   5.624   2.309   5.634
   53PMPE  H16R 2029   5.658   2.289   5.533
   53PMPE  H16S 2030   5.694   2.379   5.683
   53PMPE  H16T 2031   5.630   2.212   5.684
   53PMPE   C33 2032   5.785   2.327   6.509
   53PMPE   H3X 2033   5.814   2.222   6.490
   53PMPE   H3Y 2034   5.874   2.281   6.541
   53PMPE   C34 2035   5.680   2.331   6.395
   53PMPE   H4X 2036   5.627   2.422   6.395
   53PMPE   H4Y 2037   5.587   2.289   6.417
   53PMPE   C35 2038   5.693   2.261   6.260
   53PMPE   H5X 2039   5.603   2.256   6.196
   53PMPE   H5Y 2040   5.747   2.167   6.247
   53PMPE   C36 2041   5.789   2.334   6.196
   53PMPE   H6X 2042   5.878   2.293   6.244
   53PMPE   H6Y 2043   5.799   2.439   6.222
   53PMPE   C37 2044   5.783   2.293   6.054
   53PMPE   H7X 2045   5.773   2.192   6.019
   53PMPE   H7Y 2046   5.866   2.225   6.077
   53PMPE   C38 2047   5.803   2.419   5.961
   53PMPE   H8X 2048   5.707   2.462   5.977
   53PMPE   H8Y 2049   5.806   2.394   5.854
   53PMPE   C39 2050   5.910   2.531   5.993
   53PMPE   H9X 2051   6.016   2.513   5.964
   53PMPE   H9Y 2052   5.915   2.562   6.097
   53PMPE  C310 2053   5.940   2.638   5.910
   53PMPE  H10X 2054   6.025   2.704   5.940
   53PMPE  H10Y 2055   5.848   2.685   5.944
   53PMPE  C311 2056   5.974   2.562   5.784
   53PMPE  H11X 2057   5.941   2.465   5.744
   53PMPE  H11Y 2058   6.085   2.553   5.779
   53PMPE  C312 2059   5.907   2.652   5.712
   53PMPE  H12X 2060   5.971   2.623   5.623
   53PMPE  H12Y 2061   5.937   2.753   5.731
   53PMPE  C313 2062   5.750   2.670   5.722
   53PMPE  H13X 2063   5.718   2.694   5.826
   53PMPE  H13Y 2064   5.712   2.583   5.669
   53PMPE  C314 2065   5.672   2.803   5.688
   53PMPE  H14X 2066   5.761   2.847   5.708
   53PMPE  H14Y 2067   5.701   2.884   5.619
   53PMPE  C315 2068   5.557   2.811   5.591
   53PMPE  H15X 2069   5.495   2.831   5.680
   53PMPE  H15Y 2070   5.535   2.720   5.533
   53PMPE  C316 2071   5.533   2.922   5.492
   53PMPE  H16X 2072   5.534   3.027   5.523
   53PMPE  H16Y 2073   5.427   2.908   5.482
   53PMPE  H16Z 2074   5.573   2.915   5.388
   54PMPE     N 2075   6.451   4.822   7.514
   54PMPE   HN1 2076   6.380   4.829   7.590
   54PMPE   HN2 2077   6.545   4.798   7.551
   54PMPE   HN3 2078   6.460   4.916   7.470
   54PMPE   C12 2079   6.417   4.715   7.413
   54PMPE  H12A 2080   6.331   4.750   7.352
   54PMPE  H12B 2081   6.392   4.623   7.470
   54PMPE   C11 2082   6.539   4.687   7.324
   54PMPE  H11A 2083   6.554   4.775   7.257
   54PMPE  H11B 2084   6.518   4.598   7.260
   54PMPE     P 2085   6.756   4.550   7.382
   54PMPE   O13 2086   6.678   4.425   7.394
   54PMPE   O14 2087   6.873   4.571   7.469
   54PMPE   O11 2088   6.793   4.573   7.229
   54PMPE   O12 2089   6.653   4.671   7.408
   54PMPE    C1 2090   6.856   4.689   7.177
   54PMPE    HA 2091   6.962   4.692   7.208
   54PMPE    HB 2092   6.809   4.780   7.222
   54PMPE    C2 2093   6.835   4.709   7.019
   54PMPE    HS 2094   6.727   4.701   7.002
   54PMPE   O21 2095   6.899   4.630   6.917
   54PMPE   C21 2096   6.843   4.519   6.868
   54PMPE   O22 2097   6.733   4.478   6.892
   54PMPE   C22 2098   6.943   4.444   6.785
   54PMPE   H2R 2099   6.921   4.343   6.750
   54PMPE   H2S 2100   7.034   4.427   6.837
   54PMPE    C3 2101   6.888   4.849   6.987
   54PMPE    HX 2102   6.992   4.850   7.025
   54PMPE    HY 2103   6.826   4.922   7.041
   54PMPE   O31 2104   6.899   4.869   6.844
   54PMPE   C31 2105   6.779   4.879   6.795
   54PMPE   O32 2106   6.680   4.911   6.857
   54PMPE   C32 2107   6.778   4.836   6.650
   54PMPE   H2X 2108   6.817   4.733   6.640
   54PMPE   H2Y 2109   6.842   4.905   6.591
   54PMPE   C23 2110   7.034   4.524   6.710
   54PMPE   H3R 2111   7.095   4.605   6.752
   54PMPE   H3S 2112   6.961   4.591   6.671
   54PMPE   C24 2113   7.123   4.421   6.648
   54PMPE   H4R 2114   7.086   4.337   6.588
   54PMPE   H4S 2115   7.223   4.389   6.696
   54PMPE   C25 2116   7.156   4.516   6.556
   54PMPE   H5R 2117   7.251   4.466   6.523
   54PMPE   H5S 2118   7.257   4.534   6.570
   54PMPE   C26 2119   7.049   4.632   6.476
   54PMPE   H6R 2120   6.968   4.683   6.521
   54PMPE   H6S 2121   7.014   4.529   6.462
   54PMPE   C27 2122   7.082   4.758   6.357
   54PMPE   H7R 2123   7.166   4.743   6.292
   54PMPE   H7S 2124   7.105   4.850   6.410
   54PMPE   C28 2125   7.087   4.798   6.201
   54PMPE   H8R 2126   7.132   4.743   6.113
   54PMPE   H8S 2127   7.149   4.892   6.184
   54PMPE   C29 2128   6.945   4.802   6.218
   54PMPE   H9R 2129   6.907   4.857   6.308
   54PMPE  C217 2130   6.865   4.672   6.200
   54PMPE  H17R 2131   6.778   4.667   6.262
   54PMPE  H17S 2132   6.899   4.585   6.148
   54PMPE  C210 2133   6.859   4.790   6.104
   54PMPE  H10R 2134   6.777   4.861   6.119
   54PMPE  C211 2135   6.927   4.770   5.971
   54PMPE  H11R 2136   6.845   4.740   5.903
   54PMPE  H11S 2137   7.000   4.686   5.972
   54PMPE  C212 2138   6.992   4.902   5.925
   54PMPE  H12R 2139   7.078   4.933   5.987
   54PMPE  H12S 2140   6.916   4.983   5.932
   54PMPE  C213 2141   7.044   4.891   5.782
   54PMPE  H13R 2142   6.974   4.825   5.728
   54PMPE  H13S 2143   7.144   4.843   5.787
   54PMPE  C214 2144   7.051   5.029   5.714
   54PMPE  H14R 2145   7.076   5.104   5.791
   54PMPE  H14S 2146   6.950   5.053   5.673
   54PMPE  C215 2147   7.158   5.048   5.606
   54PMPE  H15R 2148   7.260   5.050   5.640
   54PMPE  H15S 2149   7.137   5.137   5.544
   54PMPE  C216 2150   7.170   4.938   5.516
   54PMPE  H16R 2151   7.235   4.936   5.427
   54PMPE  H16S 2152   7.183   4.840   5.568
   54PMPE  H16T 2153   7.065   4.951   5.478
   54PMPE   C33 2154   6.632   4.838   6.603
   54PMPE   H3X 2155   6.583   4.932   6.640
   54PMPE   H3Y 2156   6.578   4.753   6.650
   54PMPE   C34 2157   6.616   4.837   6.453
   54PMPE   H4X 2158   6.663   4.748   6.407
   54PMPE   H4Y 2159   6.664   4.928   6.409
   54PMPE   C35 2160   6.468   4.845   6.420
   54PMPE   H5X 2161   6.435   4.938   6.471
   54PMPE   H5Y 2162   6.407   4.763   6.462
   54PMPE   C36 2163   6.445   4.859   6.270
   54PMPE   H6X 2164   6.530   4.918   6.228
   54PMPE   H6Y 2165   6.349   4.913   6.255
   54PMPE   C37 2166   6.432   4.729   6.192
   54PMPE   H7X 2167   6.354   4.673   6.243
   54PMPE   H7Y 2168   6.523   4.667   6.202
   54PMPE   C38 2169   6.393   4.750   6.045
   54PMPE   H8X 2170   6.463   4.823   5.999
   54PMPE   H8Y 2171   6.290   4.792   6.037
   54PMPE   C39 2172   6.396   4.618   5.968
   54PMPE   H9X 2173   6.311   4.552   5.998
   54PMPE   H9Y 2174   6.491   4.565   5.993
   54PMPE  C310 2175   6.385   4.640   5.819
   54PMPE  H10X 2176   6.400   4.749   5.803
   54PMPE  H10Y 2177   6.283   4.617   5.781
   54PMPE  C311 2178   6.485   4.559   5.737
   54PMPE  H11X 2179   6.476   4.450   5.758
   54PMPE  H11Y 2180   6.589   4.590   5.765
   54PMPE  C312 2181   6.458   4.594   5.592
   54PMPE  H12X 2182   6.359   4.557   5.559
   54PMPE  H12Y 2183   6.526   4.535   5.530
   54PMPE  C313 2184   6.464   4.752   5.581
   54PMPE  H13X 2185   6.536   4.789   5.658
   54PMPE  H13Y 2186   6.364   4.797   5.590
   54PMPE  C314 2187   6.530   4.810   5.463
   54PMPE  H14X 2188   6.508   4.784   5.359
   54PMPE  H14Y 2189   6.570   4.714   5.467
   54PMPE  C315 2190   6.589   4.953   5.449
   54PMPE  H15X 2191   6.504   5.019   5.477
   54PMPE  H15Y 2192   6.608   4.973   5.340
   54PMPE  C316 2193   6.713   4.994   5.530
   54PMPE  H16X 2194   6.730   5.103   5.520
   54PMPE  H16Y 2195   6.809   4.955   5.493
   54PMPE  H16Z 2196   6.702   4.958   5.634
   55PMPE     N 2197   6.290   2.898   7.296
   55PMPE   HN1 2198   6.294   2.908   7.192
   55PMPE   HN2 2199   6.250   2.805   7.320
   55PMPE   HN3 2200   6.227   2.973   7.332
   55PMPE   C12 2201   6.430   2.924   7.350
   55PMPE  H12A 2202   6.501   2.861   7.293
   55PMPE  H12B 2203   6.431   2.895   7.457
   55PMPE   C11 2204   6.469   3.072   7.339
   55PMPE  H11A 2205   6.451   3.105   7.234
   55PMPE  H11B 2206   6.579   3.082   7.359
   55PMPE     P 2207   6.424   3.308   7.438
   55PMPE   O13 2208   6.568   3.330   7.427
   55PMPE   O14 2209   6.348   3.373   7.546
   55PMPE   O11 2210   6.362   3.345   7.301
   55PMPE   O12 2211   6.394   3.150   7.433
   55PMPE    C1 2212   6.227   3.315   7.264
   55PMPE    HA 2213   6.155   3.384   7.315
   55PMPE    HB 2214   6.199   3.209   7.278
   55PMPE    C2 2215   6.216   3.335   7.115
   55PMPE    HS 2216   6.113   3.309   7.078
   55PMPE   O21 2217   6.313   3.253   7.050
   55PMPE   C21 2218   6.302   3.214   6.926
   55PMPE   O22 2219   6.201   3.211   6.857
   55PMPE   C22 2220   6.440   3.172   6.883
   55PMPE   H2R 2221   6.439   3.152   6.774
   55PMPE   H2S 2222   6.459   3.076   6.936
   55PMPE    C3 2223   6.250   3.484   7.095
   55PMPE    HX 2224   6.321   3.536   7.158
   55PMPE    HY 2225   6.154   3.536   7.136
   55PMPE   O31 2226   6.314   3.493   6.961
   55PMPE   C31 2227   6.211   3.491   6.889
   55PMPE   O32 2228   6.108   3.536   6.941
   55PMPE   C32 2229   6.249   3.447   6.728
   55PMPE   H2X 2230   6.349   3.423   6.705
   55PMPE   H2Y 2231   6.267   3.552   6.709
   55PMPE   C23 2232   6.543   3.280   6.927
   55PMPE   H3R 2233   6.527   3.313   7.032
   55PMPE   H3S 2234   6.527   3.370   6.863
   55PMPE   C24 2235   6.688   3.233   6.927
   55PMPE   H4R 2236   6.705   3.162   7.011
   55PMPE   H4S 2237   6.753   3.322   6.947
   55PMPE   C25 2238   6.728   3.163   6.797
   55PMPE   H5R 2239   6.680   3.063   6.791
   55PMPE   H5S 2240   6.838   3.147   6.801
   55PMPE   C26 2241   6.681   3.245   6.674
   55PMPE   H6R 2242   6.708   3.346   6.710
   55PMPE   H6S 2243   6.575   3.245   6.650
   55PMPE   C27 2244   6.745   3.200   6.543
   55PMPE   H7R 2245   6.723   3.092   6.528
   55PMPE   H7S 2246   6.847   3.209   6.582
   55PMPE   C28 2247   6.724   3.267   6.401
   55PMPE   H8R 2248   6.614   3.270   6.394
   55PMPE   H8S 2249   6.771   3.196   6.328
   55PMPE   C29 2250   6.784   3.404   6.361
   55PMPE   H9R 2251   6.891   3.411   6.351
   55PMPE  C217 2252   6.687   3.521   6.393
   55PMPE  H17R 2253   6.714   3.616   6.425
   55PMPE  H17S 2254   6.590   3.488   6.422
   55PMPE  C210 2255   6.747   3.504   6.259
   55PMPE  H10R 2256   6.836   3.567   6.230
   55PMPE  C211 2257   6.650   3.457   6.167
   55PMPE  H11R 2258   6.622   3.547   6.109
   55PMPE  H11S 2259   6.565   3.419   6.228
   55PMPE  C212 2260   6.712   3.346   6.086
   55PMPE  H12R 2261   6.791   3.288   6.139
   55PMPE  H12S 2262   6.762   3.400   6.003
   55PMPE  C213 2263   6.602   3.253   6.037
   55PMPE  H13R 2264   6.530   3.321   5.987
   55PMPE  H13S 2265   6.551   3.202   6.121
   55PMPE  C214 2266   6.651   3.154   5.934
   55PMPE  H14R 2267   6.565   3.101   5.887
   55PMPE  H14S 2268   6.721   3.080   5.978
   55PMPE  C215 2269   6.722   3.233   5.829
   55PMPE  H15R 2270   6.825   3.257   5.862
   55PMPE  H15S 2271   6.666   3.327   5.813
   55PMPE  C216 2272   6.731   3.169   5.698
   55PMPE  H16R 2273   6.640   3.132   5.648
   55PMPE  H16S 2274   6.777   3.246   5.635
   55PMPE  H16T 2275   6.804   3.088   5.707
   55PMPE   C33 2276   6.147   3.385   6.607
   55PMPE   H3X 2277   6.055   3.438   6.570
   55PMPE   H3Y 2278   6.070   3.322   6.651
   55PMPE   C34 2279   6.198   3.361   6.468
   55PMPE   H4X 2280   6.119   3.363   6.384
   55PMPE   H4Y 2281   6.260   3.274   6.465
   55PMPE   C35 2282   6.260   3.472   6.405
   55PMPE   H5X 2283   6.309   3.416   6.326
   55PMPE   H5Y 2284   6.362   3.513   6.425
   55PMPE   C36 2285   6.133   3.572   6.383
   55PMPE   H6X 2286   6.224   3.627   6.377
   55PMPE   H6Y 2287   6.146   3.674   6.360
   55PMPE   C37 2288   6.012   3.619   6.272
   55PMPE   H7X 2289   6.001   3.725   6.265
   55PMPE   H7Y 2290   5.937   3.590   6.324
   55PMPE   C38 2291   5.956   3.585   6.118
   55PMPE   H8X 2292   5.855   3.602   6.082
   55PMPE   H8Y 2293   5.941   3.479   6.139
   55PMPE   C39 2294   5.943   3.718   6.090
   55PMPE   H9X 2295   6.094   3.693   5.925
   55PMPE   H9Y 2296   6.070   3.712   5.966
   55PMPE  C310 2297   6.276   3.378   5.925
   55PMPE  H10X 2298   6.186   3.360   5.941
   55PMPE  H10Y 2299   6.238   3.319   5.960
   55PMPE  C311 2300   6.364   3.454   5.814
   55PMPE  H11X 2301   6.439   3.519   5.852
   55PMPE  H11Y 2302   6.340   3.538   5.748
   55PMPE  C312 2303   6.368   3.344   5.709
   55PMPE  H12X 2304   6.275   3.310   5.661
   55PMPE  H12Y 2305   6.392   3.239   5.745
   55PMPE  C313 2306   6.436   3.386   5.587
   55PMPE  H13X 2307   6.535   3.390   5.635
   55PMPE  H13Y 2308   6.419   3.488   5.547
   55PMPE  C314 2309   6.399   3.276   5.487
   55PMPE  H14X 2310   6.324   3.292   5.407
   55PMPE  H14Y 2311   6.351   3.193   5.539
   55PMPE  C315 2312   6.524   3.237   5.426
   55PMPE  H15X 2313   6.608   3.284   5.475
   55PMPE  H15Y 2314   6.563   3.304   5.357
   55PMPE  C316 2315   6.521   3.153   5.305
   55PMPE  H16X 2316   6.610   3.105   5.347
   55PMPE  H16Y 2317   6.546   3.190   5.205
   55PMPE  H16Z 2318   6.427   3.098   5.291
   56PMPE     N 2319   5.364   7.220   7.422
   56PMPE   HN1 2320   5.385   7.202   7.322
   56PMPE   HN2 2321   5.304   7.141   7.456
   56PMPE   HN3 2322   5.312   7.311   7.431
   56PMPE   C12 2323   5.491   7.216   7.502
   56PMPE  H12A 2324   5.465   7.250   7.604
   56PMPE  H12B 2325   5.564   7.288   7.458
   56PMPE   C11 2326   5.551   7.073   7.507
   56PMPE  H11A 2327   5.479   7.002   7.554
   56PMPE  H11B 2328   5.642   7.076   7.573
   56PMPE     P 2329   5.632   6.881   7.345
   56PMPE   O13 2330   5.654   6.806   7.472
   56PMPE   O14 2331   5.742   6.887   7.246
   56PMPE   O11 2332   5.500   6.827   7.282
   56PMPE   O12 2333   5.585   7.031   7.376
   56PMPE    C1 2334   5.419   6.903   7.195
   56PMPE    HA 2335   5.471   6.980   7.135
   56PMPE    HB 2336   5.336   6.944   7.258
   56PMPE    C2 2337   5.349   6.812   7.096
   56PMPE    HS 2338   5.319   6.733   7.163
   56PMPE   O21 2339   5.431   6.755   6.996
   56PMPE   C21 2340   5.529   6.672   7.025
   56PMPE   O22 2341   5.583   6.642   7.129
   56PMPE   C22 2342   5.566   6.606   6.900
   56PMPE   H2R 2343   5.499   6.632   6.815
   56PMPE   H2S 2344   5.572   6.496   6.908
   56PMPE    C3 2345   5.229   6.887   7.025
   56PMPE    HX 2346   5.156   6.911   7.104
   56PMPE    HY 2347   5.167   6.821   6.959
   56PMPE   O31 2348   5.267   7.009   6.957
   56PMPE   C31 2349   5.281   6.989   6.824
   56PMPE   O32 2350   5.278   6.879   6.773
   56PMPE   C32 2351   5.308   7.120   6.747
   56PMPE   H2X 2352   5.379   7.174   6.813
   56PMPE   H2Y 2353   5.218   7.185   6.741
   56PMPE   C23 2354   5.702   6.669   6.893
   56PMPE   H3R 2355   5.728   6.663   6.787
   56PMPE   H3S 2356   5.775   6.617   6.960
   56PMPE   C24 2357   5.707   6.819   6.904
   56PMPE   H4R 2358   5.815   6.839   6.897
   56PMPE   H4S 2359   5.675   6.859   7.003
   56PMPE   C25 2360   5.625   6.879   6.789
   56PMPE   H5R 2361   5.531   6.922   6.829
   56PMPE   H5S 2362   5.590   6.801   6.718
   56PMPE   C26 2363   5.708   6.975   6.705
   56PMPE   H6R 2364   5.748   7.056   6.770
   56PMPE   H6S 2365   5.639   7.022   6.631
   56PMPE   C27 2366   5.829   6.907   6.636
   56PMPE   H7R 2367   5.897   6.870   6.716
   56PMPE   H7S 2368   5.886   6.982   6.578
   56PMPE   C28 2369   5.801   6.788   6.542
   56PMPE   H8R 2370   5.784   6.698   6.604
   56PMPE   H8S 2371   5.892   6.765   6.484
   56PMPE   C29 2372   5.679   6.806   6.450
   56PMPE   H9R 2373   5.580   6.783   6.492
   56PMPE  C217 2374   5.701   6.741   6.314
   56PMPE  H17R 2375   5.612   6.690   6.277
   56PMPE  H17S 2376   5.802   6.720   6.282
   56PMPE  C210 2377   5.681   6.893   6.326
   56PMPE  H10R 2378   5.585   6.926   6.285
   56PMPE  C211 2379   5.806   6.981   6.306
   56PMPE  H11R 2380   5.897   6.917   6.311
   56PMPE  H11S 2381   5.810   7.054   6.389
   56PMPE  C212 2382   5.809   7.061   6.175
   56PMPE  H12R 2383   5.887   7.142   6.185
   56PMPE  H12S 2384   5.712   7.109   6.152
   56PMPE  C213 2385   5.852   6.978   6.055
   56PMPE  H13R 2386   5.938   6.920   6.093
   56PMPE  H13S 2387   5.890   7.046   5.974
   56PMPE  C214 2388   5.746   6.882   6.000
   56PMPE  H14R 2389   5.659   6.941   5.963
   56PMPE  H14S 2390   5.716   6.810   6.077
   56PMPE  C215 2391   5.786   6.798   5.882
   56PMPE  H15R 2392   5.711   6.722   5.849
   56PMPE  H15S 2393   5.876   6.735   5.903
   56PMPE  C216 2394   5.804   6.892   5.768
   56PMPE  H16R 2395   5.731   6.965   5.735
   56PMPE  H16S 2396   5.903   6.945   5.768
   56PMPE  H16T 2397   5.804   6.813   5.689
   56PMPE   C33 2398   5.372   7.096   6.605
   56PMPE   H3X 2399   5.423   6.997   6.602
   56PMPE   H3Y 2400   5.442   7.177   6.579
   56PMPE   C34 2401   5.281   7.104   6.483
   56PMPE   H4X 2402   5.214   7.190   6.492
   56PMPE   H4Y 2403   5.229   7.011   6.487
   56PMPE   C35 2404   5.327   7.068   6.340
   56PMPE   H5X 2405   5.386   6.975   6.354
   56PMPE   H5Y 2406   5.384   7.157   6.311
   56PMPE   C36 2407   5.224   7.037   6.225
   56PMPE   H6X 2408   5.149   7.118   6.211
   56PMPE   H6Y 2409   5.165   6.944   6.245
   56PMPE   C37 2410   5.294   7.024   6.095
   56PMPE   H7X 2411   5.257   6.935   6.040
   56PMPE   H7Y 2412   5.402   7.015   6.120
   56PMPE   C38 2413   5.278   7.145   6.008
   56PMPE   H8X 2414   5.292   7.239   6.066
   56PMPE   H8Y 2415   5.176   7.148   5.964
   56PMPE   C39 2416   5.388   7.129   5.904
   56PMPE   H9X 2417   5.354   7.053   5.831
   56PMPE   H9Y 2418   5.481   7.087   5.947
   56PMPE  C310 2419   5.431   7.259   5.844
   56PMPE  H10X 2420   5.502   7.231   5.764
   56PMPE  H10Y 2421   5.485   7.325   5.915
   56PMPE  C311 2422   5.312   7.338   5.797
   56PMPE  H11X 2423   5.333   7.432   5.744
   56PMPE  H11Y 2424   5.248   7.373   5.880
   56PMPE  C312 2425   5.226   7.256   5.706
   56PMPE  H12X 2426   5.183   7.345   5.656
   56PMPE  H12Y 2427   5.153   7.204   5.772
   56PMPE  C313 2428   5.276   7.146   5.610
   56PMPE  H13X 2429   5.191   7.081   5.589
   56PMPE  H13Y 2430   5.343   7.070   5.648
   56PMPE  C314 2431   5.344   7.193   5.486
   56PMPE  H14X 2432   5.346   7.297   5.522
   56PMPE  H14Y 2433   5.297   7.211   5.387
   56PMPE  C315 2434   5.464   7.111   5.438
   56PMPE  H15X 2435   5.496   7.151   5.339
   56PMPE  H15Y 2436   5.429   7.009   5.413
   56PMPE  C316 2437   5.587   7.118   5.526
   56PMPE  H16X 2438   5.615   7.221   5.549
   56PMPE  H16Y 2439   5.677   7.081   5.473
   56PMPE  H16Z 2440   5.571   7.079   5.627
   57PMPE     N 2441   2.329   2.045   7.518
   57PMPE   HN1 2442   2.246   2.059   7.579
   57PMPE   HN2 2443   2.347   1.942   7.514
   57PMPE   HN3 2444   2.408   2.098   7.562
   57PMPE   C12 2445   2.291   2.097   7.381
   57PMPE  H12A 2446   2.375   2.079   7.311
   57PMPE  H12B 2447   2.273   2.206   7.389
   57PMPE   C11 2448   2.166   2.027   7.328
   57PMPE  H11A 2449   2.185   1.917   7.318
   57PMPE  H11B 2450   2.145   2.065   7.225
   57PMPE     P 2451   1.936   2.142   7.393
   57PMPE   O13 2452   1.918   2.232   7.509
   57PMPE   O14 2453   1.820   2.063   7.346
   57PMPE   O11 2454   1.992   2.233   7.278
   57PMPE   O12 2455   2.059   2.047   7.420
   57PMPE    C1 2456   1.899   2.265   7.177
   57PMPE    HA 2457   1.924   2.363   7.143
   57PMPE    HB 2458   1.793   2.278   7.210
   57PMPE    C2 2459   1.922   2.176   7.058
   57PMPE    HS 2460   1.903   2.071   7.085
   57PMPE   O21 2461   2.043   2.215   6.986
   57PMPE   C21 2462   2.103   2.104   6.945
   57PMPE   O22 2463   2.065   1.991   6.973
   57PMPE   C22 2464   2.215   2.129   6.843
   57PMPE   H2R 2465   2.306   2.147   6.903
   57PMPE   H2S 2466   2.196   2.213   6.776
   57PMPE    C3 2467   1.814   2.182   6.962
   57PMPE    HX 2468   1.808   2.296   6.960
   57PMPE    HY 2469   1.713   2.152   6.997
   57PMPE   O31 2470   1.849   2.106   6.838
   57PMPE   C31 2471   1.928   2.150   6.732
   57PMPE   O32 2472   1.985   2.257   6.728
   57PMPE   C32 2473   1.910   2.062   6.601
   57PMPE   H2X 2474   1.820   1.999   6.613
   57PMPE   H2Y 2475   2.001   2.009   6.623
   57PMPE   C23 2476   2.232   1.998   6.764
   57PMPE   H3R 2477   2.143   1.958   6.715
   57PMPE   H3S 2478   2.251   1.928   6.845
   57PMPE   C24 2479   2.345   1.978   6.665
   57PMPE   H4R 2480   2.318   1.898   6.595
   57PMPE   H4S 2481   2.438   1.953   6.723
   57PMPE   C25 2482   2.370   2.091   6.574
   57PMPE   H5R 2483   2.453   2.122   6.641
   57PMPE   H5S 2484   2.288   2.165   6.563
   57PMPE   C26 2485   2.457   2.073   6.453
   57PMPE   H6R 2486   2.422   2.015   6.373
   57PMPE   H6S 2487   2.555   2.034   6.494
   57PMPE   C27 2488   2.478   2.203   6.380
   57PMPE   H7R 2489   2.588   2.195   6.371
   57PMPE   H7S 2490   2.441   2.286   6.443
   57PMPE   C28 2491   2.406   2.240   6.258
   57PMPE   H8R 2492   2.301   2.232   6.290
   57PMPE   H8S 2493   2.440   2.171   6.178
   57PMPE   C29 2494   2.441   2.383   6.222
   57PMPE   H9R 2495   2.527   2.384   6.160
   57PMPE  C217 2496   2.401   2.506   6.308
   57PMPE  H17R 2497   2.481   2.579   6.310
   57PMPE  H17S 2498   2.351   2.475   6.398
   57PMPE  C210 2499   2.332   2.473   6.180
   57PMPE  H10R 2500   2.337   2.542   6.098
   57PMPE  C211 2501   2.194   2.430   6.189
   57PMPE  H11R 2502   2.147   2.530   6.185
   57PMPE  H11S 2503   2.173   2.384   6.287
   57PMPE  C212 2504   2.169   2.343   6.064
   57PMPE  H12R 2505   2.064   2.308   6.071
   57PMPE  H12S 2506   2.235   2.254   6.069
   57PMPE  C213 2507   2.190   2.414   5.927
   57PMPE  H13R 2508   2.167   2.346   5.844
   57PMPE  H13S 2509   2.298   2.433   5.921
   57PMPE  C214 2510   2.115   2.549   5.911
   57PMPE  H14R 2511   2.153   2.619   5.989
   57PMPE  H14S 2512   2.007   2.529   5.923
   57PMPE  C215 2513   2.101   2.622   5.777
   57PMPE  H15R 2514   2.195   2.670   5.758
   57PMPE  H15S 2515   2.036   2.711   5.791
   57PMPE  C216 2516   2.053   2.541   5.657
   57PMPE  H16R 2517   2.034   2.609   5.571
   57PMPE  H16S 2518   2.130   2.467   5.626
   57PMPE  H16T 2519   1.959   2.486   5.679
   57PMPE   C33 2520   1.929   2.110   6.447
   57PMPE   H3X 2521   1.968   2.023   6.390
   57PMPE   H3Y 2522   1.996   2.198   6.442
   57PMPE   C34 2523   1.812   2.133   6.348
   57PMPE   H4X 2524   1.741   2.204   6.389
   57PMPE   H4Y 2525   1.759   2.038   6.344
   57PMPE   C35 2526   1.839   2.174   6.200
   57PMPE   H5X 2527   1.887   2.087   6.157
   57PMPE   H5Y 2528   1.895   2.268   6.192
   57PMPE   C36 2529   1.718   2.200   6.113
   57PMPE   H6X 2530   1.671   2.294   6.143
   57PMPE   H6Y 2531   1.652   2.113   6.124
   57PMPE   C37 2532   1.697   2.215   5.969
   57PMPE   H7X 2533   1.766   2.293   5.933
   57PMPE   H7Y 2534   1.591   2.246   5.944
   57PMPE   C38 2535   1.712   2.073   5.934
   57PMPE   H8X 2536   1.639   2.000   5.980
   57PMPE   H8Y 2537   1.816   2.046   5.963
   57PMPE   C39 2538   1.683   2.064   5.797
   57PMPE   H9X 2539   1.745   2.148   5.755
   57PMPE   H9Y 2540   1.577   2.091   5.776
   57PMPE  C310 2541   1.729   1.923   5.764
   57PMPE  H10X 2542   1.690   1.892   5.671
   57PMPE  H10Y 2543   1.667   1.840   5.802
   57PMPE  C311 2544   1.883   1.909   5.765
   57PMPE  H11X 2545   1.904   1.822   5.697
   57PMPE  H11Y 2546   1.910   1.881   5.866
   57PMPE  C312 2547   1.977   2.033   5.741
   57PMPE  H12X 2548   1.976   2.116   5.811
   57PMPE  H12Y 2549   1.930   2.095   5.664
   57PMPE  C313 2550   2.125   1.996   5.703
   57PMPE  H13X 2551   2.139   1.905   5.642
   57PMPE  H13Y 2552   2.182   1.975   5.795
   57PMPE  C314 2553   2.194   2.108   5.622
   57PMPE  H14X 2554   2.295   2.085   5.660
   57PMPE  H14Y 2555   2.159   2.207   5.661
   57PMPE  C315 2556   2.200   2.119   5.460
   57PMPE  H15X 2557   2.265   2.047   5.405
   57PMPE  H15Y 2558   2.234   2.211   5.495
   57PMPE  C316 2559   2.116   2.211   5.360
   57PMPE  H16X 2560   2.062   2.296   5.405
   57PMPE  H16Y 2561   2.026   2.169   5.353
   57PMPE  H16Z 2562   2.122   2.189   5.251
   58PMPE     N 2563   1.661   3.040   7.473
   58PMPE   HN1 2564   1.620   3.116   7.533
   58PMPE   HN2 2565   1.698   2.965   7.534
   58PMPE   HN3 2566   1.738   3.076   7.413
   58PMPE   C12 2567   1.550   2.982   7.389
   58PMPE  H12A 2568   1.503   3.065   7.335
   58PMPE  H12B 2569   1.477   2.936   7.458
   58PMPE   C11 2570   1.607   2.878   7.291
   58PMPE  H11A 2571   1.683   2.928   7.228
   58PMPE  H11B 2572   1.528   2.840   7.220
   58PMPE     P 2573   1.599   2.638   7.401
   58PMPE   O13 2574   1.472   2.627   7.327
   58PMPE   O14 2575   1.593   2.641   7.549
   58PMPE   O11 2576   1.702   2.531   7.352
   58PMPE   O12 2577   1.672   2.774   7.361
   58PMPE    C1 2578   1.828   2.566   7.295
   58PMPE    HA 2579   1.899   2.484   7.320
   58PMPE    HB 2580   1.874   2.658   7.338
   58PMPE    C2 2581   1.821   2.585   7.140
   58PMPE    HS 2582   1.775   2.683   7.117
   58PMPE   O21 2583   1.741   2.478   7.084
   58PMPE   C21 2584   1.630   2.504   7.018
   58PMPE   O22 2585   1.589   2.614   6.984
   58PMPE   C22 2586   1.562   2.372   6.978
   58PMPE   H2R 2587   1.455   2.375   7.000
   58PMPE   H2S 2588   1.595   2.294   7.049
   58PMPE    C3 2589   1.970   2.586   7.089
   58PMPE    HX 2590   2.035   2.504   7.126
   58PMPE    HY 2591   2.023   2.673   7.133
   58PMPE   O31 2592   1.982   2.580   6.946
   58PMPE   C31 2593   1.958   2.695   6.889
   58PMPE   O32 2594   1.914   2.795   6.944
   58PMPE   C32 2595   1.995   2.680   6.742
   58PMPE   H2X 2596   1.957   2.583   6.704
   58PMPE   H2Y 2597   2.106   2.677   6.739
   58PMPE   C23 2598   1.572   2.338   6.827
   58PMPE   H3R 2599   1.523   2.412   6.761
   58PMPE   H3S 2600   1.531   2.235   6.814
   58PMPE   C24 2601   1.705   2.356   6.757
   58PMPE   H4R 2602   1.752   2.278   6.788
   58PMPE   H4S 2603   1.784   2.421   6.796
   58PMPE   C25 2604   1.725   2.288   6.625
   58PMPE   H5R 2605   1.700   2.180   6.636
   58PMPE   H5S 2606   1.823   2.277   6.580
   58PMPE   C26 2607   1.715   2.398   6.535
   58PMPE   H6R 2608   1.763   2.477   6.600
   58PMPE   H6S 2609   1.606   2.404   6.527
   58PMPE   C27 2610   1.808   2.423   6.419
   58PMPE   H7R 2611   1.848   2.350   6.356
   58PMPE   H7S 2612   1.913   2.440   6.448
   58PMPE   C28 2613   1.722   2.491   6.317
   58PMPE   H8R 2614   1.701   2.585   6.368
   58PMPE   H8S 2615   1.618   2.455   6.314
   58PMPE   C29 2616   1.781   2.495   6.178
   58PMPE   H9R 2617   1.785   2.420   6.099
   58PMPE  C217 2618   1.920   2.546   6.171
   58PMPE  H17R 2619   1.971   2.487   6.098
   58PMPE  H17S 2620   1.959   2.564   6.269
   58PMPE  C210 2621   1.803   2.623   6.117
   58PMPE  H10R 2622   1.791   2.619   6.007
   58PMPE  C211 2623   1.783   2.742   6.204
   58PMPE  H11R 2624   1.848   2.729   6.293
   58PMPE  H11S 2625   1.679   2.749   6.242
   58PMPE  C212 2626   1.814   2.865   6.123
   58PMPE  H12R 2627   1.917   2.858   6.081
   58PMPE  H12S 2628   1.810   2.949   6.196
   58PMPE  C213 2629   1.707   2.883   6.014
   58PMPE  H13R 2630   1.658   2.981   6.026
   58PMPE  H13S 2631   1.626   2.809   6.032
   58PMPE  C214 2632   1.755   2.866   5.868
   58PMPE  H14R 2633   1.772   2.759   5.843
   58PMPE  H14S 2634   1.853   2.916   5.854
   58PMPE  C215 2635   1.651   2.928   5.773
   58PMPE  H15R 2636   1.643   3.036   5.798
   58PMPE  H15S 2637   1.551   2.884   5.795
   58PMPE  C216 2638   1.681   2.915   5.623
   58PMPE  H16R 2639   1.616   2.984   5.566
   58PMPE  H16S 2640   1.787   2.942   5.604
   58PMPE  H16T 2641   1.662   2.813   5.585
   58PMPE   C33 2642   1.944   2.797   6.656
   58PMPE   H3X 2643   2.013   2.803   6.568
   58PMPE   H3Y 2644   1.954   2.894   6.709
   58PMPE   C34 2645   1.805   2.771   6.594
   58PMPE   H4X 2646   1.812   2.670   6.548
   58PMPE   H4Y 2647   1.787   2.845   6.513
   58PMPE   C35 2648   1.683   2.770   6.687
   58PMPE   H5X 2649   1.655   2.875   6.709
   58PMPE   H5Y 2650   1.710   2.719   6.782
   58PMPE   C36 2651   1.561   2.691   6.636
   58PMPE   H6X 2652   1.482   2.683   6.713
   58PMPE   H6Y 2653   1.595   2.587   6.621
   58PMPE   C37 2654   1.502   2.738   6.504
   58PMPE   H7X 2655   1.583   2.749   6.429
   58PMPE   H7Y 2656   1.449   2.835   6.510
   58PMPE   C38 2657   1.404   2.636   6.451
   58PMPE   H8X 2658   1.300   2.656   6.485
   58PMPE   H8Y 2659   1.431   2.534   6.488
   58PMPE   C39 2660   1.403   2.648   6.301
   58PMPE   H9X 2661   1.505   2.629   6.256
   58PMPE   H9Y 2662   1.359   2.740   6.259
   58PMPE  C310 2663   1.319   2.546   6.242
   58PMPE  H10X 2664   1.212   2.522   6.259
   58PMPE  H10Y 2665   1.350   2.472   6.315
   58PMPE  C311 2666   1.366   2.544   6.097
   58PMPE  H11X 2667   1.268   2.509   6.075
   58PMPE  H11Y 2668   1.448   2.478   6.055
   58PMPE  C312 2669   1.346   2.657   6.005
   58PMPE  H12X 2670   1.418   2.731   6.042
   58PMPE  H12Y 2671   1.240   2.686   6.023
   58PMPE  C313 2672   1.378   2.620   5.861
   58PMPE  H13X 2673   1.360   2.515   5.826
   58PMPE  H13Y 2674   1.484   2.645   5.844
   58PMPE  C314 2675   1.291   2.703   5.774
   58PMPE  H14X 2676   1.287   2.808   5.810
   58PMPE  H14Y 2677   1.192   2.655   5.789
   58PMPE  C315 2678   1.334   2.697   5.629
   58PMPE  H15X 2679   1.319   2.600   5.579
   58PMPE  H15Y 2680   1.436   2.734   5.610
   58PMPE  C316 2681   1.244   2.785   5.556
   58PMPE  H16X 2682   1.144   2.738   5.557
   58PMPE  H16Y 2683   1.274   2.789   5.450
   58PMPE  H16Z 2684   1.243   2.885   5.605
   59PMPE     N 2685   3.953   0.683   7.390
   59PMPE   HN1 2686   3.941   0.584   7.361
   59PMPE   HN2 2687   4.010   0.736   7.321
   59PMPE   HN3 2688   4.003   0.692   7.481
   59PMPE   C12 2689   3.821   0.753   7.396
   59PMPE  H12A 2690   3.800   0.776   7.503
   59PMPE  H12B 2691   3.743   0.685   7.355
   59PMPE   C11 2692   3.826   0.880   7.309
   59PMPE  H11A 2693   3.730   0.935   7.319
   59PMPE  H11B 2694   3.836   0.848   7.203
   59PMPE     P 2695   3.934   1.102   7.416
   59PMPE   O13 2696   4.072   1.135   7.457
   59PMPE   O14 2697   3.832   1.093   7.522
   59PMPE   O11 2698   3.888   1.202   7.299
   59PMPE   O12 2699   3.939   0.961   7.341
   59PMPE    C1 2700   3.983   1.211   7.191
   59PMPE    HA 2701   3.986   1.113   7.136
   59PMPE    HB 2702   4.083   1.240   7.228
   59PMPE    C2 2703   3.958   1.317   7.082
   59PMPE    HS 2704   3.931   1.415   7.131
   59PMPE   O21 2705   3.854   1.258   7.003
   59PMPE   C21 2706   3.828   1.327   6.905
   59PMPE   O22 2707   3.877   1.442   6.891
   59PMPE   C22 2708   3.699   1.245   6.832
   59PMPE   H2R 2709   3.632   1.288   6.758
   59PMPE   H2S 2710   3.591   1.273   6.835
   59PMPE    C3 2711   4.084   1.337   6.994
   59PMPE    HX 2712   4.168   1.371   7.055
   59PMPE    HY 2713   4.078   1.419   6.918
   59PMPE   O31 2714   4.101   1.210   6.928
   59PMPE   C31 2715   4.176   1.218   6.822
   59PMPE   O32 2716   4.229   1.318   6.778
   59PMPE   C32 2717   4.209   1.077   6.777
   59PMPE   H2X 2718   4.130   1.008   6.813
   59PMPE   H2Y 2719   4.304   1.055   6.831
   59PMPE   C23 2720   3.735   1.117   6.791
   59PMPE   H3R 2721   3.724   1.081   6.895
   59PMPE   H3S 2722   3.838   1.130   6.756
   59PMPE   C24 2723   3.654   1.066   6.676
   59PMPE   H4R 2724   3.645   0.958   6.702
   59PMPE   H4S 2725   3.696   1.085   6.577
   59PMPE   C25 2726   3.517   1.122   6.662
   59PMPE   H5R 2727   3.492   1.226   6.652
   59PMPE   H5S 2728   3.501   1.096   6.764
   59PMPE   C26 2729   3.434   1.047   6.572
   59PMPE   H6R 2730   3.343   1.045   6.630
   59PMPE   H6S 2731   3.470   0.945   6.585
   59PMPE   C27 2732   3.447   1.104   6.432
   59PMPE   H7R 2733   3.551   1.089   6.402
   59PMPE   H7S 2734   3.411   1.208   6.422
   59PMPE   C28 2735   3.391   1.044   6.311
   59PMPE   H8R 2736   3.279   1.041   6.312
   59PMPE   H8S 2737   3.423   0.941   6.291
   59PMPE   C29 2738   3.432   1.128   6.205
   59PMPE   H9R 2739   3.367   1.217   6.192
   59PMPE  C217 2740   3.356   1.062   6.102
   59PMPE  H17R 2741   3.338   1.101   6.005
   59PMPE  H17S 2742   3.289   0.987   6.140
   59PMPE  C210 2743   3.511   1.041   6.111
   59PMPE  H10R 2744   3.533   1.068   6.009
   59PMPE  C211 2745   3.599   0.914   6.164
   59PMPE  H11R 2746   3.552   0.838   6.225
   59PMPE  H11S 2747   3.661   0.928   6.254
   59PMPE  C212 2748   3.650   0.815   6.061
   59PMPE  H12R 2749   3.715   0.877   5.998
   59PMPE  H12S 2750   3.582   0.770   5.986
   59PMPE  C213 2751   3.695   0.680   6.119
   59PMPE  H13R 2752   3.617   0.623   6.176
   59PMPE  H13S 2753   3.778   0.699   6.188
   59PMPE  C214 2754   3.730   0.593   6.002
   59PMPE  H14R 2755   3.641   0.587   5.935
   59PMPE  H14S 2756   3.761   0.494   6.039
   59PMPE  C215 2757   3.849   0.648   5.927
   59PMPE  H15R 2758   3.940   0.617   5.982
   59PMPE  H15S 2759   3.848   0.758   5.934
   59PMPE  C216 2760   3.854   0.610   5.780
   59PMPE  H16R 2761   3.935   0.665   5.729
   59PMPE  H16S 2762   3.870   0.501   5.769
   59PMPE  H16T 2763   3.756   0.636   5.733
   59PMPE   C33 2764   4.230   1.065   6.625
   59PMPE   H3X 2765   4.321   1.003   6.610
   59PMPE   H3Y 2766   4.251   1.165   6.579
   59PMPE   C34 2767   4.116   0.994   6.551
   59PMPE   H4X 2768   4.017   1.025   6.588
   59PMPE   H4Y 2769   4.130   0.885   6.569
   59PMPE   C35 2770   4.120   1.019   6.401
   59PMPE   H5X 2771   4.110   1.128   6.376
   59PMPE   H5Y 2772   4.040   0.964   6.347
   59PMPE   C36 2773   4.251   0.975   6.345
   59PMPE   H6X 2774   4.276   0.868   6.361
   59PMPE   H6Y 2775   4.336   1.037   6.386
   59PMPE   C37 2776   4.251   1.005   6.199
   59PMPE   H7X 2777   4.345   0.954   6.186
   59PMPE   H7Y 2778   4.258   1.115   6.184
   59PMPE   C38 2779   4.161   0.938   6.093
   59PMPE   H8X 2780   4.065   0.986   6.116
   59PMPE   H8Y 2781   4.164   0.828   6.112
   59PMPE   C39 2782   4.189   0.966   5.941
   59PMPE   H9X 2783   4.280   0.913   5.902
   59PMPE   H9Y 2784   4.208   1.076   5.929
   59PMPE  C310 2785   4.080   0.933   5.844
   59PMPE  H10X 2786   3.983   0.945   5.896
   59PMPE  H10Y 2787   4.096   0.828   5.812
   59PMPE  C311 2788   4.086   1.023   5.722
   59PMPE  H11X 2789   4.189   1.054   5.692
   59PMPE  H11Y 2790   4.031   1.116   5.746
   59PMPE  C312 2791   4.021   0.949   5.606
   59PMPE  H12X 2792   3.917   0.922   5.637
   59PMPE  H12Y 2793   4.077   0.855   5.586
   59PMPE  C313 2794   4.019   1.037   5.484
   59PMPE  H13X 2795   3.968   0.982   5.400
   59PMPE  H13Y 2796   4.123   1.057   5.453
   59PMPE  C314 2797   3.964   1.179   5.513
   59PMPE  H14X 2798   4.006   1.229   5.599
   59PMPE  H14Y 2799   3.854   1.161   5.528
   59PMPE  C315 2800   3.999   1.297   5.421
   59PMPE  H15X 2801   4.092   1.294   5.356
   59PMPE  H15Y 2802   3.943   1.394   5.424
   59PMPE  C316 2803   3.910   1.258   5.330
   59PMPE  H16X 2804   3.807   1.233   5.361
   59PMPE  H16Y 2805   3.951   1.157   5.307
   59PMPE  H16Z 2806   3.911   1.322   5.238
   60PMPE     N 2807   2.591   1.317   7.131
   60PMPE   HN1 2808   2.501   1.346   7.086
   60PMPE   HN2 2809   2.659   1.396   7.119
   60PMPE   HN3 2810   2.630   1.231   7.089
   60PMPE   C12 2811   2.570   1.295   7.278
   60PMPE  H12A 2812   2.668   1.269   7.324
   60PMPE  H12B 2813   2.498   1.212   7.289
   60PMPE   C11 2814   2.515   1.420   7.345
   60PMPE  H11A 2815   2.474   1.387   7.445
   60PMPE  H11B 2816   2.431   1.467   7.289
   60PMPE     P 2817   2.608   1.612   7.484
   60PMPE   O13 2818   2.695   1.566   7.595
   60PMPE   O14 2819   2.463   1.631   7.511
   60PMPE   O11 2820   2.662   1.753   7.435
   60PMPE   O12 2821   2.622   1.513   7.359
   60PMPE    C1 2822   2.746   1.762   7.320
   60PMPE    HA 2823   2.796   1.666   7.293
   60PMPE    HB 2824   2.831   1.828   7.345
   60PMPE    C2 2825   2.667   1.822   7.202
   60PMPE    HS 2826   2.616   1.914   7.238
   60PMPE   O21 2827   2.568   1.727   7.159
   60PMPE   C21 2828   2.479   1.775   7.074
   60PMPE   O22 2829   2.477   1.888   7.028
   60PMPE   C22 2830   2.370   1.673   7.063
   60PMPE   H2R 2831   2.316   1.670   7.161
   60PMPE   H2S 2832   2.406   1.571   7.041
   60PMPE    C3 2833   2.760   1.860   7.086
   60PMPE    HX 2834   2.850   1.913   7.125
   60PMPE    HY 2835   2.707   1.931   7.018
   60PMPE   O31 2836   2.798   1.738   7.020
   60PMPE   C31 2837   2.880   1.761   6.919
   60PMPE   O32 2838   2.925   1.870   6.888
   60PMPE   C32 2839   2.896   1.631   6.841
   60PMPE   H2X 2840   2.963   1.565   6.900
   60PMPE   H2Y 2841   2.947   1.657   6.746
   60PMPE   C23 2842   2.265   1.714   6.962
   60PMPE   H3R 2843   2.207   1.804   6.992
   60PMPE   H3S 2844   2.209   1.626   6.988
   60PMPE   C24 2845   2.289   1.704   6.809
   60PMPE   H4R 2846   2.373   1.772   6.791
   60PMPE   H4S 2847   2.196   1.741   6.757
   60PMPE   C25 2848   2.320   1.570   6.747
   60PMPE   H5R 2849   2.239   1.511   6.788
   60PMPE   H5S 2850   2.416   1.531   6.785
   60PMPE   C26 2851   2.314   1.565   6.592
   60PMPE   H6R 2852   2.216   1.601   6.556
   60PMPE   H6S 2853   2.324   1.459   6.559
   60PMPE   C27 2854   2.425   1.648   6.527
   60PMPE   H7R 2855   2.522   1.602   6.555
   60PMPE   H7S 2856   2.425   1.747   6.575
   60PMPE   C28 2857   2.418   1.666   6.374
   60PMPE   H8R 2858   2.398   1.572   6.320
   60PMPE   H8S 2859   2.520   1.699   6.344
   60PMPE   C29 2860   2.320   1.778   6.333
   60PMPE   H9R 2861   2.328   1.869   6.386
   60PMPE  C217 2862   2.171   1.751   6.324
   60PMPE  H17R 2863   2.106   1.834   6.348
   60PMPE  H17S 2864   2.153   1.649   6.352
   60PMPE  C210 2865   2.255   1.781   6.200
   60PMPE  H10R 2866   2.244   1.881   6.155
   60PMPE  C211 2867   2.272   1.661   6.111
   60PMPE  H11R 2868   2.240   1.581   6.179
   60PMPE  H11S 2869   2.376   1.635   6.088
   60PMPE  C212 2870   2.191   1.683   5.981
   60PMPE  H12R 2871   2.224   1.768   5.921
   60PMPE  H12S 2872   2.086   1.712   6.009
   60PMPE  C213 2873   2.179   1.565   5.882
   60PMPE  H13R 2874   2.088   1.585   5.822
   60PMPE  H13S 2875   2.170   1.470   5.930
   60PMPE  C214 2876   2.290   1.485   5.820
   60PMPE  H14R 2877   2.248   1.390   5.776
   60PMPE  H14S 2878   2.360   1.454   5.901
   60PMPE  C215 2879   2.345   1.573   5.715
   60PMPE  H15R 2880   2.418   1.511   5.662
   60PMPE  H15S 2881   2.398   1.653   5.771
   60PMPE  C216 2882   2.240   1.636   5.623
   60PMPE  H16R 2883   2.291   1.692   5.543
   60PMPE  H16S 2884   2.172   1.561   5.577
   60PMPE  H16T 2885   2.177   1.708   5.679
   60PMPE   C33 2886   2.760   1.561   6.813
   60PMPE   H3X 2887   2.688   1.631   6.765
   60PMPE   H3Y 2888   2.713   1.527   6.908
   60PMPE   C34 2889   2.773   1.439   6.722
   60PMPE   H4X 2890   2.676   1.385   6.724
   60PMPE   H4Y 2891   2.850   1.370   6.762
   60PMPE   C35 2892   2.804   1.482   6.577
   60PMPE   H5X 2893   2.914   1.497   6.567
   60PMPE   H5Y 2894   2.755   1.580   6.560
   60PMPE   C36 2895   2.750   1.387   6.468
   60PMPE   H6X 2896   2.639   1.392   6.468
   60PMPE   H6Y 2897   2.779   1.283   6.492
   60PMPE   C37 2898   2.794   1.423   6.325
   60PMPE   H7X 2899   2.903   1.402   6.312
   60PMPE   H7Y 2900   2.778   1.532   6.307
   60PMPE   C38 2901   2.716   1.343   6.220
   60PMPE   H8X 2902   2.607   1.342   6.246
   60PMPE   H8Y 2903   2.752   1.237   6.219
   60PMPE   C39 2904   2.729   1.400   6.079
   60PMPE   H9X 2905   2.827   1.366   6.039
   60PMPE   H9Y 2906   2.729   1.511   6.078
   60PMPE  C310 2907   2.615   1.354   5.989
   60PMPE  H10X 2908   2.516   1.387   6.025
   60PMPE  H10Y 2909   2.615   1.243   5.983
   60PMPE  C311 2910   2.628   1.419   5.853
   60PMPE  H11X 2911   2.631   1.529   5.846
   60PMPE  H11Y 2912   2.545   1.378   5.791
   60PMPE  C312 2913   2.755   1.389   5.786
   60PMPE  H12X 2914   2.776   1.291   5.834
   60PMPE  H12Y 2915   2.851   1.440   5.814
   60PMPE  C313 2916   2.718   1.411   5.636
   60PMPE  H13X 2917   2.807   1.408   5.572
   60PMPE  H13Y 2918   2.701   1.514   5.617
   60PMPE  C314 2919   2.598   1.342   5.565
   60PMPE  H14X 2920   2.523   1.277   5.618
   60PMPE  H14Y 2921   2.573   1.234   5.549
   60PMPE  C315 2922   2.597   1.391   5.426
   60PMPE  H15X 2923   2.650   1.339   5.348
   60PMPE  H15Y 2924   2.666   1.451   5.366
   60PMPE  C316 2925   2.454   1.414   5.432
   60PMPE  H16X 2926   2.390   1.353   5.372
   60PMPE  H16Y 2927   2.461   1.523   5.424
   60PMPE  H16Z 2928   2.403   1.379   5.524
   61PMPE     N 2929   1.043   3.476   7.250
   61PMPE   HN1 2930   1.073   3.563   7.298
   61PMPE   HN2 2931   1.088   3.474   7.156
   61PMPE   HN3 2932   0.939   3.469   7.242
   61PMPE   C12 2933   1.106   3.366   7.332
   61PMPE  H12A 2934   1.086   3.269   7.283
   61PMPE  H12B 2935   1.060   3.369   7.433
   61PMPE   C11 2936   1.258   3.386   7.346
   61PMPE  H11A 2937   1.310   3.341   7.259
   61PMPE  H11B 2938   1.289   3.329   7.437
   61PMPE     P 2939   1.411   3.564   7.450
   61PMPE   O13 2940   1.383   3.505   7.582
   61PMPE   O14 2941   1.418   3.710   7.442
   61PMPE   O11 2942   1.539   3.494   7.388
   61PMPE   O12 2943   1.292   3.524   7.352
   61PMPE    C1 2944   1.664   3.563   7.377
   61PMPE    HA 2945   1.744   3.498   7.420
   61PMPE    HB 2946   1.667   3.658   7.435
   61PMPE    C2 2947   1.705   3.589   7.228
   61PMPE    HS 2948   1.799   3.648   7.230
   61PMPE   O21 2949   1.606   3.659   7.152
   61PMPE   C21 2950   1.591   3.786   7.180
   61PMPE   O22 2951   1.654   3.851   7.260
   61PMPE   C22 2952   1.467   3.842   7.109
   61PMPE   H2R 2953   1.496   3.939   7.065
   61PMPE   H2S 2954   1.399   3.862   7.194
   61PMPE    C3 2955   1.733   3.456   7.153
   61PMPE    HX 2956   1.808   3.394   7.205
   61PMPE    HY 2957   1.777   3.490   7.056
   61PMPE   O31 2958   1.611   3.380   7.139
   61PMPE   C31 2959   1.572   3.358   7.015
   61PMPE   O32 2960   1.643   3.359   6.917
   61PMPE   C32 2961   1.420   3.331   7.016
   61PMPE   H2X 2962   1.372   3.421   7.061
   61PMPE   H2Y 2963   1.398   3.243   7.078
   61PMPE   C23 2964   1.391   3.749   7.010
   61PMPE   H3R 2965   1.297   3.799   6.976
   61PMPE   H3S 2966   1.358   3.659   7.066
   61PMPE   C24 2967   1.471   3.706   6.885
   61PMPE   H4R 2968   1.411   3.626   6.837
   61PMPE   H4S 2969   1.570   3.664   6.914
   61PMPE   C25 2970   1.497   3.813   6.778
   61PMPE   H5R 2971   1.550   3.903   6.817
   61PMPE   H5S 2972   1.399   3.842   6.740
   61PMPE   C26 2973   1.577   3.767   6.658
   61PMPE   H6R 2974   1.681   3.783   6.689
   61PMPE   H6S 2975   1.556   3.835   6.572
   61PMPE   C27 2976   1.566   3.622   6.617
   61PMPE   H7R 2977   1.460   3.591   6.604
   61PMPE   H7S 2978   1.612   3.555   6.692
   61PMPE   C28 2979   1.637   3.600   6.484
   61PMPE   H8R 2980   1.746   3.619   6.498
   61PMPE   H8S 2981   1.599   3.675   6.411
   61PMPE   C29 2982   1.603   3.459   6.436
   61PMPE   H9R 2983   1.497   3.433   6.426
   61PMPE  C217 2984   1.700   3.346   6.468
   61PMPE  H17R 2985   1.654   3.249   6.479
   61PMPE  H17S 2986   1.792   3.378   6.515
   61PMPE  C210 2987   1.683   3.398   6.325
   61PMPE  H10R 2988   1.625   3.331   6.260
   61PMPE  C211 2989   1.801   3.474   6.268
   61PMPE  H11R 2990   1.861   3.400   6.211
   61PMPE  H11S 2991   1.866   3.511   6.350
   61PMPE  C212 2992   1.759   3.593   6.180
   61PMPE  H12R 2993   1.851   3.649   6.154
   61PMPE  H12S 2994   1.693   3.665   6.230
   61PMPE  C213 2995   1.687   3.552   6.052
   61PMPE  H13R 2996   1.588   3.505   6.071
   61PMPE  H13S 2997   1.748   3.469   6.010
   61PMPE  C214 2998   1.664   3.675   5.962
   61PMPE  H14R 2999   1.762   3.713   5.926
   61PMPE  H14S 3000   1.623   3.760   6.016
   61PMPE  C215 3001   1.572   3.651   5.844
   61PMPE  H15R 3002   1.573   3.741   5.776
   61PMPE  H15S 3003   1.471   3.610   5.858
   61PMPE  C216 3004   1.636   3.554   5.762
   61PMPE  H16R 3005   1.654   3.447   5.788
   61PMPE  H16S 3006   1.598   3.576   5.661
   61PMPE  H16T 3007   1.733   3.598   5.761
   61PMPE   C33 3008   1.372   3.301   6.872
   61PMPE   H3X 3009   1.422   3.206   6.842
   61PMPE   H3Y 3010   1.406   3.382   6.803
   61PMPE   C34 3011   1.220   3.287   6.855
   61PMPE   H4X 3012   1.173   3.374   6.906
   61PMPE   H4Y 3013   1.185   3.193   6.903
   61PMPE   C35 3014   1.178   3.285   6.706
   61PMPE   H5X 3015   1.077   3.238   6.700
   61PMPE   H5Y 3016   1.248   3.221   6.649
   61PMPE   C36 3017   1.173   3.426   6.643
   61PMPE   H6X 3018   1.268   3.481   6.655
   61PMPE   H6Y 3019   1.095   3.482   6.699
   61PMPE   C37 3020   1.134   3.433   6.495
   61PMPE   H7X 3021   1.030   3.401   6.508
   61PMPE   H7Y 3022   1.176   3.357   6.426
   61PMPE   C38 3023   1.145   3.576   6.438
   61PMPE   H8X 3024   1.140   3.651   6.519
   61PMPE   H8Y 3025   1.065   3.598   6.368
   61PMPE   C39 3026   1.256   3.603   6.336
   61PMPE   H9X 3027   1.228   3.554   6.239
   61PMPE   H9Y 3028   1.344   3.551   6.376
   61PMPE  C310 3029   1.286   3.752   6.310
   61PMPE  H10X 3030   1.314   3.801   6.405
   61PMPE  H10Y 3031   1.196   3.805   6.271
   61PMPE  C311 3032   1.396   3.769   6.204
   61PMPE  H11X 3033   1.359   3.723   6.110
   61PMPE  H11Y 3034   1.484   3.710   6.235
   61PMPE  C312 3035   1.437   3.914   6.172
   61PMPE  H12X 3036   1.549   3.919   6.170
   61PMPE  H12Y 3037   1.408   3.981   6.255
   61PMPE  C313 3038   1.384   3.969   6.037
   61PMPE  H13X 3039   1.417   3.907   5.951
   61PMPE  H13Y 3040   1.430   4.070   6.024
   61PMPE  C314 3041   1.231   3.980   6.023
   61PMPE  H14X 3042   1.199   4.065   6.084
   61PMPE  H14Y 3043   1.178   3.893   6.064
   61PMPE  C315 3044   1.182   4.001   5.878
   61PMPE  H15X 3045   1.070   4.009   5.879
   61PMPE  H15Y 3046   1.208   3.911   5.820
   61PMPE  C316 3047   1.240   4.122   5.807
   61PMPE  H16X 3048   1.349   4.129   5.805
   61PMPE  H16Y 3049   1.222   4.210   5.867
   61PMPE  H16Z 3050   1.194   4.132   5.706
   62PMPE     N 3051   3.862   7.759   7.449
   62PMPE   HN1 3052   3.942   7.786   7.509
   62PMPE   HN2 3053   3.806   7.841   7.419
   62PMPE   HN3 3054   3.805   7.691   7.502
   62PMPE   C12 3055   3.906   7.693   7.321
   62PMPE  H12A 3056   3.966   7.768   7.264
   62PMPE  H12B 3057   3.814   7.669   7.265
   62PMPE   C11 3058   3.983   7.565   7.351
   62PMPE  H11A 3059   4.009   7.514   7.255
   62PMPE  H11B 3060   3.918   7.494   7.408
   62PMPE     P 3061   4.232   7.515   7.408
   62PMPE   O13 3062   4.200   7.373   7.423
   62PMPE   O14 3063   4.329   7.581   7.497
   62PMPE   O11 3064   4.262   7.545   7.256
   62PMPE   O12 3065   4.097   7.598   7.429
   62PMPE    C1 3066   4.260   7.672   7.194
   62PMPE    HA 3067   4.362   7.716   7.204
   62PMPE    HB 3068   4.187   7.739   7.244
   62PMPE    C2 3069   4.221   7.664   7.043
   62PMPE    HS 3070   4.225   7.768   7.004
   62PMPE   O21 3071   4.089   7.606   7.029
   62PMPE   C21 3072   4.009   7.661   6.939
   62PMPE   O22 3073   4.030   7.764   6.877
   62PMPE   C22 3074   3.879   7.581   6.935
   62PMPE   H2R 3075   3.806   7.631   7.002
   62PMPE   H2S 3076   3.898   7.479   6.973
   62PMPE    C3 3077   4.326   7.582   6.961
   62PMPE    HX 3078   4.357   7.492   7.019
   62PMPE    HY 3079   4.416   7.647   6.953
   62PMPE   O31 3080   4.277   7.536   6.833
   62PMPE   C31 3081   4.279   7.621   6.732
   62PMPE   O32 3082   4.322   7.736   6.735
   62PMPE   C32 3083   4.225   7.553   6.607
   62PMPE   H2X 3084   4.120   7.521   6.623
   62PMPE   H2Y 3085   4.288   7.463   6.587
   62PMPE   C23 3086   3.815   7.566   6.796
   62PMPE   H3R 3087   3.732   7.492   6.808
   62PMPE   H3S 3088   3.883   7.525   6.718
   62PMPE   C24 3089   3.747   7.691   6.743
   62PMPE   H4R 3090   3.819   7.773   6.723
   62PMPE   H4S 3091   3.678   7.724   6.824
   62PMPE   C25 3092   3.667   7.651   6.617
   62PMPE   H5R 3093   3.583   7.721   6.597
   62PMPE   H5S 3094   3.618   7.554   6.634
   62PMPE   C26 3095   3.757   7.653   6.492
   62PMPE   H6R 3096   3.837   7.577   6.497
   62PMPE   H6S 3097   3.813   7.749   6.493
   62PMPE   C27 3098   3.670   7.644   6.365
   62PMPE   H7R 3099   3.622   7.741   6.346
   62PMPE   H7S 3100   3.582   7.580   6.384
   62PMPE   C28 3101   3.741   7.595   6.237
   62PMPE   H8R 3102   3.843   7.637   6.227
   62PMPE   H8S 3103   3.682   7.628   6.148
   62PMPE   C29 3104   3.734   7.444   6.238
   62PMPE   H9R 3105   3.634   7.401   6.256
   62PMPE  C217 3106   3.851   7.364   6.293
   62PMPE  H17R 3107   3.827   7.268   6.338
   62PMPE  H17S 3108   3.929   7.429   6.327
   62PMPE  C210 3109   3.820   7.364   6.144
   62PMPE  H10R 3110   3.763   7.282   6.098
   62PMPE  C211 3111   3.930   7.426   6.061
   62PMPE  H11R 3112   3.995   7.489   6.125
   62PMPE  H11S 3113   3.885   7.489   5.981
   62PMPE  C212 3114   4.007   7.312   5.994
   62PMPE  H12R 3115   3.939   7.269   5.917
   62PMPE  H12S 3116   4.032   7.233   6.068
   62PMPE  C213 3117   4.137   7.352   5.926
   62PMPE  H13R 3118   4.184   7.264   5.876
   62PMPE  H13S 3119   4.209   7.399   5.995
   62PMPE  C214 3120   4.115   7.457   5.825
   62PMPE  H14R 3121   4.087   7.552   5.875
   62PMPE  H14S 3122   4.026   7.430   5.763
   62PMPE  C215 3123   4.237   7.466   5.732
   62PMPE  H15R 3124   4.333   7.444   5.779
   62PMPE  H15S 3125   4.263   7.574   5.715
   62PMPE  C216 3126   4.201   7.384   5.603
   62PMPE  H16R 3127   4.198   7.277   5.619
   62PMPE  H16S 3128   4.115   7.414   5.543
   62PMPE  H16T 3129   4.257   7.397   5.514
   62PMPE   C33 3130   4.239   7.647   6.486
   62PMPE   H3X 3131   4.348   7.666   6.476
   62PMPE   H3Y 3132   4.187   7.744   6.505
   62PMPE   C34 3133   4.184   7.584   6.358
   62PMPE   H4X 3134   4.072   7.587   6.362
   62PMPE   H4Y 3135   4.218   7.479   6.352
   62PMPE   C35 3136   4.230   7.650   6.229
   62PMPE   H5X 3137   4.179   7.601   6.143
   62PMPE   H5Y 3138   4.339   7.644   6.217
   62PMPE   C36 3139   4.196   7.794   6.222
   62PMPE   H6X 3140   4.268   7.842   6.151
   62PMPE   H6Y 3141   4.215   7.852   6.316
   62PMPE   C37 3142   4.049   7.809   6.180
   62PMPE   H7X 3143   4.085   7.909   6.166
   62PMPE   H7Y 3144   3.971   7.807   6.257
   62PMPE   C38 3145   3.985   7.772   6.045
   62PMPE   H8X 3146   3.977   7.665   6.044
   62PMPE   H8Y 3147   4.065   7.796   5.974
   62PMPE   C39 3148   3.843   7.833   6.011
   62PMPE   H9X 3149   3.843   7.943   6.026
   62PMPE   H9Y 3150   3.761   7.792   6.071
   62PMPE  C310 3151   3.788   7.817   5.868
   62PMPE  H10X 3152   3.859   7.813   5.789
   62PMPE  H10Y 3153   3.744   7.912   5.833
   62PMPE  C311 3154   3.760   7.680   5.818
   62PMPE  H11X 3155   3.692   7.636   5.891
   62PMPE  H11Y 3156   3.856   7.620   5.822
   62PMPE  C312 3157   3.690   7.678   5.683
   62PMPE  H12X 3158   3.588   7.699   5.690
   62PMPE  H12Y 3159   3.698   7.573   5.648
   62PMPE  C313 3160   3.712   7.778   5.571
   62PMPE  H13X 3161   3.731   7.889   5.576
   62PMPE  H13Y 3162   3.651   7.738   5.486
   62PMPE  C314 3163   3.835   7.742   5.549
   62PMPE  H14X 3164   3.831   7.627   5.546
   62PMPE  H14Y 3165   3.907   7.802   5.613
   62PMPE  C315 3166   3.881   7.774   5.432
   62PMPE  H15X 3167   3.933   7.676   5.425
   62PMPE  H15Y 3168   3.965   7.847   5.449
   62PMPE  C316 3169   3.784   7.802   5.323
   62PMPE  H16X 3170   3.737   7.896   5.301
   62PMPE  H16Y 3171   3.735   7.721   5.273
   62PMPE  H16Z 3172   3.867   7.818   5.265
   63PMPE     N 3173   5.414   1.053   7.627
   63PMPE   HN1 3174   5.412   1.034   7.730
   63PMPE   HN2 3175   5.450   1.150   7.614
   63PMPE   HN3 3176   5.317   1.051   7.589
   63PMPE   C12 3177   5.498   0.948   7.555
   63PMPE  H12A 3178   5.459   0.852   7.593
   63PMPE  H12B 3179   5.603   0.958   7.588
   63PMPE   C11 3180   5.490   0.954   7.401
   63PMPE  H11A 3181   5.390   0.915   7.367
   63PMPE  H11B 3182   5.566   0.885   7.356
   63PMPE     P 3183   5.630   1.176   7.320
   63PMPE   O13 3184   5.745   1.117   7.392
   63PMPE   O14 3185   5.593   1.314   7.353
   63PMPE   O11 3186   5.652   1.160   7.167
   63PMPE   O12 3187   5.502   1.086   7.352
   63PMPE    C1 3188   5.536   1.147   7.091
   63PMPE    HA 3189   5.539   1.220   7.007
   63PMPE    HB 3190   5.438   1.166   7.142
   63PMPE    C2 3191   5.537   1.007   7.036
   63PMPE    HS 3192   5.518   0.928   7.114
   63PMPE   O21 3193   5.644   0.975   6.951
   63PMPE   C21 3194   5.733   0.908   7.002
   63PMPE   O22 3195   5.737   0.858   7.113
   63PMPE   C22 3196   5.834   0.899   6.893
   63PMPE   H2R 3197   5.808   0.829   6.812
   63PMPE   H2S 3198   5.924   0.857   6.937
   63PMPE    C3 3199   5.426   1.006   6.955
   63PMPE    HX 3200   5.339   1.020   7.029
   63PMPE    HY 3201   5.433   0.902   6.924
   63PMPE   O31 3202   5.466   1.096   6.842
   63PMPE   C31 3203   5.359   1.148   6.803
   63PMPE   O32 3204   5.258   1.128   6.868
   63PMPE   C32 3205   5.365   1.200   6.650
   63PMPE   H2X 3206   5.384   1.304   6.666
   63PMPE   H2Y 3207   5.267   1.219   6.597
   63PMPE   C23 3208   5.859   1.038   6.835
   63PMPE   H3R 3209   5.889   1.112   6.913
   63PMPE   H3S 3210   5.776   1.099   6.796
   63PMPE   C24 3211   5.970   1.018   6.736
   63PMPE   H4R 3212   6.061   0.959   6.760
   63PMPE   H4S 3213   5.992   1.121   6.756
   63PMPE   C25 3214   5.938   1.035   6.590
   63PMPE   H5R 3215   5.873   1.127   6.586
   63PMPE   H5S 3216   5.891   0.944   6.553
   63PMPE   C26 3217   6.057   1.065   6.504
   63PMPE   H6R 3218   6.153   1.013   6.526
   63PMPE   H6S 3219   6.058   1.173   6.534
   63PMPE   C27 3220   6.032   1.080   6.357
   63PMPE   H7R 3221   5.981   0.990   6.322
   63PMPE   H7S 3222   6.133   1.079   6.307
   63PMPE   C28 3223   5.948   1.210   6.337
   63PMPE   H8R 3224   5.999   1.298   6.385
   63PMPE   H8S 3225   5.843   1.207   6.367
   63PMPE   C29 3226   5.952   1.246   6.195
   63PMPE   H9R 3227   6.047   1.205   6.169
   63PMPE  C217 3228   5.843   1.324   6.123
   63PMPE  H17R 3229   5.870   1.403   6.053
   63PMPE  H17S 3230   5.758   1.336   6.185
   63PMPE  C210 3231   5.879   1.183   6.082
   63PMPE  H10R 3232   5.951   1.152   6.009
   63PMPE  C211 3233   5.798   1.066   6.103
   63PMPE  H11R 3234   5.747   1.080   6.200
   63PMPE  H11S 3235   5.863   0.975   6.104
   63PMPE  C212 3236   5.705   1.065   5.983
   63PMPE  H12R 3237   5.645   1.158   5.982
   63PMPE  H12S 3238   5.658   0.967   6.000
   63PMPE  C213 3239   5.748   1.059   5.839
   63PMPE  H13R 3240   5.787   1.153   5.804
   63PMPE  H13S 3241   5.677   1.039   5.756
   63PMPE  C214 3242   5.852   0.965   5.822
   63PMPE  H14R 3243   5.811   0.860   5.834
   63PMPE  H14S 3244   5.930   0.977   5.899
   63PMPE  C215 3245   5.893   1.003   5.680
   63PMPE  H15R 3246   5.982   1.064   5.660
   63PMPE  H15S 3247   5.828   1.008   5.592
   63PMPE  C216 3248   5.942   0.886   5.647
   63PMPE  H16R 3249   5.957   0.825   5.731
   63PMPE  H16S 3250   5.878   0.803   5.627
   63PMPE  H16T 3251   6.047   0.910   5.621
   63PMPE   C33 3252   5.427   1.105   6.537
   63PMPE   H3X 3253   5.383   1.010   6.496
   63PMPE   H3Y 3254   5.518   1.066   6.579
   63PMPE   C34 3255   5.422   1.173   6.403
   63PMPE   H4X 3256   5.319   1.172   6.356
   63PMPE   H4Y 3257   5.488   1.114   6.336
   63PMPE   C35 3258   5.469   1.312   6.433
   63PMPE   H5X 3259   5.563   1.306   6.492
   63PMPE   H5Y 3260   5.394   1.374   6.488
   63PMPE   C36 3261   5.490   1.385   6.308
   63PMPE   H6X 3262   5.554   1.321   6.242
   63PMPE   H6Y 3263   5.542   1.480   6.331
   63PMPE   C37 3264   5.352   1.409   6.249
   63PMPE   H7X 3265   5.277   1.452   6.318
   63PMPE   H7Y 3266   5.319   1.315   6.204
   63PMPE   C38 3267   5.366   1.506   6.144
   63PMPE   H8X 3268   5.406   1.588   6.206
   63PMPE   H8Y 3269   5.281   1.562   6.099
   63PMPE   C39 3270   5.459   1.443   6.042
   63PMPE   H9X 3271   5.565   1.432   6.071
   63PMPE   H9Y 3272   5.441   1.534   5.989
   63PMPE  C310 3273   5.418   1.324   5.954
   63PMPE  H10X 3274   5.316   1.356   5.923
   63PMPE  H10Y 3275   5.434   1.234   6.016
   63PMPE  C311 3276   5.472   1.295   5.815
   63PMPE  H11X 3277   5.581   1.313   5.806
   63PMPE  H11Y 3278   5.403   1.355   5.749
   63PMPE  C312 3279   5.436   1.185   5.739
   63PMPE  H12X 3280   5.327   1.183   5.764
   63PMPE  H12Y 3281   5.503   1.120   5.798
   63PMPE  C313 3282   5.447   1.175   5.587
   63PMPE  H13X 3283   5.379   1.257   5.553
   63PMPE  H13Y 3284   5.401   1.081   5.551
   63PMPE  C314 3285   5.579   1.158   5.513
   63PMPE  H14X 3286   5.609   1.053   5.518
   63PMPE  H14Y 3287   5.666   1.208   5.559
   63PMPE  C315 3288   5.554   1.219   5.375
   63PMPE  H15X 3289   5.475   1.294   5.394
   63PMPE  H15Y 3290   5.505   1.148   5.307
   63PMPE  C316 3291   5.674   1.290   5.310
   63PMPE  H16X 3292   5.695   1.390   5.348
   63PMPE  H16Y 3293   5.656   1.313   5.203
   63PMPE  H16Z 3294   5.768   1.240   5.333
   64PMPE     N 3295   3.382   7.555   7.594
   64PMPE   HN1 3296   3.385   7.516   7.690
   64PMPE   HN2 3297   3.413   7.483   7.525
   64PMPE   HN3 3298   3.442   7.638   7.586
   64PMPE   C12 3299   3.246   7.604   7.551
   64PMPE  H12A 3300   3.232   7.707   7.591
   64PMPE  H12B 3301   3.169   7.537   7.594
   64PMPE   C11 3302   3.240   7.610   7.398
   64PMPE  H11A 3303   3.312   7.686   7.362
   64PMPE  H11B 3304   3.140   7.644   7.362
   64PMPE     P 3305   3.175   7.366   7.319
   64PMPE   O13 3306   3.147   7.315   7.455
   64PMPE   O14 3307   3.233   7.279   7.216
   64PMPE   O11 3308   3.042   7.436   7.267
   64PMPE   O12 3309   3.278   7.485   7.343
   64PMPE    C1 3310   3.043   7.519   7.148
   64PMPE    HA 3311   3.131   7.496   7.083
   64PMPE    HB 3312   3.042   7.625   7.177
   64PMPE    C2 3313   2.922   7.499   7.055
   64PMPE    HS 3314   2.829   7.504   7.118
   64PMPE   O21 3315   2.935   7.376   7.004
   64PMPE   C21 3316   2.822   7.340   6.953
   64PMPE   O22 3317   2.709   7.377   6.975
   64PMPE   C22 3318   2.851   7.217   6.902
   64PMPE   H2R 3319   2.754   7.180   6.862
   64PMPE   H2S 3320   2.864   7.194   7.014
   64PMPE    C3 3321   2.912   7.588   6.929
   64PMPE    HX 3322   2.870   7.681   6.968
   64PMPE    HY 3323   2.840   7.547   6.853
   64PMPE   O31 3324   3.045   7.601   6.873
   64PMPE   C31 3325   3.081   7.533   6.763
   64PMPE   O32 3326   3.005   7.488   6.679
   64PMPE   C32 3327   3.236   7.521   6.764
   64PMPE   H2X 3328   3.267   7.514   6.871
   64PMPE   H2Y 3329   3.280   7.612   6.721
   64PMPE   C23 3330   2.963   7.166   6.813
   64PMPE   H3R 3331   3.014   7.072   6.850
   64PMPE   H3S 3332   3.042   7.241   6.807
   64PMPE   C24 3333   2.891   7.132   6.683
   64PMPE   H4R 3334   2.798   7.189   6.666
   64PMPE   H4S 3335   2.855   7.031   6.675
   64PMPE   C25 3336   2.984   7.109   6.570
   64PMPE   H5R 3337   3.051   7.023   6.597
   64PMPE   H5S 3338   3.038   7.205   6.562
   64PMPE   C26 3339   2.905   7.076   6.445
   64PMPE   H6R 3340   2.820   7.147   6.437
   64PMPE   H6S 3341   2.864   6.973   6.443
   64PMPE   C27 3342   3.001   7.091   6.330
   64PMPE   H7R 3343   3.053   6.998   6.325
   64PMPE   H7S 3344   3.077   7.169   6.348
   64PMPE   C28 3345   2.942   7.093   6.191
   64PMPE   H8R 3346   2.871   7.008   6.185
   64PMPE   H8S 3347   3.026   7.074   6.121
   64PMPE   C29 3348   2.881   7.230   6.174
   64PMPE   H9R 3349   2.931   7.315   6.223
   64PMPE  C217 3350   2.732   7.225   6.209
   64PMPE  H17R 3351   2.690   7.313   6.254
   64PMPE  H17S 3352   2.697   7.124   6.223
   64PMPE  C210 3353   2.777   7.257   6.069
   64PMPE  H10R 3354   2.765   7.362   6.040
   64PMPE  C211 3355   2.736   7.150   5.970
   64PMPE  H11R 3356   2.630   7.165   5.942
   64PMPE  H11S 3357   2.746   7.048   6.013
   64PMPE  C212 3358   2.826   7.162   5.848
   64PMPE  H12R 3359   2.821   7.070   5.787
   64PMPE  H12S 3360   2.931   7.172   5.885
   64PMPE  C213 3361   2.785   7.281   5.761
   64PMPE  H13R 3362   2.814   7.374   5.815
   64PMPE  H13S 3363   2.675   7.283   5.749
   64PMPE  C214 3364   2.848   7.267   5.622
   64PMPE  H14R 3365   2.804   7.185   5.564
   64PMPE  H14S 3366   2.954   7.238   5.641
   64PMPE  C215 3367   2.842   7.390   5.531
   64PMPE  H15R 3368   2.745   7.433   5.503
   64PMPE  H15S 3369   2.899   7.364   5.438
   64PMPE  C216 3370   2.911   7.501   5.599
   64PMPE  H16R 3371   2.884   7.548   5.694
   64PMPE  H16S 3372   2.995   7.436   5.629
   64PMPE  H16T 3373   2.929   7.582   5.526
   64PMPE   C33 3374   3.298   7.400   6.691
   64PMPE   H3X 3375   3.255   7.304   6.726
   64PMPE   H3Y 3376   3.408   7.400   6.715
   64PMPE   C34 3377   3.291   7.409   6.540
   64PMPE   H4X 3378   3.340   7.502   6.505
   64PMPE   H4Y 3379   3.185   7.411   6.507
   64PMPE   C35 3380   3.360   7.289   6.476
   64PMPE   H5X 3381   3.314   7.197   6.515
   64PMPE   H5Y 3382   3.468   7.287   6.501
   64PMPE   C36 3383   3.340   7.296   6.326
   64PMPE   H6X 3384   3.395   7.383   6.286
   64PMPE   H6Y 3385   3.231   7.306   6.305
   64PMPE   C37 3386   3.392   7.176   6.252
   64PMPE   H7X 3387   3.328   7.095   6.288
   64PMPE   H7Y 3388   3.495   7.148   6.281
   64PMPE   C38 3389   3.390   7.200   6.102
   64PMPE   H8X 3390   3.391   7.104   6.052
   64PMPE   H8Y 3391   3.486   7.248   6.076
   64PMPE   C39 3392   3.270   7.276   6.044
   64PMPE   H9X 3393   3.253   7.369   6.101
   64PMPE   H9Y 3394   3.180   7.212   6.048
   64PMPE  C310 3395   3.288   7.319   5.899
   64PMPE  H10X 3396   3.365   7.400   5.893
   64PMPE  H10Y 3397   3.192   7.356   5.857
   64PMPE  C311 3398   3.335   7.203   5.816
   64PMPE  H11X 3399   3.273   7.112   5.819
   64PMPE  H11Y 3400   3.435   7.178   5.856
   64PMPE  C312 3401   3.345   7.245   5.673
   64PMPE  H12X 3402   3.432   7.309   5.666
   64PMPE  H12Y 3403   3.270   7.318   5.653
   64PMPE  C313 3404   3.320   7.135   5.574
   64PMPE  H13X 3405   3.220   7.092   5.593
   64PMPE  H13Y 3406   3.399   7.057   5.564
   64PMPE  C314 3407   3.310   7.191   5.440
   64PMPE  H14X 3408   3.419   7.187   5.412
   64PMPE  H14Y 3409   3.286   7.298   5.432
   64PMPE  C315 3410   3.222   7.112   5.345
   64PMPE  H15X 3411   3.256   7.006   5.345
   64PMPE  H15Y 3412   3.225   7.154   5.242
   64PMPE  C316 3413   3.078   7.133   5.341
   64PMPE  H16X 3414   3.063   7.240   5.311
   64PMPE  H16Y 3415   3.048   7.108   5.443
   64PMPE  H16Z 3416   3.041   7.064   5.260
   65PMPE     N 3417   2.966   0.614   7.675
   65PMPE   HN1 3418   3.013   0.664   7.754
   65PMPE   HN2 3419   2.874   0.578   7.709
   65PMPE   HN3 3420   3.031   0.536   7.648
   65PMPE   C12 3421   2.945   0.695   7.549
   65PMPE  H12A 3422   2.856   0.759   7.565
   65PMPE  H12B 3423   2.921   0.622   7.468
   65PMPE   C11 3424   3.066   0.776   7.500
   65PMPE  H11A 3425   3.158   0.714   7.491
   65PMPE  H11B 3426   3.087   0.859   7.571
   65PMPE     P 3427   3.139   0.908   7.284
   65PMPE   O13 3428   3.208   0.810   7.198
   65PMPE   O14 3429   3.222   0.983   7.382
   65PMPE   O11 3430   3.046   1.001   7.195
   65PMPE   O12 3431   3.030   0.831   7.374
   65PMPE    C1 3432   2.906   1.012   7.211
   65PMPE    HA 3433   2.878   1.117   7.188
   65PMPE    HB 3434   2.876   0.992   7.316
   65PMPE    C2 3435   2.819   0.923   7.118
   65PMPE    HS 3436   2.713   0.946   7.144
   65PMPE   O21 3437   2.850   0.783   7.139
   65PMPE   C21 3438   2.755   0.701   7.097
   65PMPE   O22 3439   2.648   0.739   7.054
   65PMPE   C22 3440   2.791   0.555   7.124
   65PMPE   H2R 3441   2.759   0.531   7.227
   65PMPE   H2S 3442   2.901   0.544   7.116
   65PMPE    C3 3443   2.836   0.963   6.970
   65PMPE    HX 3444   2.780   1.059   6.960
   65PMPE    HY 3445   2.791   0.888   6.901
   65PMPE   O31 3446   2.973   0.980   6.933
   65PMPE   C31 3447   2.977   1.035   6.815
   65PMPE   O32 3448   2.885   1.094   6.761
   65PMPE   C32 3449   3.112   1.021   6.757
   65PMPE   H2X 3450   3.169   0.929   6.780
   65PMPE   H2Y 3451   3.160   1.098   6.814
   65PMPE   C23 3452   2.720   0.457   7.026
   65PMPE   H3R 3453   2.611   0.456   7.046
   65PMPE   H3S 3454   2.758   0.354   7.045
   65PMPE   C24 3455   2.747   0.490   6.877
   65PMPE   H4R 3456   2.708   0.591   6.851
   65PMPE   H4S 3457   2.686   0.419   6.816
   65PMPE   C25 3458   2.898   0.485   6.844
   65PMPE   H5R 3459   2.937   0.394   6.896
   65PMPE   H5S 3460   2.947   0.576   6.884
   65PMPE   C26 3461   2.948   0.485   6.698
   65PMPE   H6R 3462   2.911   0.392   6.668
   65PMPE   H6S 3463   3.054   0.467   6.677
   65PMPE   C27 3464   2.891   0.589   6.602
   65PMPE   H7R 3465   2.905   0.691   6.639
   65PMPE   H7S 3466   2.786   0.586   6.639
   65PMPE   C28 3467   2.919   0.567   6.438
   65PMPE   H8R 3468   3.010   0.607   6.405
   65PMPE   H8S 3469   2.840   0.641   6.411
   65PMPE   C29 3470   2.908   0.424   6.340
   65PMPE   H9R 3471   2.829   0.347   6.326
   65PMPE  C217 3472   2.997   0.327   6.384
   65PMPE  H17R 3473   2.959   0.230   6.417
   65PMPE  H17S 3474   3.045   0.393   6.453
   65PMPE  C210 3475   2.983   0.356   6.237
   65PMPE  H10R 3476   2.917   0.290   6.174
   65PMPE  C211 3477   3.036   0.470   6.168
   65PMPE  H11R 3478   3.097   0.418   6.094
   65PMPE  H11S 3479   3.093   0.526   6.243
   65PMPE  C212 3480   2.933   0.568   6.108
   65PMPE  H12R 3481   3.000   0.637   6.053
   65PMPE  H12S 3482   2.884   0.630   6.187
   65PMPE  C213 3483   2.830   0.508   6.012
   65PMPE  H13R 3484   2.760   0.585   5.974
   65PMPE  H13S 3485   2.769   0.431   6.066
   65PMPE  C214 3486   2.885   0.445   5.886
   65PMPE  H14R 3487   2.797   0.400   5.834
   65PMPE  H14S 3488   2.952   0.365   5.920
   65PMPE  C215 3489   2.957   0.540   5.788
   65PMPE  H15R 3490   3.039   0.591   5.842
   65PMPE  H15S 3491   2.883   0.616   5.752
   65PMPE  C216 3492   3.011   0.476   5.660
   65PMPE  H16R 3493   3.030   0.547   5.578
   65PMPE  H16S 3494   3.107   0.425   5.678
   65PMPE  H16T 3495   2.936   0.402   5.623
   65PMPE   C33 3496   3.104   1.068   6.612
   65PMPE   H3X 3497   3.194   1.109   6.568
   65PMPE   H3Y 3498   3.054   1.167   6.602
   65PMPE   C34 3499   3.060   0.957   6.520
   65PMPE   H4X 3500   3.092   0.989   6.418
   65PMPE   H4Y 3501   2.951   0.961   6.514
   65PMPE   C35 3502   3.113   0.813   6.554
   65PMPE   H5X 3503   3.074   0.758   6.468
   65PMPE   H5Y 3504   3.088   0.770   6.652
   65PMPE   C36 3505   3.259   0.774   6.551
   65PMPE   H6X 3506   3.293   0.670   6.540
   65PMPE   H6Y 3507   3.318   0.824   6.633
   65PMPE   C37 3508   3.301   0.822   6.421
   65PMPE   H7X 3509   3.409   0.826   6.441
   65PMPE   H7Y 3510   3.271   0.925   6.451
   65PMPE   C38 3511   3.257   0.767   6.273
   65PMPE   H8X 3512   3.164   0.820   6.246
   65PMPE   H8Y 3513   3.237   0.662   6.300
   65PMPE   C39 3514   3.341   0.728   6.137
   65PMPE   H9X 3515   3.306   0.641   6.081
   65PMPE   H9Y 3516   3.440   0.694   6.168
   65PMPE  C310 3517   3.354   0.811   6.000
   65PMPE  H10X 3518   3.438   0.870   5.953
   65PMPE  H10Y 3519   3.398   0.854   6.084
   65PMPE  C311 3520   3.238   0.880   5.925
   65PMPE  H11X 3521   3.204   0.792   5.868
   65PMPE  H11Y 3522   3.289   0.951   5.853
   65PMPE  C312 3523   3.119   0.956   5.995
   65PMPE  H12X 3524   3.109   0.977   6.102
   65PMPE  H12Y 3525   3.039   0.882   5.994
   65PMPE  C313 3526   3.096   1.098   5.941
   65PMPE  H13X 3527   3.179   1.173   5.941
   65PMPE  H13Y 3528   3.015   1.152   5.996
   65PMPE  C314 3529   3.066   1.068   5.799
   65PMPE  H14X 3530   3.139   1.013   5.739
   65PMPE  H14Y 3531   3.083   1.171   5.758
   65PMPE  C315 3532   2.931   0.987   5.794
   65PMPE  H15X 3533   2.855   1.051   5.848
   65PMPE  H15Y 3534   2.931   0.896   5.854
   65PMPE  C316 3535   2.890   0.913   5.663
   65PMPE  H16X 3536   2.961   0.948   5.585
   65PMPE  H16Y 3537   2.851   0.961   5.575
   65PMPE  H16Z 3538   2.778   0.904   5.664
   66PMPE     N 3539   6.737   6.944   7.507
   66PMPE   HN1 3540   6.837   6.920   7.521
   66PMPE   HN2 3541   6.718   6.959   7.406
   66PMPE   HN3 3542   6.714   7.031   7.561
   66PMPE   C12 3543   6.652   6.834   7.567
   66PMPE  H12A 3544   6.658   6.849   7.677
   66PMPE  H12B 3545   6.695   6.736   7.540
   66PMPE   C11 3546   6.504   6.835   7.527
   66PMPE  H11A 3547   6.457   6.937   7.532
   66PMPE  H11B 3548   6.457   6.776   7.609
   66PMPE     P 3549   6.364   6.809   7.303
   66PMPE   O13 3550   6.246   6.839   7.385
   66PMPE   O14 3551   6.355   6.709   7.195
   66PMPE   O11 3552   6.418   6.943   7.243
   66PMPE   O12 3553   6.485   6.770   7.402
   66PMPE    C1 3554   6.550   6.967   7.197
   66PMPE    HA 3555   6.623   6.914   7.261
   66PMPE    HB 3556   6.569   7.076   7.212
   66PMPE    C2 3557   6.573   6.932   7.044
   66PMPE    HS 3558   6.655   6.998   7.007
   66PMPE   O21 3559   6.457   6.950   6.963
   66PMPE   C21 3560   6.404   7.070   6.966
   66PMPE   O22 3561   6.455   7.171   7.011
   66PMPE   C22 3562   6.268   7.063   6.897
   66PMPE   H2R 3563   6.222   7.158   6.933
   66PMPE   H2S 3564   6.204   6.982   6.934
   66PMPE    C3 3565   6.623   6.787   7.014
   66PMPE    HX 3566   6.543   6.713   7.039
   66PMPE    HY 3567   6.709   6.764   7.080
   66PMPE   O31 3568   6.667   6.780   6.876
   66PMPE   C31 3569   6.586   6.721   6.786
   66PMPE   O32 3570   6.484   6.662   6.812
   66PMPE   C32 3571   6.646   6.739   6.645
   66PMPE   H2X 3572   6.756   6.728   6.653
   66PMPE   H2Y 3573   6.620   6.841   6.609
   66PMPE   C23 3574   6.274   7.055   6.742
   66PMPE   H3R 3575   6.351   7.126   6.702
   66PMPE   H3S 3576   6.170   7.078   6.707
   66PMPE   C24 3577   6.291   6.923   6.670
   66PMPE   H4R 3578   6.244   6.850   6.738
   66PMPE   H4S 3579   6.400   6.905   6.665
   66PMPE   C25 3580   6.227   6.914   6.528
   66PMPE   H5R 3581   6.117   6.930   6.531
   66PMPE   H5S 3582   6.246   6.810   6.494
   66PMPE   C26 3583   6.290   6.998   6.418
   66PMPE   H6R 3584   6.272   7.104   6.425
   66PMPE   H6S 3585   6.248   6.986   6.316
   66PMPE   C27 3586   6.438   6.976   6.414
   66PMPE   H7R 3587   6.464   6.870   6.398
   66PMPE   H7S 3588   6.491   7.014   6.506
   66PMPE   C28 3589   6.478   7.046   6.291
   66PMPE   H8R 3590   6.469   7.153   6.308
   66PMPE   H8S 3591   6.413   7.037   6.203
   66PMPE   C29 3592   6.613   7.006   6.250
   66PMPE   H9R 3593   6.667   6.917   6.287
   66PMPE  C217 3594   6.679   7.108   6.333
   66PMPE  H17R 3595   6.760   7.062   6.384
   66PMPE  H17S 3596   6.628   7.191   6.378
   66PMPE  C210 3597   6.689   7.108   6.182
   66PMPE  H10R 3598   6.778   7.079   6.124
   66PMPE  C211 3599   6.604   7.195   6.114
   66PMPE  H11R 3600   6.640   7.300   6.136
   66PMPE  H11S 3601   6.498   7.190   6.121
   66PMPE  C212 3602   6.601   7.139   5.975
   66PMPE  H12R 3603   6.711   7.148   5.953
   66PMPE  H12S 3604   6.519   7.196   5.924
   66PMPE  C213 3605   6.586   7.018   5.893
   66PMPE  H13R 3606   6.480   7.004   5.927
   66PMPE  H13S 3607   6.669   6.959   5.936
   66PMPE  C214 3608   6.602   7.034   5.734
   66PMPE  H14R 3609   6.501   7.051   5.691
   66PMPE  H14S 3610   6.633   6.932   5.714
   66PMPE  C215 3611   6.714   7.102   5.644
   66PMPE  H15R 3612   6.810   7.105   5.686
   66PMPE  H15S 3613   6.742   7.208   5.621
   66PMPE  C216 3614   6.682   7.088   5.509
   66PMPE  H16R 3615   6.708   6.989   5.482
   66PMPE  H16S 3616   6.574   7.105   5.493
   66PMPE  H16T 3617   6.743   7.171   5.455
   66PMPE   C33 3618   6.597   6.632   6.544
   66PMPE   H3X 3619   6.488   6.641   6.525
   66PMPE   H3Y 3620   6.615   6.532   6.590
   66PMPE   C34 3621   6.668   6.633   6.407
   66PMPE   H4X 3622   6.778   6.642   6.423
   66PMPE   H4Y 3623   6.639   6.721   6.347
   66PMPE   C35 3624   6.633   6.505   6.328
   66PMPE   H5X 3625   6.662   6.416   6.387
   66PMPE   H5Y 3626   6.690   6.501   6.233
   66PMPE   C36 3627   6.486   6.498   6.287
   66PMPE   H6X 3628   6.420   6.511   6.376
   66PMPE   H6Y 3629   6.466   6.397   6.246
   66PMPE   C37 3630   6.447   6.609   6.188
   66PMPE   H7X 3631   6.511   6.610   6.096
   66PMPE   H7Y 3632   6.463   6.706   6.239
   66PMPE   C38 3633   6.300   6.606   6.149
   66PMPE   H8X 3634   6.241   6.631   6.240
   66PMPE   H8Y 3635   6.269   6.505   6.113
   66PMPE   C39 3636   6.270   6.707   6.040
   66PMPE   H9X 3637   6.310   6.670   5.944
   66PMPE   H9Y 3638   6.322   6.803   6.064
   66PMPE  C310 3639   6.122   6.740   6.025
   66PMPE  H10X 3640   6.079   6.767   6.125
   66PMPE  H10Y 3641   6.062   6.653   5.991
   66PMPE  C311 3642   6.112   6.863   5.934
   66PMPE  H11X 3643   6.138   6.954   5.992
   66PMPE  H11Y 3644   6.008   6.874   5.911
   66PMPE  C312 3645   6.184   6.868   5.800
   66PMPE  H12X 3646   6.291   6.854   5.824
   66PMPE  H12Y 3647   6.169   6.968   5.753
   66PMPE  C313 3648   6.150   6.759   5.697
   66PMPE  H13X 3649   6.146   6.661   5.752
   66PMPE  H13Y 3650   6.222   6.769   5.614
   66PMPE  C314 3651   6.023   6.765   5.621
   66PMPE  H14X 3652   5.987   6.781   5.719
   66PMPE  H14Y 3653   5.968   6.673   5.594
   66PMPE  C315 3654   6.008   6.874   5.517
   66PMPE  H15X 3655   6.059   6.833   5.427
   66PMPE  H15Y 3656   6.057   6.972   5.540
   66PMPE  C316 3657   5.865   6.901   5.475
   66PMPE  H16X 3658   5.787   6.930   5.544
   66PMPE  H16Y 3659   5.819   6.823   5.410
   66PMPE  H16Z 3660   5.873   7.001   5.438
   67PMPE     N 3661   1.388   1.997   7.613
   67PMPE   HN1 3662   1.466   2.053   7.574
   67PMPE   HN2 3663   1.402   1.981   7.716
   67PMPE   HN3 3664   1.386   1.908   7.562
   67PMPE   C12 3665   1.260   2.074   7.597
   67PMPE  H12A 3666   1.251   2.141   7.685
   67PMPE  H12B 3667   1.175   2.003   7.598
   67PMPE   C11 3668   1.261   2.160   7.469
   67PMPE  H11A 3669   1.355   2.219   7.466
   67PMPE  H11B 3670   1.182   2.239   7.474
   67PMPE     P 3671   1.106   2.038   7.296
   67PMPE   O13 3672   1.014   2.154   7.315
   67PMPE   O14 3673   1.078   1.910   7.367
   67PMPE   O11 3674   1.127   2.012   7.143
   67PMPE   O12 3675   1.249   2.081   7.351
   67PMPE    C1 3676   1.197   2.097   7.054
   67PMPE    HA 3677   1.271   2.035   6.999
   67PMPE    HB 3678   1.253   2.178   7.107
   67PMPE    C2 3679   1.105   2.157   6.943
   67PMPE    HS 3680   1.028   2.220   6.993
   67PMPE   O21 3681   1.040   2.047   6.875
   67PMPE   C21 3682   0.939   2.079   6.796
   67PMPE   O22 3683   0.904   2.191   6.767
   67PMPE   C22 3684   0.865   1.951   6.758
   67PMPE   H2R 3685   0.756   1.975   6.756
   67PMPE   H2S 3686   0.881   1.871   6.833
   67PMPE    C3 3687   1.189   2.245   6.846
   67PMPE    HX 3688   1.267   2.300   6.902
   67PMPE    HY 3689   1.122   2.321   6.798
   67PMPE   O31 3690   1.254   2.161   6.750
   67PMPE   C31 3691   1.273   2.218   6.633
   67PMPE   O32 3692   1.260   2.337   6.607
   67PMPE   C32 3693   1.334   2.116   6.545
   67PMPE   H2X 3694   1.295   2.122   6.442
   67PMPE   H2Y 3695   1.334   2.013   6.585
   67PMPE   C23 3696   0.898   1.903   6.617
   67PMPE   H3R 3697   0.896   1.988   6.546
   67PMPE   H3S 3698   0.817   1.831   6.589
   67PMPE   C24 3699   1.029   1.827   6.603
   67PMPE   H4R 3700   1.034   1.746   6.680
   67PMPE   H4S 3701   1.116   1.894   6.620
   67PMPE   C25 3702   1.036   1.773   6.460
   67PMPE   H5R 3703   1.030   1.853   6.386
   67PMPE   H5S 3704   0.935   1.730   6.441
   67PMPE   C26 3705   1.160   1.681   6.440
   67PMPE   H6R 3706   1.155   1.599   6.516
   67PMPE   H6S 3707   1.255   1.729   6.462
   67PMPE   C27 3708   1.166   1.605   6.306
   67PMPE   H7R 3709   1.067   1.568   6.313
   67PMPE   H7S 3710   1.233   1.516   6.303
   67PMPE   C28 3711   1.134   1.668   6.172
   67PMPE   H8R 3712   1.039   1.723   6.185
   67PMPE   H8S 3713   1.116   1.590   6.094
   67PMPE   C29 3714   1.251   1.753   6.139
   67PMPE   H9R 3715   1.352   1.709   6.144
   67PMPE  C217 3716   1.226   1.887   6.207
   67PMPE  H17R 3717   1.312   1.913   6.261
   67PMPE  H17S 3718   1.126   1.914   6.234
   67PMPE  C210 3719   1.238   1.878   6.058
   67PMPE  H10R 3720   1.332   1.915   6.015
   67PMPE  C211 3721   1.113   1.886   5.974
   67PMPE  H11R 3722   1.099   1.989   5.937
   67PMPE  H11S 3723   1.021   1.857   6.029
   67PMPE  C212 3724   1.145   1.791   5.859
   67PMPE  H12R 3725   1.179   1.694   5.903
   67PMPE  H12S 3726   1.231   1.835   5.803
   67PMPE  C213 3727   1.029   1.762   5.767
   67PMPE  H13R 3728   0.989   1.857   5.725
   67PMPE  H13S 3729   0.947   1.711   5.823
   67PMPE  C214 3730   1.067   1.672   5.652
   67PMPE  H14R 3731   1.077   1.566   5.686
   67PMPE  H14S 3732   1.167   1.700   5.610
   67PMPE  C215 3733   0.961   1.684   5.545
   67PMPE  H15R 3734   0.977   1.772   5.477
   67PMPE  H15S 3735   0.855   1.676   5.578
   67PMPE  C216 3736   0.975   1.567   5.464
   67PMPE  H16R 3737   0.899   1.562   5.383
   67PMPE  H16S 3738   1.079   1.578   5.423
   67PMPE  H16T 3739   0.970   1.471   5.519
   67PMPE   C33 3740   1.476   2.154   6.541
   67PMPE   H3X 3741   1.516   2.159   6.642
   67PMPE   H3Y 3742   1.486   2.257   6.498
   67PMPE   C34 3743   1.550   2.052   6.460
   67PMPE   H4X 3744   1.599   1.957   6.484
   67PMPE   H4Y 3745   1.640   2.097   6.490
   67PMPE   C35 3746   1.519   2.069   6.316
   67PMPE   H5X 3747   1.419   2.045   6.292
   67PMPE   H5Y 3748   1.590   2.008   6.257
   67PMPE   C36 3749   1.509   2.211   6.275
   67PMPE   H6X 3750   1.514   2.209   6.166
   67PMPE   H6Y 3751   1.586   2.275   6.318
   67PMPE   C37 3752   1.396   2.280   6.221
   67PMPE   H7X 3753   1.461   2.372   6.205
   67PMPE   H7Y 3754   1.342   2.284   6.316
   67PMPE   C38 3755   1.327   2.213   6.098
   67PMPE   H8X 3756   1.266   2.136   6.146
   67PMPE   H8Y 3757   1.399   2.169   6.025
   67PMPE   C39 3758   1.242   2.304   6.016
   67PMPE   H9X 3759   1.311   2.371   5.957
   67PMPE   H9Y 3760   1.171   2.354   6.087
   67PMPE  C310 3761   1.161   2.264   5.903
   67PMPE  H10X 3762   1.108   2.359   5.872
   67PMPE  H10Y 3763   1.090   2.189   5.940
   67PMPE  C311 3764   1.255   2.216   5.798
   67PMPE  H11X 3765   1.329   2.144   5.838
   67PMPE  H11Y 3766   1.318   2.302   5.761
   67PMPE  C312 3767   1.169   2.147   5.697
   67PMPE  H12X 3768   1.086   2.207   5.656
   67PMPE  H12Y 3769   1.107   2.066   5.738
   67PMPE  C313 3770   1.252   2.109   5.580
   67PMPE  H13X 3771   1.335   2.042   5.609
   67PMPE  H13Y 3772   1.308   2.196   5.541
   67PMPE  C314 3773   1.150   2.053   5.483
   67PMPE  H14X 3774   1.087   2.128   5.429
   67PMPE  H14Y 3775   1.094   1.967   5.523
   67PMPE  C315 3776   1.229   1.996   5.380
   67PMPE  H15X 3777   1.169   1.928   5.316
   67PMPE  H15Y 3778   1.303   1.936   5.438
   67PMPE  C316 3779   1.284   2.112   5.303
   67PMPE  H16X 3780   1.231   2.159   5.221
   67PMPE  H16Y 3781   1.312   2.080   5.206
   67PMPE  H16Z 3782   1.376   2.161   5.347
   68PMPE     N 3783   6.266   7.867   7.406
   68PMPE   HN1 3784   6.333   7.869   7.486
   68PMPE   HN2 3785   6.290   7.784   7.348
   68PMPE   HN3 3786   6.281   7.953   7.351
   68PMPE   C12 3787   6.123   7.845   7.450
   68PMPE  H12A 3788   6.057   7.874   7.365
   68PMPE  H12B 3789   6.103   7.911   7.537
   68PMPE   C11 3790   6.101   7.697   7.481
   68PMPE  H11A 3791   5.999   7.682   7.523
   68PMPE  H11B 3792   6.176   7.664   7.558
   68PMPE     P 3793   6.094   7.464   7.368
   68PMPE   O13 3794   5.961   7.443   7.429
   68PMPE   O14 3795   6.214   7.409   7.433
   68PMPE   O11 3796   6.091   7.425   7.214
   68PMPE   O12 3797   6.117   7.622   7.361
   68PMPE    C1 3798   5.988   7.451   7.118
   68PMPE    HA 3799   5.913   7.522   7.159
   68PMPE    HB 3800   5.935   7.357   7.091
   68PMPE    C2 3801   6.040   7.514   6.985
   68PMPE    HS 3802   5.951   7.541   6.923
   68PMPE   O21 3803   6.120   7.422   6.910
   68PMPE   C21 3804   6.133   7.444   6.779
   68PMPE   O22 3805   6.079   7.529   6.712
   68PMPE   C22 3806   6.211   7.331   6.726
   68PMPE   H2R 3807   6.155   7.252   6.780
   68PMPE   H2S 3808   6.318   7.329   6.757
   68PMPE    C3 3809   6.121   7.641   7.019
   68PMPE    HX 3810   6.212   7.612   7.077
   68PMPE    HY 3811   6.061   7.704   7.086
   68PMPE   O31 3812   6.147   7.720   6.902
   68PMPE   C31 3813   6.269   7.713   6.859
   68PMPE   O32 3814   6.363   7.662   6.917
   68PMPE   C32 3815   6.273   7.774   6.720
   68PMPE   H2X 3816   6.316   7.877   6.729
   68PMPE   H2Y 3817   6.174   7.779   6.672
   68PMPE   C23 3818   6.184   7.297   6.580
   68PMPE   H3R 3819   6.077   7.278   6.559
   68PMPE   H3S 3820   6.232   7.201   6.566
   68PMPE   C24 3821   6.248   7.386   6.478
   68PMPE   H4R 3822   6.233   7.486   6.513
   68PMPE   H4S 3823   6.194   7.379   6.382
   68PMPE   C25 3824   6.393   7.351   6.451
   68PMPE   H5R 3825   6.366   7.264   6.393
   68PMPE   H5S 3826   6.453   7.318   6.538
   68PMPE   C26 3827   6.464   7.443   6.352
   68PMPE   H6R 3828   6.566   7.407   6.345
   68PMPE   H6S 3829   6.472   7.546   6.388
   68PMPE   C27 3830   6.405   7.436   6.211
   68PMPE   H7R 3831   6.298   7.430   6.206
   68PMPE   H7S 3832   6.432   7.341   6.173
   68PMPE   C28 3833   6.450   7.538   6.111
   68PMPE   H8R 3834   6.410   7.637   6.137
   68PMPE   H8S 3835   6.424   7.513   6.005
   68PMPE   C29 3836   6.594   7.547   6.121
   68PMPE   H9R 3837   6.633   7.596   6.212
   68PMPE  C217 3838   6.613   7.616   5.998
   68PMPE  H17R 3839   6.697   7.643   6.034
   68PMPE  H17S 3840   6.598   7.700   5.933
   68PMPE  C210 3841   6.700   7.509   6.012
   68PMPE  H10R 3842   6.802   7.498   6.053
   68PMPE  C211 3843   6.686   7.507   5.866
   68PMPE  H11R 3844   6.777   7.502   5.802
   68PMPE  H11S 3845   6.587   7.526   5.815
   68PMPE  C212 3846   6.649   7.383   5.902
   68PMPE  H12R 3847   6.551   7.374   5.954
   68PMPE  H12S 3848   6.726   7.327   5.964
   68PMPE  C213 3849   6.658   7.325   5.778
   68PMPE  H13R 3850   6.679   7.231   5.803
   68PMPE  H13S 3851   6.766   7.322   5.754
   68PMPE  C214 3852   6.551   7.336   5.672
   68PMPE  H14R 3853   6.578   7.287   5.580
   68PMPE  H14S 3854   6.565   7.440   5.644
   68PMPE  C215 3855   6.410   7.278   5.674
   68PMPE  H15R 3856   6.385   7.223   5.765
   68PMPE  H15S 3857   6.391   7.209   5.587
   68PMPE  C216 3858   6.321   7.398   5.662
   68PMPE  H16R 3859   6.221   7.374   5.698
   68PMPE  H16S 3860   6.370   7.482   5.717
   68PMPE  H16T 3861   6.308   7.424   5.556
   68PMPE   C33 3862   6.348   7.683   6.622
   68PMPE   H3X 3863   6.346   7.579   6.604
   68PMPE   H3Y 3864   6.421   7.652   6.692
   68PMPE   C34 3865   6.396   7.761   6.505
   68PMPE   H4X 3866   6.483   7.729   6.445
   68PMPE   H4Y 3867   6.427   7.840   6.572
   68PMPE   C35 3868   6.298   7.850   6.442
   68PMPE   H5X 3869   6.275   7.939   6.506
   68PMPE   H5Y 3870   6.216   7.781   6.418
   68PMPE   C36 3871   6.339   7.892   6.310
   68PMPE   H6X 3872   6.372   7.810   6.245
   68PMPE   H6Y 3873   6.429   7.946   6.314
   68PMPE   C37 3874   6.240   7.989   6.258
   68PMPE   H7X 3875   6.268   8.091   6.290
   68PMPE   H7Y 3876   6.141   7.987   6.304
   68PMPE   C38 3877   6.240   7.969   6.110
   68PMPE   H8X 3878   6.320   7.980   6.044
   68PMPE   H8Y 3879   6.220   8.069   6.081
   68PMPE   C39 3880   6.199   7.842   6.041
   68PMPE   H9X 3881   6.158   7.785   6.126
   68PMPE   H9Y 3882   6.289   7.795   5.995
   68PMPE  C310 3883   6.095   7.847   5.929
   68PMPE  H10X 3884   6.009   7.873   5.985
   68PMPE  H10Y 3885   6.064   7.745   5.904
   68PMPE  C311 3886   6.110   7.935   5.803
   68PMPE  H11X 3887   6.137   8.042   5.811
   68PMPE  H11Y 3888   6.011   7.940   5.752
   68PMPE  C312 3889   6.206   7.872   5.711
   68PMPE  H12X 3890   6.197   7.763   5.729
   68PMPE  H12Y 3891   6.307   7.907   5.743
   68PMPE  C313 3892   6.168   7.903   5.567
   68PMPE  H13X 3893   6.241   7.854   5.507
   68PMPE  H13Y 3894   6.174   8.011   5.541
   68PMPE  C314 3895   6.035   7.840   5.522
   68PMPE  H14X 3896   6.021   7.869   5.416
   68PMPE  H14Y 3897   5.950   7.882   5.578
   68PMPE  C315 3898   6.024   7.688   5.533
   68PMPE  H15X 3899   5.921   7.662   5.502
   68PMPE  H15Y 3900   6.042   7.650   5.637
   68PMPE  C316 3901   6.114   7.614   5.438
   68PMPE  H16X 3902   6.098   7.654   5.336
   68PMPE  H16Y 3903   6.103   7.504   5.437
   68PMPE  H16Z 3904   6.216   7.638   5.469
   69PMPE     N 3905   3.802   0.180   7.577
   69PMPE   HN1 3906   3.819   0.120   7.658
   69PMPE   HN2 3907   3.880   0.247   7.565
   69PMPE   HN3 3908   3.713   0.233   7.592
   69PMPE   C12 3909   3.782   0.099   7.452
   69PMPE  H12A 3910   3.766  -0.007   7.481
   69PMPE  H12B 3911   3.873   0.108   7.390
   69PMPE   C11 3912   3.663   0.154   7.374
   69PMPE  H11A 3913   3.668   0.103   7.274
   69PMPE  H11B 3914   3.674   0.264   7.360
   69PMPE     P 3915   3.411   0.156   7.346
   69PMPE   O13 3916   3.301   0.213   7.426
   69PMPE   O14 3917   3.386   0.032   7.269
   69PMPE   O11 3918   3.465   0.270   7.248
   69PMPE   O12 3919   3.539   0.131   7.440
   69PMPE    C1 3920   3.396   0.300   7.125
   69PMPE    HA 3921   3.363   0.406   7.123
   69PMPE    HB 3922   3.305   0.238   7.109
   69PMPE    C2 3923   3.488   0.270   7.004
   69PMPE    HS 3924   3.435   0.300   6.911
   69PMPE   O21 3925   3.522   0.132   7.002
   69PMPE   C21 3926   3.432   0.043   6.965
   69PMPE   O22 3927   3.320   0.067   6.922
   69PMPE   C22 3928   3.504  -0.090   6.957
   69PMPE   H2R 3929   3.435  -0.175   6.945
   69PMPE   H2S 3930   3.561  -0.105   7.051
   69PMPE    C3 3931   3.622   0.348   7.013
   69PMPE    HX 3932   3.678   0.302   7.098
   69PMPE    HY 3933   3.608   0.456   7.036
   69PMPE   O31 3934   3.700   0.325   6.895
   69PMPE   C31 3935   3.678   0.407   6.795
   69PMPE   O32 3936   3.630   0.520   6.803
   69PMPE   C32 3937   3.716   0.335   6.666
   69PMPE   H2X 3938   3.683   0.229   6.673
   69PMPE   H2Y 3939   3.826   0.337   6.659
   69PMPE   C23 3940   3.607  -0.085   6.843
   69PMPE   H3R 3941   3.670  -0.174   6.854
   69PMPE   H3S 3942   3.677   0.001   6.856
   69PMPE   C24 3943   3.548  -0.077   6.702
   69PMPE   H4R 3944   3.513   0.027   6.684
   69PMPE   H4S 3945   3.461  -0.145   6.687
   69PMPE   C25 3946   3.655  -0.106   6.598
   69PMPE   H5R 3947   3.691  -0.207   6.601
   69PMPE   H5S 3948   3.750  -0.055   6.622
   69PMPE   C26 3949   3.602  -0.092   6.457
   69PMPE   H6R 3950   3.570   0.014   6.446
   69PMPE   H6S 3951   3.515  -0.159   6.441
   69PMPE   C27 3952   3.709  -0.119   6.355
   69PMPE   H7R 3953   3.667  -0.105   6.253
   69PMPE   H7S 3954   3.760  -0.216   6.350
   69PMPE   C28 3955   3.823  -0.032   6.390
   69PMPE   H8R 3956   3.896  -0.075   6.464
   69PMPE   H8S 3957   3.793   0.072   6.413
   69PMPE   C29 3958   3.893  -0.031   6.267
   69PMPE   H9R 3959   3.981  -0.090   6.283
   69PMPE  C217 3960   3.966   0.094   6.286
   69PMPE  H17R 3961   4.073   0.068   6.277
   69PMPE  H17S 3962   3.939   0.191   6.318
   69PMPE  C210 3963   3.866   0.070   6.163
   69PMPE  H10R 3964   3.914   0.126   6.090
   69PMPE  C211 3965   3.745   0.149   6.135
   69PMPE  H11R 3966   3.776   0.255   6.158
   69PMPE  H11S 3967   3.665   0.104   6.194
   69PMPE  C212 3968   3.708   0.148   5.981
   69PMPE  H12R 3969   3.664   0.049   5.958
   69PMPE  H12S 3970   3.793   0.159   5.909
   69PMPE  C213 3971   3.606   0.261   5.965
   69PMPE  H13R 3972   3.659   0.354   5.985
   69PMPE  H13S 3973   3.529   0.256   6.043
   69PMPE  C214 3974   3.533   0.283   5.834
   69PMPE  H14R 3975   3.439   0.341   5.847
   69PMPE  H14S 3976   3.512   0.187   5.783
   69PMPE  C215 3977   3.613   0.375   5.752
   69PMPE  H15R 3978   3.715   0.333   5.749
   69PMPE  H15S 3979   3.628   0.477   5.788
   69PMPE  C216 3980   3.549   0.401   5.622
   69PMPE  H16R 3981   3.461   0.465   5.608
   69PMPE  H16S 3982   3.630   0.467   5.585
   69PMPE  H16T 3983   3.536   0.310   5.559
   69PMPE   C33 3984   3.649   0.400   6.543
   69PMPE   H3X 3985   3.703   0.367   6.451
   69PMPE   H3Y 3986   3.658   0.511   6.547
   69PMPE   C34 3987   3.504   0.355   6.527
   69PMPE   H4X 3988   3.451   0.350   6.625
   69PMPE   H4Y 3989   3.503   0.253   6.483
   69PMPE   C35 3990   3.422   0.447   6.437
   69PMPE   H5X 3991   3.450   0.429   6.331
   69PMPE   H5Y 3992   3.439   0.553   6.464
   69PMPE   C36 3993   3.275   0.418   6.451
   69PMPE   H6X 3994   3.226   0.471   6.368
   69PMPE   H6Y 3995   3.231   0.466   6.542
   69PMPE   C37 3996   3.249   0.265   6.451
   69PMPE   H7X 3997   3.155   0.234   6.498
   69PMPE   H7Y 3998   3.300   0.214   6.532
   69PMPE   C38 3999   3.259   0.203   6.310
   69PMPE   H8X 4000   3.366   0.211   6.281
   69PMPE   H8Y 4001   3.202   0.256   6.230
   69PMPE   C39 4002   3.216   0.056   6.308
   69PMPE   H9X 4003   3.109   0.046   6.338
   69PMPE   H9Y 4004   3.279   0.005   6.384
   69PMPE  C310 4005   3.232  -0.009   6.171
   69PMPE  H10X 4006   3.328   0.023   6.125
   69PMPE  H10Y 4007   3.152   0.030   6.104
   69PMPE  C311 4008   3.219  -0.163   6.173
   69PMPE  H11X 4009   3.138  -0.189   6.100
   69PMPE  H11Y 4010   3.182  -0.196   6.273
   69PMPE  C312 4011   3.350  -0.238   6.146
   69PMPE  H12X 4012   3.335  -0.348   6.159
   69PMPE  H12Y 4013   3.425  -0.205   6.221
   69PMPE  C313 4014   3.412  -0.216   6.008
   69PMPE  H13X 4015   3.496  -0.289   5.996
   69PMPE  H13Y 4016   3.454  -0.113   6.003
   69PMPE  C314 4017   3.314  -0.234   5.892
   69PMPE  H14X 4018   3.264  -0.137   5.873
   69PMPE  H14Y 4019   3.238  -0.311   5.920
   69PMPE  C315 4020   3.381  -0.277   5.763
   69PMPE  H15X 4021   3.306  -0.291   5.683
   69PMPE  H15Y 4022   3.428  -0.376   5.781
   69PMPE  C316 4023   3.485  -0.173   5.720
   69PMPE  H16X 4024   3.517  -0.191   5.615
   69PMPE  H16Y 4025   3.572  -0.186   5.784
   69PMPE  H16Z 4026   3.454  -0.068   5.731
   70PMPE     N 4027   7.562   3.641   7.714
   70PMPE   HN1 4028   7.549   3.741   7.742
   70PMPE   HN2 4029   7.481   3.590   7.755
   70PMPE   HN3 4030   7.652   3.609   7.755
   70PMPE   C12 4031   7.562   3.637   7.564
   70PMPE  H12A 4032   7.473   3.695   7.531
   70PMPE  H12B 4033   7.550   3.532   7.530
   70PMPE   C11 4034   7.692   3.699   7.511
   70PMPE  H11A 4035   7.781   3.647   7.553
   70PMPE  H11B 4036   7.695   3.807   7.540
   70PMPE     P 4037   7.813   3.731   7.275
   70PMPE   O13 4038   7.914   3.623   7.268
   70PMPE   O14 4039   7.860   3.864   7.321
   70PMPE   O11 4040   7.741   3.740   7.134
   70PMPE   O12 4041   7.693   3.685   7.371
   70PMPE    C1 4042   7.640   3.643   7.102
   70PMPE    HA 4043   7.547   3.697   7.073
   70PMPE    HB 4044   7.611   3.577   7.186
   70PMPE    C2 4045   7.678   3.548   6.986
   70PMPE    HS 4046   7.610   3.457   6.995
   70PMPE   O21 4047   7.815   3.522   6.968
   70PMPE   C21 4048   7.844   3.418   7.030
   70PMPE   O22 4049   7.767   3.355   7.101
   70PMPE   C22 4050   7.981   3.385   6.979
   70PMPE   H2R 4051   8.041   3.385   7.072
   70PMPE   H2S 4052   8.032   3.471   6.935
   70PMPE    C3 4053   7.644   3.602   6.856
   70PMPE    HX 4054   7.544   3.621   6.887
   70PMPE    HY 4055   7.633   3.523   6.775
   70PMPE   O31 4056   7.707   3.732   6.832
   70PMPE   C31 4057   7.704   3.755   6.703
   70PMPE   O32 4058   7.678   3.664   6.626
   70PMPE   C32 4059   7.727   3.903   6.662
   70PMPE   H2X 4060   7.831   3.913   6.698
   70PMPE   H2Y 4061   7.664   3.977   6.717
   70PMPE   C23 4062   7.986   3.265   6.879
   70PMPE   H3R 4063   7.932   3.172   6.905
   70PMPE   H3S 4064   8.095   3.245   6.879
   70PMPE   C24 4065   7.967   3.294   6.734
   70PMPE   H4R 4066   7.863   3.332   6.729
   70PMPE   H4S 4067   7.974   3.202   6.671
   70PMPE   C25 4068   8.072   3.395   6.691
   70PMPE   H5R 4069   8.167   3.380   6.749
   70PMPE   H5S 4070   8.032   3.495   6.720
   70PMPE   C26 4071   8.106   3.392   6.543
   70PMPE   H6R 4072   8.158   3.297   6.517
   70PMPE   H6S 4073   8.178   3.474   6.521
   70PMPE   C27 4074   7.980   3.411   6.458
   70PMPE   H7R 4075   7.936   3.511   6.479
   70PMPE   H7S 4076   7.904   3.336   6.488
   70PMPE   C28 4077   8.011   3.409   6.308
   70PMPE   H8R 4078   8.050   3.308   6.280
   70PMPE   H8S 4079   8.085   3.485   6.280
   70PMPE   C29 4080   7.888   3.447   6.231
   70PMPE   H9R 4081   7.820   3.530   6.260
   70PMPE  C217 4082   7.813   3.324   6.256
   70PMPE  H17R 4083   7.708   3.337   6.271
   70PMPE  H17S 4084   7.868   3.234   6.282
   70PMPE  C210 4085   7.849   3.369   6.111
   70PMPE  H10R 4086   7.758   3.400   6.057
   70PMPE  C211 4087   7.958   3.288   6.034
   70PMPE  H11R 4088   7.927   3.229   5.946
   70PMPE  H11S 4089   7.997   3.204   6.095
   70PMPE  C212 4090   8.051   3.384   5.967
   70PMPE  H12R 4091   8.134   3.327   5.920
   70PMPE  H12S 4092   8.093   3.440   6.051
   70PMPE  C213 4093   7.984   3.491   5.875
   70PMPE  H13R 4094   8.058   3.566   5.844
   70PMPE  H13S 4095   7.891   3.530   5.924
   70PMPE  C214 4096   7.915   3.458   5.748
   70PMPE  H14R 4097   7.846   3.520   5.689
   70PMPE  H14S 4098   7.858   3.379   5.793
   70PMPE  C215 4099   8.001   3.419   5.638
   70PMPE  H15R 4100   7.946   3.411   5.544
   70PMPE  H15S 4101   7.982   3.317   5.665
   70PMPE  C216 4102   8.140   3.486   5.617
   70PMPE  H16R 4103   8.205   3.483   5.705
   70PMPE  H16S 4104   8.206   3.446   5.537
   70PMPE  H16T 4105   8.116   3.587   5.584
   70PMPE   C33 4106   7.733   3.927   6.507
   70PMPE   H3X 4107   7.766   4.030   6.487
   70PMPE   H3Y 4108   7.638   3.933   6.451
   70PMPE   C34 4109   7.817   3.819   6.434
   70PMPE   H4X 4110   7.789   3.812   6.327
   70PMPE   H4Y 4111   7.797   3.717   6.467
   70PMPE   C35 4112   7.969   3.832   6.449
   70PMPE   H5X 4113   8.016   3.744   6.400
   70PMPE   H5Y 4114   7.996   3.825   6.557
   70PMPE   C36 4115   8.024   3.964   6.395
   70PMPE   H6X 4116   8.135   3.963   6.397
   70PMPE   H6Y 4117   7.989   4.042   6.466
   70PMPE   C37 4118   7.975   4.010   6.257
   70PMPE   H7X 4119   8.010   4.116   6.250
   70PMPE   H7Y 4120   7.864   4.012   6.256
   70PMPE   C38 4121   8.029   3.932   6.135
   70PMPE   H8X 4122   8.035   3.823   6.151
   70PMPE   H8Y 4123   8.134   3.965   6.120
   70PMPE   C39 4124   7.950   3.959   6.006
   70PMPE   H9X 4125   8.020   3.969   5.919
   70PMPE   H9Y 4126   7.897   4.056   6.022
   70PMPE  C310 4127   7.840   3.861   5.967
   70PMPE  H10X 4128   7.768   3.854   6.052
   70PMPE  H10Y 4129   7.880   3.759   5.947
   70PMPE  C311 4130   7.763   3.910   5.843
   70PMPE  H11X 4131   7.785   4.018   5.826
   70PMPE  H11Y 4132   7.655   3.903   5.865
   70PMPE  C312 4133   7.790   3.833   5.713
   70PMPE  H12X 4134   7.790   3.723   5.729
   70PMPE  H12Y 4135   7.891   3.857   5.671
   70PMPE  C313 4136   7.687   3.875   5.608
   70PMPE  H13X 4137   7.671   3.984   5.613
   70PMPE  H13Y 4138   7.590   3.821   5.620
   70PMPE  C314 4139   7.736   3.847   5.471
   70PMPE  H14X 4140   7.844   3.875   5.456
   70PMPE  H14Y 4141   7.678   3.893   5.387
   70PMPE  C315 4142   7.728   3.699   5.459
   70PMPE  H15X 4143   7.806   3.655   5.523
   70PMPE  H15Y 4144   7.761   3.709   5.355
   70PMPE  C316 4145   7.606   3.604   5.479
   70PMPE  H16X 4146   7.514   3.643   5.436
   70PMPE  H16Y 4147   7.604   3.572   5.585
   70PMPE  H16Z 4148   7.617   3.503   5.433
   71PMPE     N 4149   0.682   6.029   7.607
   71PMPE   HN1 4150   0.655   6.119   7.653
   71PMPE   HN2 4151   0.625   5.951   7.647
   71PMPE   HN3 4152   0.783   6.013   7.628
   71PMPE   C12 4153   0.661   6.033   7.458
   71PMPE  H12A 4154   0.742   6.093   7.413
   71PMPE  H12B 4155   0.563   6.082   7.439
   71PMPE   C11 4156   0.660   5.893   7.397
   71PMPE  H11A 4157   0.745   5.831   7.436
   71PMPE  H11B 4158   0.675   5.902   7.287
   71PMPE     P 4159   0.455   5.734   7.336
   71PMPE   O13 4160   0.311   5.757   7.346
   71PMPE   O14 4161   0.498   5.603   7.375
   71PMPE   O11 4162   0.507   5.765   7.192
   71PMPE   O12 4163   0.535   5.835   7.429
   71PMPE    C1 4164   0.599   5.686   7.118
   71PMPE    HA 4165   0.564   5.581   7.103
   71PMPE    HB 4166   0.698   5.679   7.169
   71PMPE    C2 4167   0.620   5.759   6.985
   71PMPE    HS 4168   0.706   5.828   7.002
   71PMPE   O21 4169   0.499   5.823   6.938
   71PMPE   C21 4170   0.510   5.953   6.920
   71PMPE   O22 4171   0.611   6.019   6.936
   71PMPE   C22 4172   0.375   6.008   6.872
   71PMPE   H2R 4173   0.328   6.054   6.961
   71PMPE   H2S 4174   0.311   5.924   6.838
   71PMPE    C3 4175   0.659   5.665   6.876
   71PMPE    HX 4176   0.580   5.588   6.862
   71PMPE    HY 4177   0.754   5.619   6.905
   71PMPE   O31 4178   0.670   5.731   6.753
   71PMPE   C31 4179   0.775   5.801   6.743
   71PMPE   O32 4180   0.875   5.804   6.814
   71PMPE   C32 4181   0.744   5.874   6.622
   71PMPE   H2X 4182   0.674   5.959   6.634
   71PMPE   H2Y 4183   0.732   5.812   6.529
   71PMPE   C23 4184   0.391   6.118   6.764
   71PMPE   H3R 4185   0.443   6.079   6.674
   71PMPE   H3S 4186   0.460   6.194   6.805
   71PMPE   C24 4187   0.262   6.193   6.726
   71PMPE   H4R 4188   0.289   6.276   6.657
   71PMPE   H4S 4189   0.210   6.232   6.815
   71PMPE   C25 4190   0.160   6.114   6.649
   71PMPE   H5R 4191   0.076   6.183   6.618
   71PMPE   H5S 4192   0.110   6.037   6.711
   71PMPE   C26 4193   0.226   6.052   6.525
   71PMPE   H6R 4194   0.280   6.120   6.459
   71PMPE   H6S 4195   0.129   6.051   6.476
   71PMPE   C27 4196   0.292   5.909   6.542
   71PMPE   H7R 4197   0.241   5.850   6.623
   71PMPE   H7S 4198   0.393   5.919   6.581
   71PMPE   C28 4199   0.291   5.817   6.416
   71PMPE   H8R 4200   0.313   5.865   6.321
   71PMPE   H8S 4201   0.199   5.758   6.407
   71PMPE   C29 4202   0.351   5.685   6.437
   71PMPE   H9R 4203   0.344   5.653   6.537
   71PMPE  C217 4204   0.495   5.695   6.412
   71PMPE  H17R 4205   0.535   5.659   6.507
   71PMPE  H17S 4206   0.521   5.780   6.354
   71PMPE  C210 4207   0.409   5.599   6.332
   71PMPE  H10R 4208   0.416   5.495   6.361
   71PMPE  C211 4209   0.365   5.632   6.194
   71PMPE  H11R 4210   0.404   5.730   6.161
   71PMPE  H11S 4211   0.254   5.631   6.182
   71PMPE  C212 4212   0.418   5.523   6.104
   71PMPE  H12R 4213   0.377   5.424   6.132
   71PMPE  H12S 4214   0.529   5.521   6.114
   71PMPE  C213 4215   0.370   5.562   5.969
   71PMPE  H13R 4216   0.398   5.490   5.891
   71PMPE  H13S 4217   0.403   5.665   5.939
   71PMPE  C214 4218   0.237   5.530   5.927
   71PMPE  H14R 4219   0.168   5.569   6.003
   71PMPE  H14S 4220   0.221   5.420   5.907
   71PMPE  C215 4221   0.231   5.613   5.801
   71PMPE  H15R 4222   0.261   5.718   5.801
   71PMPE  H15S 4223   0.123   5.622   5.808
   71PMPE  C216 4224   0.293   5.559   5.673
   71PMPE  H16R 4225   0.248   5.482   5.626
   71PMPE  H16S 4226   0.304   5.629   5.587
   71PMPE  H16T 4227   0.370   5.486   5.690
   71PMPE   C33 4228   0.853   5.948   6.589
   71PMPE   H3X 4229   0.938   5.875   6.599
   71PMPE   H3Y 4230   0.916   5.994   6.670
   71PMPE   C34 4231   0.787   6.014   6.446
   71PMPE   H4X 4232   0.839   6.085   6.383
   71PMPE   H4Y 4233   0.736   6.105   6.486
   71PMPE   C35 4234   0.796   5.965   6.288
   71PMPE   H5X 4235   0.812   6.045   6.211
   71PMPE   H5Y 4236   0.693   5.994   6.272
   71PMPE   C36 4237   0.891   5.841   6.216
   71PMPE   H6X 4238   0.880   5.746   6.268
   71PMPE   H6Y 4239   1.012   5.847   6.202
   71PMPE   C37 4240   0.878   5.819   6.093
   71PMPE   H7X 4241   0.973   5.762   6.061
   71PMPE   H7Y 4242   0.887   5.924   6.099
   71PMPE   C38 4243   0.739   5.789   6.093
   71PMPE   H8X 4244   0.674   5.870   6.130
   71PMPE   H8Y 4245   0.723   5.699   6.158
   71PMPE   C39 4246   0.727   5.786   5.948
   71PMPE   H9X 4247   0.737   5.883   5.898
   71PMPE   H9Y 4248   0.619   5.768   5.948
   71PMPE  C310 4249   0.840   5.692   5.899
   71PMPE  H10X 4250   0.835   5.606   5.973
   71PMPE  H10Y 4251   0.948   5.713   5.898
   71PMPE  C311 4252   0.855   5.667   5.750
   71PMPE  H11X 4253   0.761   5.641   5.755
   71PMPE  H11Y 4254   0.897   5.574   5.716
   71PMPE  C312 4255   0.812   5.761   5.638
   71PMPE  H12X 4256   0.902   5.819   5.640
   71PMPE  H12Y 4257   0.717   5.815   5.666
   71PMPE  C313 4258   0.799   5.688   5.503
   71PMPE  H13X 4259   0.710   5.641   5.492
   71PMPE  H13Y 4260   0.865   5.602   5.484
   71PMPE  C314 4261   0.729   5.753   5.386
   71PMPE  H14X 4262   0.631   5.801   5.418
   71PMPE  H14Y 4263   0.696   5.691   5.300
   71PMPE  C315 4264   0.848   5.818   5.338
   71PMPE  H15X 4265   0.937   5.752   5.349
   71PMPE  H15Y 4266   0.862   5.901   5.408
   71PMPE  C316 4267   0.827   5.839   5.193
   71PMPE  H16X 4268   0.817   5.747   5.133
   71PMPE  H16Y 4269   0.904   5.909   5.155
   71PMPE  H16Z 4270   0.723   5.870   5.185
   72PMPE     N 4271   7.660   6.137   7.601
   72PMPE   HN1 4272   7.761   6.121   7.579
   72PMPE   HN2 4273   7.634   6.233   7.570
   72PMPE   HN3 4274   7.642   6.130   7.703
   72PMPE   C12 4275   7.575   6.033   7.530
   72PMPE  H12A 4276   7.468   6.057   7.548
   72PMPE  H12B 4277   7.599   5.936   7.579
   72PMPE   C11 4278   7.598   6.025   7.378
   72PMPE  H11A 4279   7.570   6.120   7.329
   72PMPE  H11B 4280   7.533   5.946   7.332
   72PMPE     P 4281   7.795   5.858   7.331
   72PMPE   O13 4282   7.745   5.785   7.450
   72PMPE   O14 4283   7.939   5.878   7.313
   72PMPE   O11 4284   7.724   5.822   7.194
   72PMPE   O12 4285   7.736   6.003   7.352
   72PMPE    C1 4286   7.634   5.713   7.182
   72PMPE    HA 4287   7.574   5.728   7.089
   72PMPE    HB 4288   7.563   5.711   7.268
   72PMPE    C2 4289   7.714   5.580   7.168
   72PMPE    HS 4290   7.769   5.564   7.264
   72PMPE   O21 4291   7.796   5.589   7.050
   72PMPE   C21 4292   7.923   5.584   7.079
   72PMPE   O22 4293   7.975   5.559   7.186
   72PMPE   C22 4294   7.997   5.628   6.958
   72PMPE   H2R 4295   7.945   5.591   6.867
   72PMPE   H2S 4296   8.097   5.583   6.969
   72PMPE    C3 4297   7.637   5.448   7.157
   72PMPE    HX 4298   7.572   5.427   7.241
   72PMPE    HY 4299   7.711   5.366   7.153
   72PMPE   O31 4300   7.548   5.441   7.050
   72PMPE   C31 4301   7.572   5.339   6.953
   72PMPE   O32 4302   7.686   5.313   6.923
   72PMPE   C32 4303   7.434   5.320   6.844
   72PMPE   H2X 4304   7.404   5.394   6.925
   72PMPE   H2Y 4305   7.355   5.260   6.850
   72PMPE   C23 4306   8.014   5.781   6.964
   72PMPE   H3R 4307   8.083   5.800   7.051
   72PMPE   H3S 4308   7.916   5.828   6.989
   72PMPE   C24 4309   8.068   5.844   6.836
   72PMPE   H4R 4310   8.177   5.822   6.829
   72PMPE   H4S 4311   8.056   5.954   6.849
   72PMPE   C25 4312   7.986   5.802   6.711
   72PMPE   H5R 4313   7.879   5.799   6.739
   72PMPE   H5S 4314   8.015   5.698   6.682
   72PMPE   C26 4315   7.986   5.892   6.587
   72PMPE   H6R 4316   7.998   6.001   6.611
   72PMPE   H6S 4317   7.900   5.874   6.522
   72PMPE   C27 4318   8.093   5.844   6.496
   72PMPE   H7R 4319   8.128   5.744   6.520
   72PMPE   H7S 4320   8.156   5.896   6.563
   72PMPE   C28 4321   8.097   5.872   6.340
   72PMPE   H8R 4322   8.002   5.830   6.311
   72PMPE   H8S 4323   8.168   5.811   6.281
   72PMPE   C29 4324   8.130   6.007   6.279
   72PMPE   H9R 4325   8.234   6.048   6.280
   72PMPE  C217 4326   8.018   6.107   6.296
   72PMPE  H17R 4327   8.056   6.201   6.333
   72PMPE  H17S 4328   7.924   6.067   6.328
   72PMPE  C210 4329   8.058   6.053   6.158
   72PMPE  H10R 4330   8.125   6.105   6.089
   72PMPE  C211 4331   7.969   5.954   6.089
   72PMPE  H11R 4332   7.907   6.011   6.016
   72PMPE  H11S 4333   7.902   5.903   6.159
   72PMPE  C212 4334   8.053   5.848   6.021
   72PMPE  H12R 4335   7.982   5.783   5.965
   72PMPE  H12S 4336   8.101   5.780   6.094
   72PMPE  C213 4337   8.167   5.904   5.933
   72PMPE  H13R 4338   8.226   5.814   5.907
   72PMPE  H13S 4339   8.241   5.964   5.988
   72PMPE  C214 4340   8.125   5.996   5.816
   72PMPE  H14R 4341   8.212   6.000   5.743
   72PMPE  H14S 4342   8.090   6.094   5.846
   72PMPE  C215 4343   8.009   5.952   5.738
   72PMPE  H15R 4344   8.006   5.996   5.633
   72PMPE  H15S 4345   7.909   5.924   5.778
   72PMPE  C216 4346   8.059   5.823   5.732
   72PMPE  H16R 4347   7.990   5.811   5.646
   72PMPE  H16S 4348   8.171   5.819   5.707
   72PMPE  H16T 4349   8.039   5.735   5.793
   72PMPE   C33 4350   7.408   5.360   6.656
   72PMPE   H3X 4351   7.308   5.331   6.620
   72PMPE   H3Y 4352   7.484   5.290   6.624
   72PMPE   C34 4353   7.408   5.511   6.546
   72PMPE   H4X 4354   7.491   5.585   6.541
   72PMPE   H4Y 4355   7.384   5.620   6.568
   72PMPE   C35 4356   7.431   5.503   6.406
   72PMPE   H5X 4357   7.331   5.511   6.365
   72PMPE   H5Y 4358   7.500   5.418   6.387
   72PMPE   C36 4359   7.515   5.615   6.359
   72PMPE   H6X 4360   7.551   5.543   6.282
   72PMPE   H6Y 4361   7.611   5.593   6.354
   72PMPE   C37 4362   7.486   5.770   6.359
   72PMPE   H7X 4363   7.564   5.831   6.307
   72PMPE   H7Y 4364   7.505   5.816   6.458
   72PMPE   C38 4365   7.343   5.800   6.309
   72PMPE   H8X 4366   7.324   5.907   6.327
   72PMPE   H8Y 4367   7.279   5.733   6.371
   72PMPE   C39 4368   7.299   5.777   6.162
   72PMPE   H9X 4369   7.190   5.769   6.152
   72PMPE   H9Y 4370   7.288   5.669   6.145
   72PMPE  C310 4371   7.365   5.879   6.056
   72PMPE  H10X 4372   7.469   5.873   6.029
   72PMPE  H10Y 4373   7.371   5.985   6.086
   72PMPE  C311 4374   7.326   5.860   5.910
   72PMPE  H11X 4375   7.263   5.937   5.923
   72PMPE  H11Y 4376   7.264   5.769   5.906
   72PMPE  C312 4377   7.409   5.891   5.778
   72PMPE  H12X 4378   7.366   5.837   5.689
   72PMPE  H12Y 4379   7.511   5.853   5.792
   72PMPE  C313 4380   7.474   6.016   5.738
   72PMPE  H13X 4381   7.561   6.043   5.804
   72PMPE  H13Y 4382   7.393   6.087   5.738
   72PMPE  C314 4383   7.519   6.016   5.595
   72PMPE  H14X 4384   7.450   5.955   5.529
   72PMPE  H14Y 4385   7.625   5.986   5.590
   72PMPE  C315 4386   7.529   6.158   5.559
   72PMPE  H15X 4387   7.601   6.201   5.631
   72PMPE  H15Y 4388   7.434   6.203   5.588
   72PMPE  C316 4389   7.563   6.179   5.412
   72PMPE  H16X 4390   7.545   6.284   5.384
   72PMPE  H16Y 4391   7.499   6.113   5.348
   72PMPE  H16Z 4392   7.669   6.151   5.393
   73PMPE     N 4393   7.665   2.042   7.274
   73PMPE   HN1 4394   7.732   2.037   7.194
   73PMPE   HN2 4395   7.697   2.115   7.341
   73PMPE   HN3 4396   7.660   1.950   7.322
   73PMPE   C12 4397   7.526   2.085   7.229
   73PMPE  H12A 4398   7.485   2.004   7.166
   73PMPE  H12B 4399   7.538   2.178   7.170
   73PMPE   C11 4400   7.433   2.117   7.349
   73PMPE  H11A 4401   7.401   2.022   7.397
   73PMPE  H11B 4402   7.338   2.163   7.311
   73PMPE     P 4403   7.452   2.348   7.467
   73PMPE   O13 4404   7.551   2.424   7.547
   73PMPE   O14 4405   7.315   2.338   7.520
   73PMPE   O11 4406   7.456   2.395   7.318
   73PMPE   O12 4407   7.502   2.198   7.446
   73PMPE    C1 4408   7.521   2.518   7.292
   73PMPE    HA 4409   7.630   2.508   7.279
   73PMPE    HB 4410   7.496   2.597   7.369
   73PMPE    C2 4411   7.466   2.575   7.164
   73PMPE    HS 4412   7.372   2.613   7.202
   73PMPE   O21 4413   7.459   2.477   7.055
   73PMPE   C21 4414   7.363   2.383   7.045
   73PMPE   O22 4415   7.268   2.365   7.119
   73PMPE   C22 4416   7.375   2.300   6.917
   73PMPE   H2R 4417   7.459   2.230   6.929
   73PMPE   H2S 4418   7.398   2.366   6.832
   73PMPE    C3 4419   7.548   2.701   7.123
   73PMPE    HX 4420   7.657   2.700   7.120
   73PMPE    HY 4421   7.513   2.784   7.187
   73PMPE   O31 4422   7.503   2.744   7.001
   73PMPE   C31 4423   7.532   2.684   6.901
   73PMPE   O32 4424   7.641   2.630   6.879
   73PMPE   C32 4425   7.419   2.731   6.804
   73PMPE   H2X 4426   7.423   2.829   6.772
   73PMPE   H2Y 4427   7.316   2.725   6.827
   73PMPE   C23 4428   7.244   2.219   6.885
   73PMPE   H3R 4429   7.152   2.280   6.904
   73PMPE   H3S 4430   7.238   2.131   6.951
   73PMPE   C24 4431   7.235   2.174   6.737
   73PMPE   H4R 4432   7.214   2.253   6.664
   73PMPE   H4S 4433   7.145   2.112   6.724
   73PMPE   C25 4434   7.366   2.116   6.686
   73PMPE   H5R 4435   7.390   2.032   6.755
   73PMPE   H5S 4436   7.449   2.190   6.695
   73PMPE   C26 4437   7.351   2.063   6.543
   73PMPE   H6R 4438   7.270   1.987   6.550
   73PMPE   H6S 4439   7.444   2.009   6.517
   73PMPE   C27 4440   7.313   2.161   6.430
   73PMPE   H7R 4441   7.316   2.264   6.462
   73PMPE   H7S 4442   7.205   2.152   6.405
   73PMPE   C28 4443   7.402   2.152   6.305
   73PMPE   H8R 4444   7.368   2.228   6.231
   73PMPE   H8S 4445   7.384   2.053   6.260
   73PMPE   C29 4446   7.554   2.167   6.333
   73PMPE   H9R 4447   7.595   2.128   6.427
   73PMPE  C217 4448   7.593   2.311   6.317
   73PMPE  H17R 4449   7.663   2.342   6.395
   73PMPE  H17S 4450   7.505   2.365   6.283
   73PMPE  C210 4451   7.653   2.215   6.228
   73PMPE  H10R 4452   7.758   2.192   6.253
   73PMPE  C211 4453   7.607   2.232   6.087
   73PMPE  H11R 4454   7.679   2.288   6.023
   73PMPE  H11S 4455   7.512   2.286   6.088
   73PMPE  C212 4456   7.586   2.093   6.032
   73PMPE  H12R 4457   7.503   2.041   6.083
   73PMPE  H12S 4458   7.682   2.042   6.053
   73PMPE  C213 4459   7.568   2.089   5.882
   73PMPE  H13R 4460   7.618   1.999   5.841
   73PMPE  H13S 4461   7.631   2.170   5.850
   73PMPE  C214 4462   7.422   2.085   5.832
   73PMPE  H14R 4463   7.364   2.180   5.841
   73PMPE  H14S 4464   7.364   2.022   5.900
   73PMPE  C215 4465   7.416   2.030   5.689
   73PMPE  H15R 4466   7.491   1.948   5.683
   73PMPE  H15S 4467   7.445   2.107   5.614
   73PMPE  C216 4468   7.279   1.975   5.650
   73PMPE  H16R 4469   7.204   2.057   5.650
   73PMPE  H16S 4470   7.285   1.930   5.549
   73PMPE  H16T 4471   7.246   1.897   5.721
   73PMPE   C33 4472   7.443   2.687   6.676
   73PMPE   H3X 4473   7.476   2.588   6.711
   73PMPE   H3Y 4474   7.552   2.672   6.678
   73PMPE   C34 4475   7.332   2.702   6.516
   73PMPE   H4X 4476   7.293   2.783   6.574
   73PMPE   H4Y 4477   7.262   2.771   6.478
   73PMPE   C35 4478   7.335   2.608   6.368
   73PMPE   H5X 4479   7.275   2.520   6.345
   73PMPE   H5Y 4480   7.435   2.555   6.334
   73PMPE   C36 4481   7.348   2.666   6.248
   73PMPE   H6X 4482   7.433   2.706   6.224
   73PMPE   H6Y 4483   7.289   2.756   6.259
   73PMPE   C37 4484   7.381   2.559   6.149
   73PMPE   H7X 4485   7.351   2.621   6.070
   73PMPE   H7Y 4486   7.330   2.462   6.160
   73PMPE   C38 4487   7.503   2.544   6.080
   73PMPE   H8X 4488   7.595   2.511   6.129
   73PMPE   H8Y 4489   7.547   2.640   6.054
   73PMPE   C39 4490   7.429   2.468   5.964
   73PMPE   H9X 4491   7.339   2.513   5.912
   73PMPE   H9Y 4492   7.398   2.365   5.970
   73PMPE  C310 4493   7.528   2.471   5.874
   73PMPE  H10X 4494   7.625   2.471   5.926
   73PMPE  H10Y 4495   7.545   2.582   5.875
   73PMPE  C311 4496   7.496   2.381   5.741
   73PMPE  H11X 4497   7.403   2.409   5.681
   73PMPE  H11Y 4498   7.481   2.299   5.798
   73PMPE  C312 4499   7.611   2.291   5.665
   73PMPE  H12X 4500   7.699   2.300   5.730
   73PMPE  H12Y 4501   7.572   2.383   5.629
   73PMPE  C313 4502   7.679   2.242   5.520
   73PMPE  H13X 4503   7.634   2.274   5.424
   73PMPE  H13Y 4504   7.667   2.139   5.554
   73PMPE  C314 4505   7.828   2.243   5.455
   73PMPE  H14X 4506   7.880   2.317   5.395
   73PMPE  H14Y 4507   7.820   2.178   5.364
   73PMPE  C315 4508   7.945   2.216   5.541
   73PMPE  H15X 4509   7.969   2.288   5.622
   73PMPE  H15Y 4510   8.038   2.220   5.476
   73PMPE  C316 4511   7.917   2.084   5.599
   73PMPE  H16X 4512   7.896   2.006   5.523
   73PMPE  H16Y 4513   7.853   2.076   5.688
   73PMPE  H16Z 4514   8.013   2.080   5.644
   74PMPE     N 4515   0.030   4.381   7.661
   74PMPE   HN1 4516   0.103   4.453   7.639
   74PMPE   HN2 4517  -0.049   4.425   7.711
   74PMPE   HN3 4518   0.074   4.306   7.717
   74PMPE   C12 4519  -0.014   4.322   7.529
   74PMPE  H12A 4520  -0.120   4.337   7.514
   74PMPE  H12B 4521   0.008   4.214   7.529
   74PMPE   C11 4522   0.052   4.397   7.414
   74PMPE  H11A 4523   0.022   4.504   7.417
   74PMPE  H11B 4524   0.013   4.353   7.318
   74PMPE     P 4525   0.287   4.393   7.303
   74PMPE   O13 4526   0.425   4.387   7.357
   74PMPE   O14 4527   0.244   4.511   7.226
   74PMPE   O11 4528   0.245   4.262   7.222
   74PMPE   O12 4529   0.192   4.382   7.430
   74PMPE    C1 4530   0.253   4.131   7.279
   74PMPE    HA 4531   0.187   4.123   7.368
   74PMPE    HB 4532   0.358   4.112   7.310
   74PMPE    C2 4533   0.208   4.017   7.181
   74PMPE    HS 4534   0.262   3.923   7.208
   74PMPE   O21 4535   0.235   4.052   7.045
   74PMPE   C21 4536   0.360   4.054   7.014
   74PMPE   O22 4537   0.454   4.009   7.078
   74PMPE   C22 4538   0.363   4.101   6.870
   74PMPE   H2R 4539   0.278   4.167   6.846
   74PMPE   H2S 4540   0.342   4.008   6.817
   74PMPE    C3 4541   0.056   3.986   7.191
   74PMPE    HX 4542   0.035   3.963   7.297
   74PMPE    HY 4543   0.032   3.892   7.134
   74PMPE   O31 4544  -0.026   4.099   7.151
   74PMPE   C31 4545  -0.072   4.097   7.026
   74PMPE   O32 4546  -0.051   4.011   6.943
   74PMPE   C32 4547  -0.162   4.219   7.002
   74PMPE   H2X 4548  -0.117   4.308   7.050
   74PMPE   H2Y 4549  -0.257   4.197   7.054
   74PMPE   C23 4550   0.494   4.170   6.830
   74PMPE   H3R 4551   0.494   4.169   6.718
   74PMPE   H3S 4552   0.584   4.119   6.870
   74PMPE   C24 4553   0.498   4.318   6.860
   74PMPE   H4R 4554   0.483   4.332   6.969
   74PMPE   H4S 4555   0.411   4.361   6.805
   74PMPE   C25 4556   0.634   4.380   6.819
   74PMPE   H5R 4557   0.714   4.319   6.865
   74PMPE   H5S 4558   0.641   4.483   6.859
   74PMPE   C26 4559   0.666   4.379   6.670
   74PMPE   H6R 4560   0.641   4.281   6.632
   74PMPE   H6S 4561   0.772   4.404   6.648
   74PMPE   C27 4562   0.583   4.476   6.595
   74PMPE   H7R 4563   0.618   4.575   6.634
   74PMPE   H7S 4564   0.475   4.466   6.617
   74PMPE   C28 4565   0.596   4.469   6.445
   74PMPE   H8R 4566   0.568   4.380   6.394
   74PMPE   H8S 4567   0.701   4.491   6.416
   74PMPE   C29 4568   0.494   4.571   6.412
   74PMPE   H9R 4569   0.458   4.627   6.502
   74PMPE  C217 4570   0.364   4.595   6.347
   74PMPE  H17R 4571   0.338   4.705   6.364
   74PMPE  H17S 4572   0.308   4.523   6.299
   74PMPE  C210 4573   0.484   4.589   6.264
   74PMPE  H10R 4574   0.440   4.676   6.211
   74PMPE  C211 4575   0.549   4.471   6.175
   74PMPE  H11R 4576   0.496   4.382   6.197
   74PMPE  H11S 4577   0.662   4.463   6.196
   74PMPE  C212 4578   0.539   4.470   6.016
   74PMPE  H12R 4579   0.610   4.425   5.946
   74PMPE  H12S 4580   0.613   4.542   6.030
   74PMPE  C213 4581   0.404   4.520   5.960
   74PMPE  H13R 4582   0.383   4.599   6.036
   74PMPE  H13S 4583   0.337   4.436   5.974
   74PMPE  C214 4584   0.353   4.559   5.816
   74PMPE  H14R 4585   0.331   4.662   5.828
   74PMPE  H14S 4586   0.248   4.588   5.793
   74PMPE  C215 4587   0.423   4.501   5.688
   74PMPE  H15R 4588   0.340   4.432   5.668
   74PMPE  H15S 4589   0.513   4.449   5.721
   74PMPE  C216 4590   0.460   4.551   5.543
   74PMPE  H16R 4591   0.553   4.507   5.530
   74PMPE  H16S 4592   0.470   4.658   5.557
   74PMPE  H16T 4593   0.503   4.632   5.478
   74PMPE   C33 4594  -0.197   4.244   6.852
   74PMPE   H3X 4595  -0.291   4.304   6.854
   74PMPE   H3Y 4596  -0.217   4.149   6.797
   74PMPE   C34 4597  -0.096   4.327   6.772
   74PMPE   H4X 4598  -0.042   4.398   6.837
   74PMPE   H4Y 4599  -0.155   4.389   6.700
   74PMPE   C35 4600   0.000   4.239   6.691
   74PMPE   H5X 4601  -0.055   4.156   6.642
   74PMPE   H5Y 4602   0.075   4.191   6.757
   74PMPE   C36 4603   0.072   4.323   6.586
   74PMPE   H6X 4604   0.114   4.414   6.633
   74PMPE   H6Y 4605  -0.003   4.356   6.511
   74PMPE   C37 4606   0.188   4.246   6.523
   74PMPE   H7X 4607   0.158   4.143   6.497
   74PMPE   H7Y 4608   0.272   4.239   6.596
   74PMPE   C38 4609   0.239   4.314   6.398
   74PMPE   H8X 4610   0.322   4.380   6.431
   74PMPE   H8Y 4611   0.161   4.379   6.354
   74PMPE   C39 4612   0.281   4.214   6.292
   74PMPE   H9X 4613   0.227   4.118   6.301
   74PMPE   H9Y 4614   0.385   4.186   6.305
   74PMPE  C310 4615   0.256   4.264   6.151
   74PMPE  H10X 4616   0.305   4.195   6.079
   74PMPE  H10Y 4617   0.296   4.366   6.142
   74PMPE  C311 4618   0.110   4.259   6.113
   74PMPE  H11X 4619   0.048   4.307   6.192
   74PMPE  H11Y 4620   0.084   4.152   6.113
   74PMPE  C312 4621   0.090   4.307   5.970
   74PMPE  H12X 4622   0.157   4.247   5.906
   74PMPE  H12Y 4623   0.131   4.407   5.961
   74PMPE  C313 4624  -0.054   4.294   5.917
   74PMPE  H13X 4625  -0.119   4.372   5.963
   74PMPE  H13Y 4626  -0.094   4.197   5.945
   74PMPE  C314 4627  -0.071   4.297   5.765
   74PMPE  H14X 4628  -0.039   4.403   5.748
   74PMPE  H14Y 4629  -0.177   4.295   5.734
   74PMPE  C315 4630   0.006   4.183   5.684
   74PMPE  H15X 4631   0.005   4.085   5.732
   74PMPE  H15Y 4632   0.114   4.210   5.692
   74PMPE  C316 4633  -0.036   4.150   5.537
   74PMPE  H16X 4634  -0.014   4.223   5.463
   74PMPE  H16Y 4635  -0.143   4.164   5.512
   74PMPE  H16Z 4636   0.039   4.098   5.473
   75PMPE     N 4637   7.046   7.295   7.455
   75PMPE   HN1 4638   6.986   7.312   7.370
   75PMPE   HN2 4639   7.143   7.319   7.429
   75PMPE   HN3 4640   7.039   7.196   7.488
   75PMPE   C12 4641   6.996   7.392   7.557
   75PMPE  H12A 4642   7.074   7.471   7.565
   75PMPE  H12B 4643   6.989   7.341   7.656
   75PMPE   C11 4644   6.862   7.445   7.505
   75PMPE  H11A 4645   6.828   7.533   7.566
   75PMPE  H11B 4646   6.784   7.367   7.516
   75PMPE     P 4647   6.908   7.624   7.326
   75PMPE   O13 4648   7.040   7.638   7.390
   75PMPE   O14 4649   6.793   7.706   7.368
   75PMPE   O11 4650   6.924   7.620   7.170
   75PMPE   O12 4651   6.871   7.475   7.365
   75PMPE    C1 4652   6.891   7.507   7.089
   75PMPE    HA 4653   6.808   7.446   7.133
   75PMPE    HB 4654   6.980   7.444   7.073
   75PMPE    C2 4655   6.837   7.556   6.954
   75PMPE    HS 4656   6.799   7.470   6.895
   75PMPE   O21 4657   6.937   7.627   6.876
   75PMPE   C21 4658   7.036   7.557   6.825
   75PMPE   O22 4659   7.048   7.436   6.827
   75PMPE   C22 4660   7.135   7.656   6.763
   75PMPE   H2R 4661   7.197   7.699   6.845
   75PMPE   H2S 4662   7.079   7.740   6.718
   75PMPE    C3 4663   6.718   7.651   6.986
   75PMPE    HX 4664   6.753   7.732   7.052
   75PMPE    HY 4665   6.633   7.598   7.035
   75PMPE   O31 4666   6.674   7.717   6.871
   75PMPE   C31 4667   6.633   7.638   6.780
   75PMPE   O32 4668   6.585   7.526   6.788
   75PMPE   C32 4669   6.638   7.727   6.660
   75PMPE   H2X 4670   6.545   7.776   6.691
   75PMPE   H2Y 4671   6.626   7.673   6.567
   75PMPE   C23 4672   7.229   7.587   6.663
   75PMPE   H3R 4673   7.283   7.504   6.715
   75PMPE   H3S 4674   7.304   7.658   6.627
   75PMPE   C24 4675   7.169   7.537   6.531
   75PMPE   H4R 4676   7.115   7.441   6.542
   75PMPE   H4S 4677   7.260   7.518   6.470
   75PMPE   C25 4678   7.088   7.637   6.449
   75PMPE   H5R 4679   7.097   7.606   6.342
   75PMPE   H5S 4680   7.132   7.739   6.452
   75PMPE   C26 4681   6.941   7.651   6.490
   75PMPE   H6R 4682   6.899   7.726   6.421
   75PMPE   H6S 4683   6.932   7.686   6.594
   75PMPE   C27 4684   6.856   7.526   6.477
   75PMPE   H7R 4685   6.749   7.543   6.500
   75PMPE   H7S 4686   6.889   7.452   6.553
   75PMPE   C28 4687   6.873   7.477   6.335
   75PMPE   H8R 4688   6.974   7.475   6.297
   75PMPE   H8S 4689   6.807   7.534   6.268
   75PMPE   C29 4690   6.832   7.338   6.333
   75PMPE   H9R 4691   6.732   7.340   6.369
   75PMPE  C217 4692   6.915   7.248   6.423
   75PMPE  H17R 4693   6.849   7.193   6.489
   75PMPE  H17S 4694   7.017   7.261   6.446
   75PMPE  C210 4695   6.908   7.225   6.269
   75PMPE  H10R 4696   6.900   7.116   6.268
   75PMPE  C211 4697   7.027   7.243   6.185
   75PMPE  H11R 4698   7.057   7.143   6.145
   75PMPE  H11S 4699   7.092   7.278   6.261
   75PMPE  C212 4700   7.011   7.345   6.075
   75PMPE  H12R 4701   7.101   7.400   6.057
   75PMPE  H12S 4702   6.959   7.432   6.111
   75PMPE  C213 4703   6.942   7.292   5.951
   75PMPE  H13R 4704   6.894   7.374   5.899
   75PMPE  H13S 4705   6.886   7.203   5.988
   75PMPE  C214 4706   7.002   7.240   5.827
   75PMPE  H14R 4707   6.948   7.158   5.781
   75PMPE  H14S 4708   7.057   7.171   5.892
   75PMPE  C215 4709   7.075   7.342   5.731
   75PMPE  H15R 4710   7.156   7.296   5.672
   75PMPE  H15S 4711   7.127   7.425   5.784
   75PMPE  C216 4712   6.991   7.395   5.623
   75PMPE  H16R 4713   6.952   7.305   5.572
   75PMPE  H16S 4714   6.913   7.456   5.670
   75PMPE  H16T 4715   7.053   7.455   5.554
   75PMPE   C33 4716   6.673   7.873   6.655
   75PMPE   H3X 4717   6.783   7.878   6.648
   75PMPE   H3Y 4718   6.628   7.937   6.736
   75PMPE   C34 4719   6.625   7.931   6.526
   75PMPE   H4X 4720   6.653   8.029   6.524
   75PMPE   H4Y 4721   6.522   7.973   6.517
   75PMPE   C35 4722   6.705   7.871   6.413
   75PMPE   H5X 4723   6.665   7.772   6.384
   75PMPE   H5Y 4724   6.812   7.888   6.430
   75PMPE   C36 4725   6.709   7.951   6.293
   75PMPE   H6X 4726   6.737   8.053   6.327
   75PMPE   H6Y 4727   6.603   7.926   6.275
   75PMPE   C37 4728   6.787   7.943   6.165
   75PMPE   H7X 4729   6.886   7.981   6.173
   75PMPE   H7Y 4730   6.756   7.996   6.071
   75PMPE   C38 4731   6.763   7.814   6.124
   75PMPE   H8X 4732   6.650   7.804   6.116
   75PMPE   H8Y 4733   6.777   7.742   6.207
   75PMPE   C39 4734   6.846   7.786   5.994
   75PMPE   H9X 4735   6.807   7.840   5.907
   75PMPE   H9Y 4736   6.848   7.686   5.946
   75PMPE  C310 4737   6.984   7.765   6.042
   75PMPE  H10X 4738   6.978   7.700   6.133
   75PMPE  H10Y 4739   7.013   7.868   6.070
   75PMPE  C311 4740   7.071   7.695   5.938
   75PMPE  H11X 4741   7.039   7.597   5.902
   75PMPE  H11Y 4742   7.161   7.673   5.999
   75PMPE  C312 4743   7.094   7.790   5.821
   75PMPE  H12X 4744   7.112   7.873   5.887
   75PMPE  H12Y 4745   7.006   7.822   5.763
   75PMPE  C313 4746   7.211   7.761   5.725
   75PMPE  H13X 4747   7.193   7.656   5.696
   75PMPE  H13Y 4748   7.309   7.764   5.777
   75PMPE  C314 4749   7.211   7.849   5.596
   75PMPE  H14X 4750   7.232   7.956   5.600
   75PMPE  H14Y 4751   7.109   7.860   5.559
   75PMPE  C315 4752   7.309   7.806   5.490
   75PMPE  H15X 4753   7.411   7.777   5.523
   75PMPE  H15Y 4754   7.321   7.884   5.411
   75PMPE  C316 4755   7.246   7.687   5.432
   75PMPE  H16X 4756   7.305   7.663   5.351
   75PMPE  H16Y 4757   7.171   7.712   5.362
   75PMPE  H16Z 4758   7.231   7.598   5.495
   76PMPE     N 4759   7.283   0.930   7.627
   76PMPE   HN1 4760   7.274   1.015   7.686
   76PMPE   HN2 4761   7.187   0.901   7.596
   76PMPE   HN3 4762   7.323   0.852   7.682
   76PMPE   C12 4763   7.367   0.963   7.505
   76PMPE  H12A 4764   7.469   0.989   7.539
   76PMPE  H12B 4765   7.321   1.052   7.459
   76PMPE   C11 4766   7.379   0.849   7.400
   76PMPE  H11A 4767   7.459   0.778   7.429
   76PMPE  H11B 4768   7.408   0.887   7.299
   76PMPE     P 4769   7.135   0.848   7.316
   76PMPE   O13 4770   7.175   0.980   7.265
   76PMPE   O14 4771   7.027   0.842   7.418
   76PMPE   O11 4772   7.112   0.752   7.191
   76PMPE   O12 4773   7.257   0.778   7.391
   76PMPE    C1 4774   7.079   0.620   7.228
   76PMPE    HA 4775   6.998   0.634   7.303
   76PMPE    HB 4776   7.165   0.566   7.275
   76PMPE    C2 4777   7.007   0.524   7.129
   76PMPE    HS 4778   6.998   0.423   7.169
   76PMPE   O21 4779   7.079   0.510   7.009
   76PMPE   C21 4780   7.041   0.403   6.939
   76PMPE   O22 4781   6.987   0.305   6.985
   76PMPE   C22 4782   7.089   0.435   6.800
   76PMPE   H2R 4783   7.193   0.445   6.822
   76PMPE   H2S 4784   7.072   0.541   6.785
   76PMPE    C3 4785   6.865   0.582   7.109
   76PMPE    HX 4786   6.806   0.602   7.201
   76PMPE    HY 4787   6.796   0.515   7.055
   76PMPE   O31 4788   6.884   0.711   7.061
   76PMPE   C31 4789   6.905   0.717   6.937
   76PMPE   O32 4790   6.900   0.622   6.863
   76PMPE   C32 4791   6.919   0.861   6.894
   76PMPE   H2X 4792   7.017   0.885   6.932
   76PMPE   H2Y 4793   6.856   0.928   6.951
   76PMPE   C23 4794   7.032   0.376   6.669
   76PMPE   H3R 4795   7.087   0.284   6.652
   76PMPE   H3S 4796   7.067   0.437   6.583
   76PMPE   C24 4797   6.879   0.377   6.660
   76PMPE   H4R 4798   6.853   0.446   6.737
   76PMPE   H4S 4799   6.806   0.330   6.729
   76PMPE   C25 4800   6.790   0.329   6.537
   76PMPE   H5R 4801   6.692   0.350   6.570
   76PMPE   H5S 4802   6.773   0.234   6.477
   76PMPE   C26 4803   6.830   0.378   6.428
   76PMPE   H6R 4804   6.941   0.372   6.431
   76PMPE   H6S 4805   6.810   0.461   6.487
   76PMPE   C27 4806   6.724   0.362   6.313
   76PMPE   H7R 4807   6.628   0.362   6.356
   76PMPE   H7S 4808   6.782   0.268   6.290
   76PMPE   C28 4809   6.653   0.453   6.200
   76PMPE   H8R 4810   6.703   0.537   6.160
   76PMPE   H8S 4811   6.593   0.543   6.222
   76PMPE   C29 4812   6.627   0.377   6.077
   76PMPE   H9R 4813   6.567   0.299   6.103
   76PMPE  C217 4814   6.704   0.298   5.968
   76PMPE  H17R 4815   6.671   0.221   5.907
   76PMPE  H17S 4816   6.791   0.241   5.950
   76PMPE  C210 4817   6.659   0.453   5.948
   76PMPE  H10R 4818   6.560   0.480   5.914
   76PMPE  C211 4819   6.729   0.598   5.936
   76PMPE  H11R 4820   6.830   0.619   5.965
   76PMPE  H11S 4821   6.684   0.662   6.014
   76PMPE  C212 4822   6.711   0.680   5.808
   76PMPE  H12R 4823   6.757   0.781   5.825
   76PMPE  H12S 4824   6.601   0.686   5.800
   76PMPE  C213 4825   6.768   0.629   5.677
   76PMPE  H13R 4826   6.714   0.679   5.599
   76PMPE  H13S 4827   6.748   0.522   5.666
   76PMPE  C214 4828   6.916   0.655   5.654
   76PMPE  H14R 4829   6.950   0.620   5.748
   76PMPE  H14S 4830   6.959   0.752   5.678
   76PMPE  C215 4831   6.975   0.596   5.523
   76PMPE  H15R 4832   7.087   0.592   5.525
   76PMPE  H15S 4833   6.949   0.670   5.446
   76PMPE  C216 4834   6.929   0.463   5.461
   76PMPE  H16R 4835   7.021   0.408   5.453
   76PMPE  H16S 4836   6.853   0.403   5.517
   76PMPE  H16T 4837   6.926   0.450   5.353
   76PMPE   C33 4838   6.903   0.896   6.746
   76PMPE   H3X 4839   6.892   1.005   6.733
   76PMPE   H3Y 4840   6.814   0.859   6.693
   76PMPE   C34 4841   7.011   0.836   6.665
   76PMPE   H4X 4842   6.981   0.861   6.561
   76PMPE   H4Y 4843   7.018   0.725   6.683
   76PMPE   C35 4844   7.147   0.869   6.706
   76PMPE   H5X 4845   7.161   0.834   6.811
   76PMPE   H5Y 4846   7.156   0.978   6.694
   76PMPE   C36 4847   7.238   0.795   6.614
   76PMPE   H6X 4848   7.243   0.686   6.644
   76PMPE   H6Y 4849   7.338   0.839   6.626
   76PMPE   C37 4850   7.194   0.821   6.470
   76PMPE   H7X 4851   7.172   0.925   6.446
   76PMPE   H7Y 4852   7.108   0.755   6.440
   76PMPE   C38 4853   7.299   0.792   6.375
   76PMPE   H8X 4854   7.400   0.836   6.384
   76PMPE   H8Y 4855   7.258   0.801   6.270
   76PMPE   C39 4856   7.314   0.655   6.413
   76PMPE   H9X 4857   7.229   0.597   6.455
   76PMPE   H9Y 4858   7.418   0.642   6.462
   76PMPE  C310 4859   7.313   0.580   6.294
   76PMPE  H10X 4860   7.382   0.505   6.329
   76PMPE  H10Y 4861   7.366   0.658   6.240
   76PMPE  C311 4862   7.203   0.522   6.207
   76PMPE  H11X 4863   7.156   0.608   6.160
   76PMPE  H11Y 4864   7.151   0.467   6.288
   76PMPE  C312 4865   7.229   0.424   6.087
   76PMPE  H12X 4866   7.155   0.343   6.086
   76PMPE  H12Y 4867   7.278   0.334   6.098
   76PMPE  C313 4868   7.275   0.475   5.946
   76PMPE  H13X 4869   7.361   0.535   5.935
   76PMPE  H13Y 4870   7.204   0.545   5.902
   76PMPE  C314 4871   7.297   0.362   5.847
   76PMPE  H14X 4872   7.269   0.259   5.867
   76PMPE  H14Y 4873   7.394   0.343   5.856
   76PMPE  C315 4874   7.304   0.414   5.708
   76PMPE  H15X 4875   7.300   0.523   5.700
   76PMPE  H15Y 4876   7.208   0.384   5.696
   76PMPE  C316 4877   7.366   0.336   5.596
   76PMPE  H16X 4878   7.316   0.240   5.571
   76PMPE  H16Y 4879   7.465   0.307   5.621
   76PMPE  H16Z 4880   7.367   0.402   5.508
   77PMPE     N 4881   0.444   6.603   7.592
   77PMPE   HN1 4882   0.369   6.676   7.602
   77PMPE   HN2 4883   0.440   6.533   7.671
   77PMPE   HN3 4884   0.539   6.647   7.597
   77PMPE   C12 4885   0.430   6.541   7.454
   77PMPE  H12A 4886   0.474   6.439   7.460
   77PMPE  H12B 4887   0.494   6.603   7.387
   77PMPE   C11 4888   0.286   6.526   7.396
   77PMPE  H11A 4889   0.239   6.436   7.440
   77PMPE  H11B 4890   0.296   6.503   7.287
   77PMPE     P 4891   0.052   6.629   7.344
   77PMPE   O13 4892  -0.041   6.723   7.411
   77PMPE   O14 4893   0.016   6.486   7.334
   77PMPE   O11 4894   0.085   6.682   7.200
   77PMPE   O12 4895   0.198   6.638   7.417
   77PMPE    C1 4896   0.155   6.805   7.191
   77PMPE    HA 4897   0.254   6.802   7.240
   77PMPE    HB 4898   0.095   6.891   7.232
   77PMPE    C2 4899   0.187   6.831   7.045
   77PMPE    HS 4900   0.201   6.942   7.038
   77PMPE   O21 4901   0.088   6.805   6.955
   77PMPE   C21 4902  -0.016   6.860   6.971
   77PMPE   O22 4903  -0.056   6.946   7.048
   77PMPE   C22 4904  -0.081   6.809   6.852
   77PMPE   H2R 4905  -0.172   6.830   6.911
   77PMPE   H2S 4906  -0.088   6.700   6.837
   77PMPE    C3 4907   0.297   6.749   6.982
   77PMPE    HX 4908   0.264   6.646   6.959
   77PMPE    HY 4909   0.385   6.732   7.044
   77PMPE   O31 4910   0.323   6.824   6.864
   77PMPE   C31 4911   0.332   6.773   6.747
   77PMPE   O32 4912   0.338   6.653   6.723
   77PMPE   C32 4913   0.367   6.886   6.642
   77PMPE   H2X 4914   0.453   6.947   6.670
   77PMPE   H2Y 4915   0.291   6.965   6.652
   77PMPE   C23 4916  -0.036   6.890   6.724
   77PMPE   H3R 4917  -0.017   6.997   6.745
   77PMPE   H3S 4918  -0.106   6.922   6.646
   77PMPE   C24 4919   0.036   6.815   6.615
   77PMPE   H4R 4920   0.121   6.785   6.674
   77PMPE   H4S 4921   0.064   6.890   6.539
   77PMPE   C25 4922  -0.023   6.690   6.545
   77PMPE   H5R 4923  -0.124   6.651   6.567
   77PMPE   H5S 4924   0.035   6.606   6.586
   77PMPE   C26 4925  -0.011   6.697   6.392
   77PMPE   H6R 4926   0.095   6.719   6.369
   77PMPE   H6S 4927  -0.064   6.781   6.343
   77PMPE   C27 4928  -0.057   6.565   6.332
   77PMPE   H7R 4929  -0.164   6.545   6.361
   77PMPE   H7S 4930   0.008   6.484   6.369
   77PMPE   C28 4931  -0.052   6.560   6.181
   77PMPE   H8R 4932   0.037   6.608   6.135
   77PMPE   H8S 4933  -0.142   6.611   6.157
   77PMPE   C29 4934  -0.080   6.422   6.132
   77PMPE   H9R 4935  -0.164   6.367   6.179
   77PMPE  C217 4936   0.052   6.351   6.113
   77PMPE  H17R 4937   0.050   6.270   6.177
   77PMPE  H17S 4938   0.142   6.409   6.108
   77PMPE  C210 4939  -0.045   6.366   5.998
   77PMPE  H10R 4940  -0.105   6.279   5.967
   77PMPE  C211 4941   0.017   6.447   5.889
   77PMPE  H11R 4942   0.024   6.381   5.800
   77PMPE  H11S 4943   0.119   6.485   5.914
   77PMPE  C212 4944  -0.067   6.564   5.851
   77PMPE  H12R 4945  -0.007   6.605   5.766
   77PMPE  H12S 4946  -0.070   6.636   5.934
   77PMPE  C213 4947  -0.210   6.540   5.807
   77PMPE  H13R 4948  -0.250   6.632   5.764
   77PMPE  H13S 4949  -0.277   6.505   5.888
   77PMPE  C214 4950  -0.219   6.451   5.690
   77PMPE  H14R 4951  -0.324   6.448   5.649
   77PMPE  H14S 4952  -0.188   6.348   5.714
   77PMPE  C215 4953  -0.126   6.495   5.586
   77PMPE  H15R 4954  -0.018   6.471   5.595
   77PMPE  H15S 4955  -0.128   6.606   5.562
   77PMPE  C216 4956  -0.187   6.408   5.482
   77PMPE  H16R 4957  -0.148   6.316   5.438
   77PMPE  H16S 4958  -0.284   6.436   5.443
   77PMPE  H16T 4959  -0.128   6.471   5.430
   77PMPE   C33 4960   0.374   6.834   6.494
   77PMPE   H3X 4961   0.345   6.919   6.431
   77PMPE   H3Y 4962   0.301   6.751   6.496
   77PMPE   C34 4963   0.497   6.763   6.433
   77PMPE   H4X 4964   0.515   6.674   6.496
   77PMPE   H4Y 4965   0.587   6.824   6.426
   77PMPE   C35 4966   0.513   6.711   6.293
   77PMPE   H5X 4967   0.428   6.643   6.282
   77PMPE   H5Y 4968   0.613   6.659   6.290
   77PMPE   C36 4969   0.515   6.819   6.188
   77PMPE   H6X 4970   0.602   6.877   6.190
   77PMPE   H6Y 4971   0.436   6.893   6.207
   77PMPE   C37 4972   0.535   6.771   6.049
   77PMPE   H7X 4973   0.626   6.711   6.028
   77PMPE   H7Y 4974   0.538   6.863   5.985
   77PMPE   C38 4975   0.416   6.689   6.030
   77PMPE   H8X 4976   0.334   6.728   6.097
   77PMPE   H8Y 4977   0.418   6.581   6.050
   77PMPE   C39 4978   0.378   6.719   5.895
   77PMPE   H9X 4979   0.379   6.829   5.874
   77PMPE   H9Y 4980   0.283   6.660   5.887
   77PMPE  C310 4981   0.455   6.708   5.781
   77PMPE  H10X 4982   0.559   6.747   5.787
   77PMPE  H10Y 4983   0.406   6.767   5.698
   77PMPE  C311 4984   0.429   6.567   5.765
   77PMPE  H11X 4985   0.323   6.540   5.747
   77PMPE  H11Y 4986   0.478   6.495   5.836
   77PMPE  C312 4987   0.499   6.569   5.648
   77PMPE  H12X 4988   0.526   6.465   5.659
   77PMPE  H12Y 4989   0.592   6.601   5.673
   77PMPE  C313 4990   0.461   6.645   5.520
   77PMPE  H13X 4991   0.530   6.597   5.462
   77PMPE  H13Y 4992   0.530   6.732   5.507
   77PMPE  C314 4993   0.313   6.649   5.447
   77PMPE  H14X 4994   0.358   6.720   5.370
   77PMPE  H14Y 4995   0.264   6.717   5.518
   77PMPE  C315 4996   0.213   6.512   5.368
   77PMPE  H15X 4997   0.149   6.562   5.310
   77PMPE  H15Y 4998   0.161   6.491   5.462
   77PMPE  C316 4999   0.234   6.357   5.246
   77PMPE  H16X 5000   0.320   6.348   5.171
   77PMPE  H16Y 5001   0.206   6.260   5.288
   77PMPE  H16Z 5002   0.332   6.296   5.241
   78PMPE     N 5003   0.459   7.425   7.500
   78PMPE   HN1 5004   0.476   7.410   7.602
   78PMPE   HN2 5005   0.376   7.483   7.479
   78PMPE   HN3 5006   0.449   7.331   7.456
   78PMPE   C12 5007   0.582   7.475   7.432
   78PMPE  H12A 5008   0.592   7.584   7.449
   78PMPE  H12B 5009   0.566   7.456   7.323
   78PMPE   C11 5010   0.697   7.389   7.484
   78PMPE  H11A 5011   0.718   7.414   7.590
   78PMPE  H11B 5012   0.793   7.414   7.431
   78PMPE     P 5013   0.691   7.170   7.344
   78PMPE   O13 5014   0.750   7.038   7.373
   78PMPE   O14 5015   0.753   7.268   7.257
   78PMPE   O11 5016   0.554   7.158   7.274
   78PMPE   O12 5017   0.659   7.250   7.478
   78PMPE    C1 5018   0.452   7.081   7.331
   78PMPE    HA 5019   0.438   7.108   7.437
   78PMPE    HB 5020   0.483   6.974   7.327
   78PMPE    C2 5021   0.323   7.105   7.248
   78PMPE    HS 5022   0.253   7.025   7.281
   78PMPE   O21 5023   0.342   7.105   7.106
   78PMPE   C21 5024   0.426   7.018   7.057
   78PMPE   O22 5025   0.464   6.917   7.115
   78PMPE   C22 5026   0.446   7.060   6.911
   78PMPE   H2R 5027   0.410   7.161   6.897
   78PMPE   H2S 5028   0.374   7.018   6.843
   78PMPE    C3 5029   0.256   7.241   7.271
   78PMPE    HX 5030   0.220   7.254   7.374
   78PMPE    HY 5031   0.165   7.237   7.205
   78PMPE   O31 5032   0.352   7.346   7.237
   78PMPE   C31 5033   0.320   7.415   7.126
   78PMPE   O32 5034   0.206   7.435   7.089
   78PMPE   C32 5035   0.446   7.469   7.058
   78PMPE   H2X 5036   0.514   7.384   7.036
   78PMPE   H2Y 5037   0.498   7.539   7.127
   78PMPE   C23 5038   0.587   7.037   6.860
   78PMPE   H3R 5039   0.655   7.086   6.934
   78PMPE   H3S 5040   0.603   7.079   6.759
   78PMPE   C24 5041   0.633   6.893   6.859
   78PMPE   H4R 5042   0.614   6.842   6.956
   78PMPE   H4S 5043   0.739   6.921   6.832
   78PMPE   C25 5044   0.635   6.790   6.754
   78PMPE   H5R 5045   0.541   6.751   6.756
   78PMPE   H5S 5046   0.667   6.688   6.762
   78PMPE   C26 5047   0.675   6.840   6.625
   78PMPE   H6R 5048   0.615   6.924   6.587
   78PMPE   H6S 5049   0.670   6.739   6.575
   78PMPE   C27 5050   0.810   6.875   6.587
   78PMPE   H7R 5051   0.854   6.784   6.612
   78PMPE   H7S 5052   0.849   6.955   6.650
   78PMPE   C28 5053   0.830   6.890   6.437
   78PMPE   H8R 5054   0.793   6.804   6.375
   78PMPE   H8S 5055   0.942   6.886   6.435
   78PMPE   C29 5056   0.785   7.030   6.392
   78PMPE   H9R 5057   0.795   7.107   6.470
   78PMPE  C217 5058   0.646   7.056   6.333
   78PMPE  H17R 5059   0.597   7.149   6.347
   78PMPE  H17S 5060   0.582   6.978   6.338
   78PMPE  C210 5061   0.769   7.062   6.245
   78PMPE  H10R 5062   0.797   7.165   6.219
   78PMPE  C211 5063   0.804   6.959   6.138
   78PMPE  H11R 5064   0.785   6.997   6.035
   78PMPE  H11S 5065   0.768   6.854   6.140
   78PMPE  C212 5066   0.942   6.915   6.152
   78PMPE  H12R 5067   0.944   6.863   6.058
   78PMPE  H12S 5068   0.969   6.851   6.238
   78PMPE  C213 5069   1.041   7.008   6.113
   78PMPE  H13R 5070   1.133   6.943   6.110
   78PMPE  H13S 5071   1.047   7.091   6.186
   78PMPE  C214 5072   1.023   7.064   5.974
   78PMPE  H14R 5073   1.128   7.085   5.965
   78PMPE  H14S 5074   0.952   7.148   5.966
   78PMPE  C215 5075   1.025   6.979   5.850
   78PMPE  H15R 5076   0.930   6.934   5.873
   78PMPE  H15S 5077   1.114   6.911   5.851
   78PMPE  C216 5078   1.014   7.052   5.717
   78PMPE  H16R 5079   1.074   7.145   5.721
   78PMPE  H16S 5080   1.053   6.988   5.635
   78PMPE  H16T 5081   0.909   7.079   5.693
   78PMPE   C33 5082   0.410   7.542   6.927
   78PMPE   H3X 5083   0.498   7.600   6.893
   78PMPE   H3Y 5084   0.328   7.615   6.946
   78PMPE   C34 5085   0.371   7.443   6.815
   78PMPE   H4X 5086   0.303   7.493   6.743
   78PMPE   H4Y 5087   0.316   7.358   6.862
   78PMPE   C35 5088   0.489   7.384   6.736
   78PMPE   H5X 5089   0.449   7.302   6.672
   78PMPE   H5Y 5090   0.560   7.337   6.807
   78PMPE   C36 5091   0.560   7.484   6.643
   78PMPE   H6X 5092   0.583   7.578   6.697
   78PMPE   H6Y 5093   0.493   7.507   6.557
   78PMPE   C37 5094   0.685   7.424   6.579
   78PMPE   H7X 5095   0.660   7.328   6.530
   78PMPE   H7Y 5096   0.746   7.389   6.662
   78PMPE   C38 5097   0.762   7.515   6.481
   78PMPE   H8X 5098   0.853   7.458   6.450
   78PMPE   H8Y 5099   0.795   7.609   6.530
   78PMPE   C39 5100   0.690   7.556   6.352
   78PMPE   H9X 5101   0.767   7.600   6.284
   78PMPE   H9Y 5102   0.617   7.637   6.373
   78PMPE  C310 5103   0.620   7.437   6.286
   78PMPE  H10X 5104   0.522   7.421   6.337
   78PMPE  H10Y 5105   0.683   7.348   6.303
   78PMPE  C311 5106   0.594   7.455   6.136
   78PMPE  H11X 5107   0.694   7.462   6.086
   78PMPE  H11Y 5108   0.539   7.549   6.117
   78PMPE  C312 5109   0.517   7.339   6.071
   78PMPE  H12X 5110   0.409   7.340   6.097
   78PMPE  H12Y 5111   0.560   7.243   6.107
   78PMPE  C313 5112   0.531   7.346   5.919
   78PMPE  H13X 5113   0.636   7.321   5.894
   78PMPE  H13Y 5114   0.511   7.448   5.883
   78PMPE  C314 5115   0.434   7.250   5.851
   78PMPE  H14X 5116   0.329   7.287   5.863
   78PMPE  H14Y 5117   0.441   7.150   5.899
   78PMPE  C315 5118   0.462   7.228   5.704
   78PMPE  H15X 5119   0.454   7.325   5.649
   78PMPE  H15Y 5120   0.377   7.162   5.677
   78PMPE  C316 5121   0.590   7.152   5.670
   78PMPE  H16X 5122   0.625   7.163   5.566
   78PMPE  H16Y 5123   0.578   7.043   5.686
   78PMPE  H16Z 5124   0.671   7.192   5.734
   79PMPE     N 5125   7.776   1.210   7.456
   79PMPE   HN1 5126   7.861   1.254   7.412
   79PMPE   HN2 5127   7.800   1.128   7.513
   79PMPE   HN3 5128   7.713   1.185   7.377
   79PMPE   C12 5129   7.708   1.316   7.537
   79PMPE  H12A 5130   7.780   1.366   7.602
   79PMPE  H12B 5131   7.630   1.268   7.600
   79PMPE   C11 5132   7.656   1.428   7.447
   79PMPE  H11A 5133   7.641   1.522   7.507
   79PMPE  H11B 5134   7.556   1.396   7.411
   79PMPE     P 5135   7.864   1.555   7.346
   79PMPE   O13 5136   7.957   1.503   7.449
   79PMPE   O14 5137   7.811   1.693   7.357
   79PMPE   O11 5138   7.930   1.535   7.204
   79PMPE   O12 5139   7.744   1.449   7.337
   79PMPE    C1 5140   7.846   1.537   7.090
   79PMPE    HA 5141   7.857   1.633   7.035
   79PMPE    HB 5142   7.737   1.526   7.115
   79PMPE    C2 5143   7.880   1.419   6.997
   79PMPE    HS 5144   7.861   1.327   7.057
   79PMPE   O21 5145   8.017   1.427   6.950
   79PMPE   C21 5146   8.091   1.319   6.968
   79PMPE   O22 5147   8.057   1.216   7.024
   79PMPE   C22 5148   8.228   1.337   6.902
   79PMPE   H2R 5149   8.304   1.335   6.983
   79PMPE   H2S 5150   8.237   1.436   6.855
   79PMPE    C3 5151   7.781   1.418   6.878
   79PMPE    HX 5152   7.678   1.412   6.921
   79PMPE    HY 5153   7.804   1.325   6.821
   79PMPE   O31 5154   7.792   1.536   6.795
   79PMPE   C31 5155   7.726   1.522   6.681
   79PMPE   O32 5156   7.662   1.424   6.649
   79PMPE   C32 5157   7.740   1.650   6.597
   79PMPE   H2X 5158   7.676   1.727   6.644
   79PMPE   H2Y 5159   7.699   1.626   6.496
   79PMPE   C23 5160   8.255   1.224   6.801
   79PMPE   H3R 5161   8.219   1.124   6.836
   79PMPE   H3S 5162   8.364   1.216   6.785
   79PMPE   C24 5163   8.201   1.261   6.665
   79PMPE   H4R 5164   8.256   1.351   6.629
   79PMPE   H4S 5165   8.093   1.281   6.671
   79PMPE   C25 5166   8.217   1.151   6.565
   79PMPE   H5R 5167   8.188   1.051   6.605
   79PMPE   H5S 5168   8.328   1.149   6.551
   79PMPE   C26 5169   8.138   1.178   6.435
   79PMPE   H6R 5170   8.138   1.089   6.371
   79PMPE   H6S 5171   8.185   1.262   6.379
   79PMPE   C27 5172   7.987   1.183   6.445
   79PMPE   H7R 5173   7.963   1.274   6.501
   79PMPE   H7S 5174   7.957   1.090   6.501
   79PMPE   C28 5175   7.916   1.178   6.307
   79PMPE   H8R 5176   7.939   1.081   6.257
   79PMPE   H8S 5177   7.955   1.259   6.242
   79PMPE   C29 5178   7.766   1.198   6.328
   79PMPE   H9R 5179   7.733   1.285   6.387
   79PMPE  C217 5180   7.702   1.065   6.370
   79PMPE  H17R 5181   7.639   1.079   6.456
   79PMPE  H17S 5182   7.772   0.985   6.357
   79PMPE  C210 5183   7.657   1.137   6.243
   79PMPE  H10R 5184   7.559   1.187   6.252
   79PMPE  C211 5185   7.688   1.073   6.108
   79PMPE  H11R 5186   7.612   0.994   6.088
   79PMPE  H11S 5187   7.788   1.025   6.107
   79PMPE  C212 5188   7.683   1.180   5.998
   79PMPE  H12R 5189   7.737   1.271   6.030
   79PMPE  H12S 5190   7.577   1.208   5.976
   79PMPE  C213 5191   7.746   1.138   5.867
   79PMPE  H13R 5192   7.703   1.040   5.845
   79PMPE  H13S 5193   7.856   1.124   5.871
   79PMPE  C214 5194   7.706   1.235   5.759
   79PMPE  H14R 5195   7.736   1.340   5.780
   79PMPE  H14S 5196   7.596   1.234   5.744
   79PMPE  C215 5197   7.766   1.190   5.630
   79PMPE  H15R 5198   7.704   1.103   5.603
   79PMPE  H15S 5199   7.877   1.177   5.628
   79PMPE  C216 5200   7.732   1.283   5.528
   79PMPE  H16R 5201   7.626   1.275   5.497
   79PMPE  H16S 5202   7.746   1.380   5.581
   79PMPE  H16T 5203   7.797   1.279   5.437
   79PMPE   C33 5204   7.886   1.697   6.580
   79PMPE   H3X 5205   7.946   1.618   6.530
   79PMPE   H3Y 5206   7.931   1.718   6.680
   79PMPE   C34 5207   7.904   1.824   6.496
   79PMPE   H4X 5208   8.012   1.834   6.469
   79PMPE   H4Y 5209   7.873   1.909   6.560
   79PMPE   C35 5210   7.817   1.842   6.372
   79PMPE   H5X 5211   7.849   1.938   6.324
   79PMPE   H5Y 5212   7.711   1.853   6.405
   79PMPE   C36 5213   7.832   1.732   6.267
   79PMPE   H6X 5214   7.810   1.632   6.310
   79PMPE   H6Y 5215   7.938   1.735   6.234
   79PMPE   C37 5216   7.740   1.757   6.147
   79PMPE   H7X 5217   7.737   1.867   6.132
   79PMPE   H7Y 5218   7.637   1.722   6.171
   79PMPE   C38 5219   7.791   1.693   6.017
   79PMPE   H8X 5220   7.707   1.677   5.945
   79PMPE   H8Y 5221   7.834   1.593   6.041
   79PMPE   C39 5222   7.894   1.783   5.950
   79PMPE   H9X 5223   7.973   1.812   6.024
   79PMPE   H9Y 5224   7.843   1.878   5.920
   79PMPE  C310 5225   7.957   1.720   5.826
   79PMPE  H10X 5226   7.972   1.800   5.749
   79PMPE  H10Y 5227   7.887   1.646   5.784
   79PMPE  C311 5228   8.092   1.648   5.853
   79PMPE  H11X 5229   8.084   1.561   5.919
   79PMPE  H11Y 5230   8.148   1.720   5.919
   79PMPE  C312 5231   8.159   1.619   5.715
   79PMPE  H12X 5232   8.126   1.702   5.651
   79PMPE  H12Y 5233   8.111   1.537   5.658
   79PMPE  C313 5234   8.315   1.600   5.707
   79PMPE  H13X 5235   8.388   1.635   5.784
   79PMPE  H13Y 5236   8.365   1.613   5.610
   79PMPE  C314 5237   8.343   1.475   5.758
   79PMPE  H14X 5238   8.244   1.428   5.751
   79PMPE  H14Y 5239   8.336   1.486   5.871
   79PMPE  C315 5240   8.484   1.412   5.718
   79PMPE  H15X 5241   8.492   1.301   5.708
   79PMPE  H15Y 5242   8.539   1.368   5.796
   79PMPE  C316 5243   8.536   1.409   5.588
   79PMPE  H16X 5244   8.538   1.493   5.530
   79PMPE  H16Y 5245   8.435   1.397   5.557
   79PMPE  H16Z 5246   8.584   1.313   5.553
   80PMPE     N 5247   0.857   8.245   7.204
   80PMPE   HN1 5248   0.896   8.210   7.115
   80PMPE   HN2 5249   0.760   8.210   7.215
   80PMPE   HN3 5250   0.857   8.349   7.199
   80PMPE   C12 5251   0.948   8.197   7.316
   80PMPE  H12A 5252   0.902   8.229   7.412
   80PMPE  H12B 5253   1.042   8.255   7.307
   80PMPE   C11 5254   0.974   8.043   7.311
   80PMPE  H11A 5255   1.053   8.022   7.235
   80PMPE  H11B 5256   0.884   7.989   7.277
   80PMPE     P 5257   1.133   7.893   7.472
   80PMPE   O13 5258   1.097   7.755   7.433
   80PMPE   O14 5259   1.187   7.917   7.608
   80PMPE   O11 5260   1.238   7.943   7.369
   80PMPE   O12 5261   1.010   7.993   7.440
   80PMPE    C1 5262   1.324   8.053   7.394
   80PMPE    HA 5263   1.410   8.023   7.461
   80PMPE    HB 5264   1.275   8.142   7.439
   80PMPE    C2 5265   1.386   8.094   7.262
   80PMPE    HS 5266   1.456   8.181   7.280
   80PMPE   O21 5267   1.296   8.109   7.152
   80PMPE   C21 5268   1.261   8.232   7.136
   80PMPE   O22 5269   1.311   8.328   7.187
   80PMPE   C22 5270   1.148   8.235   7.034
   80PMPE   H2R 5271   1.063   8.175   7.069
   80PMPE   H2S 5272   1.189   8.187   6.943
   80PMPE    C3 5273   1.474   7.979   7.231
   80PMPE    HX 5274   1.534   7.959   7.322
   80PMPE    HY 5275   1.539   8.033   7.166
   80PMPE   O31 5276   1.417   7.855   7.186
   80PMPE   C31 5277   1.431   7.795   7.073
   80PMPE   O32 5278   1.500   7.818   6.979
   80PMPE   C32 5279   1.354   7.672   7.067
   80PMPE   H2X 5280   1.258   7.693   7.117
   80PMPE   H2Y 5281   1.412   7.596   7.122
   80PMPE   C23 5282   1.101   8.378   7.004
   80PMPE   H3R 5283   1.192   8.441   7.006
   80PMPE   H3S 5284   1.040   8.420   7.086
   80PMPE   C24 5285   1.037   8.393   6.865
   80PMPE   H4R 5286   1.117   8.376   6.791
   80PMPE   H4S 5287   1.005   8.498   6.849
   80PMPE   C25 5288   0.927   8.293   6.823
   80PMPE   H5R 5289   0.843   8.291   6.895
   80PMPE   H5S 5290   0.972   8.191   6.819
   80PMPE   C26 5291   0.870   8.326   6.683
   80PMPE   H6R 5292   0.823   8.427   6.688
   80PMPE   H6S 5293   0.790   8.254   6.659
   80PMPE   C27 5294   0.977   8.330   6.571
   80PMPE   H7R 5295   1.062   8.264   6.600
   80PMPE   H7S 5296   1.015   8.434   6.564
   80PMPE   C28 5297   0.938   8.288   6.428
   80PMPE   H8R 5298   0.913   8.179   6.419
   80PMPE   H8S 5299   1.024   8.309   6.362
   80PMPE   C29 5300   0.824   8.369   6.375
   80PMPE   H9R 5301   0.800   8.467   6.421
   80PMPE  C217 5302   0.711   8.276   6.344
   80PMPE  H17R 5303   0.623   8.308   6.304
   80PMPE  H17S 5304   0.712   8.170   6.345
   80PMPE  C210 5305   0.781   8.354   6.234
   80PMPE  H10R 5306   0.720   8.437   6.190
   80PMPE  C211 5307   0.835   8.251   6.146
   80PMPE  H11R 5308   0.832   8.150   6.193
   80PMPE  H11S 5309   0.939   8.280   6.123
   80PMPE  C212 5310   0.750   8.245   6.023
   80PMPE  H12R 5311   0.747   8.346   5.974
   80PMPE  H12S 5312   0.644   8.221   6.044
   80PMPE  C213 5313   0.820   8.146   5.932
   80PMPE  H13R 5314   0.914   8.184   5.890
   80PMPE  H13S 5315   0.741   8.142   5.859
   80PMPE  C214 5316   0.822   7.998   5.949
   80PMPE  H14R 5317   0.868   7.955   6.035
   80PMPE  H14S 5318   0.872   7.955   5.856
   80PMPE  C215 5319   0.682   7.960   5.958
   80PMPE  H15R 5320   0.600   8.031   5.991
   80PMPE  H15S 5321   0.674   7.857   6.003
   80PMPE  C216 5322   0.658   7.943   5.818
   80PMPE  H16R 5323   0.568   7.907   5.857
   80PMPE  H16S 5324   0.623   8.018   5.744
   80PMPE  H16T 5325   0.728   7.871   5.772
   80PMPE   C33 5326   1.345   7.639   6.917
   80PMPE   H3X 5327   1.299   7.538   6.912
   80PMPE   H3Y 5328   1.445   7.634   6.869
   80PMPE   C34 5329   1.286   7.746   6.824
   80PMPE   H4X 5330   1.348   7.837   6.819
   80PMPE   H4Y 5331   1.188   7.773   6.866
   80PMPE   C35 5332   1.275   7.701   6.679
   80PMPE   H5X 5333   1.233   7.605   6.692
   80PMPE   H5Y 5334   1.364   7.688   6.618
   80PMPE   C36 5335   1.189   7.784   6.587
   80PMPE   H6X 5336   1.250   7.874   6.573
   80PMPE   H6Y 5337   1.092   7.809   6.634
   80PMPE   C37 5338   1.162   7.710   6.455
   80PMPE   H7X 5339   1.098   7.625   6.482
   80PMPE   H7Y 5340   1.255   7.666   6.412
   80PMPE   C38 5341   1.087   7.795   6.352
   80PMPE   H8X 5342   0.991   7.829   6.397
   80PMPE   H8Y 5343   1.061   7.731   6.265
   80PMPE   C39 5344   1.171   7.915   6.305
   80PMPE   H9X 5345   1.264   7.875   6.262
   80PMPE   H9Y 5346   1.204   7.981   6.387
   80PMPE  C310 5347   1.105   8.007   6.202
   80PMPE  H10X 5348   1.028   8.066   6.254
   80PMPE  H10Y 5349   1.053   7.950   6.121
   80PMPE  C311 5350   1.207   8.110   6.150
   80PMPE  H11X 5351   1.297   8.116   6.215
   80PMPE  H11Y 5352   1.160   8.209   6.133
   80PMPE  C312 5353   1.259   8.066   6.020
   80PMPE  H12X 5354   1.168   8.054   5.956
   80PMPE  H12Y 5355   1.305   7.974   6.038
   80PMPE  C313 5356   1.391   8.108   5.958
   80PMPE  H13X 5357   1.425   8.064   5.861
   80PMPE  H13Y 5358   1.485   8.098   6.016
   80PMPE  C314 5359   1.345   8.233   5.915
   80PMPE  H14X 5360   1.416   8.250   5.841
   80PMPE  H14Y 5361   1.385   8.290   6.001
   80PMPE  C315 5362   1.203   8.245   5.844
   80PMPE  H15X 5363   1.151   8.338   5.813
   80PMPE  H15Y 5364   1.125   8.250   5.920
   80PMPE  C316 5365   1.198   8.200   5.699
   80PMPE  H16X 5366   1.185   8.094   5.688
   80PMPE  H16Y 5367   1.288   8.229   5.644
   80PMPE  H16Z 5368   1.112   8.247   5.650
   81PMPE     N 5369   7.969   0.952   7.553
   81PMPE   HN1 5370   8.068   0.918   7.545
   81PMPE   HN2 5371   7.972   1.054   7.537
   81PMPE   HN3 5372   7.935   0.936   7.651
   81PMPE   C12 5373   7.884   0.884   7.448
   81PMPE  H12A 5374   7.923   0.915   7.349
   81PMPE  H12B 5375   7.779   0.920   7.458
   81PMPE   C11 5376   7.887   0.732   7.463
   81PMPE  H11A 5377   7.811   0.686   7.395
   81PMPE  H11B 5378   7.858   0.699   7.565
   81PMPE     P 5379   8.051   0.567   7.336
   81PMPE   O13 5380   8.014   0.441   7.403
   81PMPE   O14 5381   8.188   0.588   7.287
   81PMPE   O11 5382   7.944   0.600   7.225
   81PMPE   O12 5383   8.020   0.687   7.437
   81PMPE    C1 5384   7.971   0.664   7.101
   81PMPE    HA 5385   8.079   0.671   7.076
   81PMPE    HB 5386   7.929   0.766   7.104
   81PMPE    C2 5387   7.895   0.583   6.995
   81PMPE    HS 5388   7.792   0.572   7.035
   81PMPE   O21 5389   7.966   0.455   6.983
   81PMPE   C21 5390   7.877   0.372   6.929
   81PMPE   O22 5391   7.770   0.411   6.890
   81PMPE   C22 5392   7.927   0.238   6.891
   81PMPE   H2R 5393   7.967   0.175   6.973
   81PMPE   H2S 5394   8.009   0.280   6.828
   81PMPE    C3 5395   7.882   0.654   6.859
   81PMPE    HX 5396   7.832   0.752   6.867
   81PMPE    HY 5397   7.830   0.596   6.778
   81PMPE   O31 5398   8.013   0.672   6.825
   81PMPE   C31 5399   8.023   0.743   6.725
   81PMPE   O32 5400   7.933   0.789   6.654
   81PMPE   C32 5401   8.161   0.724   6.697
   81PMPE   H2X 5402   8.193   0.621   6.728
   81PMPE   H2Y 5403   8.236   0.803   6.729
   81PMPE   C23 5404   7.846   0.159   6.783
   81PMPE   H3R 5405   7.742   0.146   6.807
   81PMPE   H3S 5406   7.881   0.052   6.781
   81PMPE   C24 5407   7.885   0.219   6.646
   81PMPE   H4R 5408   7.874   0.144   6.567
   81PMPE   H4S 5409   7.991   0.251   6.647
   81PMPE   C25 5410   7.822   0.344   6.595
   81PMPE   H5R 5411   7.831   0.421   6.673
   81PMPE   H5S 5412   7.722   0.311   6.579
   81PMPE   C26 5413   7.864   0.399   6.458
   81PMPE   H6R 5414   7.859   0.317   6.382
   81PMPE   H6S 5415   7.965   0.444   6.456
   81PMPE   C27 5416   7.773   0.514   6.418
   81PMPE   H7R 5417   7.820   0.585   6.348
   81PMPE   H7S 5418   7.731   0.568   6.508
   81PMPE   C28 5419   7.664   0.459   6.333
   81PMPE   H8R 5420   7.620   0.397   6.411
   81PMPE   H8S 5421   7.695   0.375   6.270
   81PMPE   C29 5422   7.589   0.574   6.259
   81PMPE   H9R 5423   7.564   0.661   6.319
   81PMPE  C217 5424   7.507   0.533   6.135
   81PMPE  H17R 5425   7.419   0.576   6.097
   81PMPE  H17S 5426   7.478   0.447   6.182
   81PMPE  C210 5427   7.618   0.626   6.121
   81PMPE  H10R 5428   7.550   0.706   6.077
   81PMPE  C211 5429   7.684   0.535   6.026
   81PMPE  H11R 5430   7.651   0.436   6.046
   81PMPE  H11S 5431   7.785   0.515   6.057
   81PMPE  C212 5432   7.646   0.571   5.884
   81PMPE  H12R 5433   7.537   0.581   5.865
   81PMPE  H12S 5434   7.682   0.500   5.805
   81PMPE  C213 5435   7.724   0.683   5.855
   81PMPE  H13R 5436   7.830   0.657   5.881
   81PMPE  H13S 5437   7.683   0.768   5.915
   81PMPE  C214 5438   7.715   0.696   5.712
   81PMPE  H14R 5439   7.614   0.686   5.664
   81PMPE  H14S 5440   7.780   0.617   5.667
   81PMPE  C215 5441   7.765   0.836   5.716
   81PMPE  H15R 5442   7.866   0.846   5.763
   81PMPE  H15S 5443   7.682   0.909   5.725
   81PMPE  C216 5444   7.811   0.875   5.598
   81PMPE  H16R 5445   7.823   0.978   5.570
   81PMPE  H16S 5446   7.770   0.894   5.509
   81PMPE  H16T 5447   7.722   0.816   5.553
   81PMPE   C33 5448   8.119   0.737   6.554
   81PMPE   H3X 5449   8.125   0.849   6.541
   81PMPE   H3Y 5450   8.061   0.654   6.505
   81PMPE   C34 5451   8.202   0.681   6.458
   81PMPE   H4X 5452   8.242   0.609   6.502
   81PMPE   H4Y 5453   8.281   0.749   6.523
   81PMPE   C35 5454   8.200   0.666   6.276
   81PMPE   H5X 5455   8.294   0.706   6.216
   81PMPE   H5Y 5456   8.222   0.739   6.191
   81PMPE   C36 5457   8.231   0.538   6.224
   81PMPE   H6X 5458   8.128   0.518   6.254
   81PMPE   H6Y 5459   8.279   0.461   6.276
   81PMPE   C37 5460   8.276   0.530   6.083
   81PMPE   H7X 5461   8.379   0.531   6.043
   81PMPE   H7Y 5462   8.257   0.619   6.022
   81PMPE   C38 5463   8.199   0.401   6.071
   81PMPE   H8X 5464   8.232   0.309   6.123
   81PMPE   H8Y 5465   8.201   0.372   5.972
   81PMPE   C39 5466   8.061   0.438   6.040
   81PMPE   H9X 5467   8.073   0.541   5.997
   81PMPE   H9Y 5468   8.009   0.435   6.137
   81PMPE  C310 5469   7.996   0.353   5.933
   81PMPE  H10X 5470   7.892   0.383   5.950
   81PMPE  H10Y 5471   8.004   0.244   5.956
   81PMPE  C311 5472   8.041   0.384   5.788
   81PMPE  H11X 5473   8.140   0.351   5.759
   81PMPE  H11Y 5474   8.041   0.492   5.764
   81PMPE  C312 5475   7.961   0.314   5.685
   81PMPE  H12X 5476   7.877   0.383   5.669
   81PMPE  H12Y 5477   7.937   0.209   5.716
   81PMPE  C313 5478   8.014   0.318   5.549
   81PMPE  H13X 5479   8.061   0.414   5.526
   81PMPE  H13Y 5480   7.948   0.315   5.465
   81PMPE  C314 5481   8.082   0.198   5.514
   81PMPE  H14X 5482   8.051   0.092   5.517
   81PMPE  H14Y 5483   8.152   0.204   5.592
   81PMPE  C315 5484   8.127   0.244   5.386
   81PMPE  H15X 5485   8.220   0.223   5.431
   81PMPE  H15Y 5486   8.169   0.344   5.363
   81PMPE  C316 5487   8.076   0.162   5.271
   81PMPE  H16X 5488   7.992   0.205   5.217
   81PMPE  H16Y 5489   8.087   0.051   5.275
   81PMPE  H16Z 5490   8.149   0.183   5.202
   82PMPE     N 5491   0.481  -0.106   7.581
   82PMPE   HN1 5492   0.508  -0.102   7.682
   82PMPE   HN2 5493   0.548  -0.166   7.530
   82PMPE   HN3 5494   0.486  -0.011   7.540
   82PMPE   C12 5495   0.339  -0.156   7.561
   82PMPE  H12A 5496   0.272  -0.075   7.595
   82PMPE  H12B 5497   0.325  -0.247   7.621
   82PMPE   C11 5498   0.304  -0.186   7.413
   82PMPE  H11A 5499   0.203  -0.233   7.404
   82PMPE  H11B 5500   0.375  -0.262   7.376
   82PMPE     P 5501   0.192   0.034   7.317
   82PMPE   O13 5502   0.222   0.138   7.416
   82PMPE   O14 5503   0.066  -0.044   7.331
   82PMPE   O11 5504   0.212   0.094   7.171
   82PMPE   O12 5505   0.315  -0.069   7.333
   82PMPE    C1 5506   0.341   0.118   7.113
   82PMPE    HA 5507   0.388   0.020   7.090
   82PMPE    HB 5508   0.406   0.177   7.181
   82PMPE    C2 5509   0.336   0.192   6.975
   82PMPE    HS 5510   0.306   0.299   6.995
   82PMPE   O21 5511   0.248   0.119   6.892
   82PMPE   C21 5512   0.135   0.168   6.890
   82PMPE   O22 5513   0.100   0.274   6.942
   82PMPE   C22 5514   0.071   0.076   6.781
   82PMPE   H2R 5515  -0.026   0.102   6.766
   82PMPE   H2S 5516   0.059  -0.028   6.814
   82PMPE    C3 5517   0.470   0.192   6.901
   82PMPE    HX 5518   0.482   0.088   6.865
   82PMPE    HY 5519   0.544   0.224   6.974
   82PMPE   O31 5520   0.482   0.278   6.790
   82PMPE   C31 5521   0.499   0.227   6.668
   82PMPE   O32 5522   0.531   0.115   6.638
   82PMPE   C32 5523   0.456   0.329   6.570
   82PMPE   H2X 5524   0.507   0.422   6.603
   82PMPE   H2Y 5525   0.345   0.325   6.559
   82PMPE   C23 5526   0.114   0.101   6.634
   82PMPE   H3R 5527   0.194   0.027   6.619
   82PMPE   H3S 5528   0.147   0.207   6.627
   82PMPE   C24 5529   0.011   0.078   6.520
   82PMPE   H4R 5530  -0.036   0.174   6.485
   82PMPE   H4S 5531  -0.068   0.005   6.550
   82PMPE   C25 5532   0.072   0.050   6.386
   82PMPE   H5R 5533   0.130  -0.043   6.397
   82PMPE   H5S 5534   0.138   0.138   6.365
   82PMPE   C26 5535  -0.037   0.034   6.280
   82PMPE   H6R 5536  -0.113   0.115   6.286
   82PMPE   H6S 5537  -0.087  -0.064   6.300
   82PMPE   C27 5538   0.015   0.029   6.138
   82PMPE   H7R 5539   0.068   0.125   6.122
   82PMPE   H7S 5540  -0.069   0.026   6.066
   82PMPE   C28 5541   0.110  -0.089   6.111
   82PMPE   H8R 5542   0.192  -0.093   6.187
   82PMPE   H8S 5543   0.156  -0.065   6.014
   82PMPE   C29 5544   0.037  -0.224   6.098
   82PMPE   H9R 5545  -0.057  -0.225   6.041
   82PMPE  C217 5546   0.049  -0.322   6.214
   82PMPE  H17R 5547  -0.034  -0.390   6.225
   82PMPE  H17S 5548   0.115  -0.289   6.292
   82PMPE  C210 5549   0.116  -0.352   6.081
   82PMPE  H10R 5550   0.064  -0.427   6.019
   82PMPE  C211 5551   0.268  -0.349   6.079
   82PMPE  H11R 5552   0.307  -0.453   6.085
   82PMPE  H11S 5553   0.308  -0.293   6.167
   82PMPE  C212 5554   0.315  -0.280   5.951
   82PMPE  H12R 5555   0.337  -0.175   5.978
   82PMPE  H12S 5556   0.234  -0.278   5.876
   82PMPE  C213 5557   0.429  -0.350   5.877
   82PMPE  H13R 5558   0.426  -0.458   5.868
   82PMPE  H13S 5559   0.512  -0.337   5.952
   82PMPE  C214 5560   0.447  -0.297   5.728
   82PMPE  H14R 5561   0.438  -0.188   5.749
   82PMPE  H14S 5562   0.396  -0.237   5.655
   82PMPE  C215 5563   0.572  -0.346   5.654
   82PMPE  H15R 5564   0.540  -0.439   5.605
   82PMPE  H15S 5565   0.656  -0.381   5.720
   82PMPE  C216 5566   0.628  -0.242   5.555
   82PMPE  H16R 5567   0.702  -0.302   5.516
   82PMPE  H16S 5568   0.558  -0.201   5.482
   82PMPE  H16T 5569   0.707  -0.167   5.579
   82PMPE   C33 5570   0.503   0.337   6.435
   82PMPE   H3X 5571   0.483   0.231   6.412
   82PMPE   H3Y 5572   0.602   0.392   6.429
   82PMPE   C34 5573   0.418   0.391   6.329
   82PMPE   H4X 5574   0.464   0.492   6.339
   82PMPE   H4Y 5575   0.315   0.375   6.366
   82PMPE   C35 5576   0.451   0.402   6.185
   82PMPE   H5X 5577   0.542   0.451   6.148
   82PMPE   H5Y 5578   0.395   0.492   6.174
   82PMPE   C36 5579   0.411   0.276   6.114
   82PMPE   H6X 5580   0.321   0.231   6.161
   82PMPE   H6Y 5581   0.493   0.214   6.154
   82PMPE   C37 5582   0.426   0.284   5.961
   82PMPE   H7X 5583   0.454   0.185   5.923
   82PMPE   H7Y 5584   0.496   0.368   5.937
   82PMPE   C38 5585   0.306   0.313   5.874
   82PMPE   H8X 5586   0.288   0.394   5.801
   82PMPE   H8Y 5587   0.289   0.390   5.937
   82PMPE   C39 5588   0.209   0.196   5.872
   82PMPE   H9X 5589   0.100   0.210   5.878
   82PMPE   H9Y 5590   0.221   0.122   5.951
   82PMPE  C310 5591   0.231   0.158   5.734
   82PMPE  H10X 5592   0.336   0.168   5.716
   82PMPE  H10Y 5593   0.207   0.254   5.682
   82PMPE  C311 5594   0.160   0.024   5.708
   82PMPE  H11X 5595   0.052   0.037   5.693
   82PMPE  H11Y 5596   0.167  -0.035   5.801
   82PMPE  C312 5597   0.219  -0.068   5.600
   82PMPE  H12X 5598   0.174  -0.165   5.596
   82PMPE  H12Y 5599   0.324  -0.069   5.633
   82PMPE  C313 5600   0.208  -0.024   5.456
   82PMPE  H13X 5601   0.233   0.077   5.484
   82PMPE  H13Y 5602   0.110  -0.003   5.423
   82PMPE  C314 5603   0.271  -0.108   5.338
   82PMPE  H14X 5604   0.202  -0.191   5.323
   82PMPE  H14Y 5605   0.372  -0.146   5.369
   82PMPE  C315 5606   0.275  -0.059   5.191
   82PMPE  H15X 5607   0.188  -0.004   5.155
   82PMPE  H15Y 5608   0.320  -0.110   5.099
   82PMPE  C316 5609   0.399   0.002   5.187
   82PMPE  H16X 5610   0.381   0.098   5.148
   82PMPE  H16Y 5611   0.450  -0.010   5.279
   82PMPE  H16Z 5612   0.444   0.101   5.205
   83PMPE     N 5613   2.612   3.830   3.355
   83PMPE   HN1 5614   2.698   3.818   3.298
   83PMPE   HN2 5615   2.580   3.735   3.385
   83PMPE   HN3 5616   2.542   3.871   3.289
   83PMPE   C12 5617   2.631   3.919   3.476
   83PMPE  H12A 5618   2.537   3.913   3.534
   83PMPE  H12B 5619   2.649   4.023   3.444
   83PMPE   C11 5620   2.749   3.873   3.561
   83PMPE  H11A 5621   2.760   3.937   3.651
   83PMPE  H11B 5622   2.842   3.884   3.503
   83PMPE     P 5623   2.839   3.648   3.660
   83PMPE   O13 5624   2.966   3.694   3.603
   83PMPE   O14 5625   2.799   3.508   3.641
   83PMPE   O11 5626   2.825   3.693   3.811
   83PMPE   O12 5627   2.725   3.737   3.594
   83PMPE    C1 5628   2.699   3.709   3.877
   83PMPE    HA 5629   2.613   3.678   3.813
   83PMPE    HB 5630   2.685   3.817   3.902
   83PMPE    C2 5631   2.692   3.627   4.008
   83PMPE    HS 5632   2.605   3.663   4.068
   83PMPE   O21 5633   2.817   3.640   4.080
   83PMPE   C21 5634   2.819   3.641   4.212
   83PMPE   O22 5635   2.724   3.627   4.287
   83PMPE   C22 5636   2.963   3.676   4.254
   83PMPE   H2R 5637   2.995   3.764   4.193
   83PMPE   H2S 5638   3.028   3.590   4.228
   83PMPE    C3 5639   2.664   3.479   3.969
   83PMPE    HX 5640   2.746   3.442   3.905
   83PMPE    HY 5641   2.570   3.477   3.908
   83PMPE   O31 5642   2.659   3.400   4.087
   83PMPE   C31 5643   2.546   3.343   4.117
   83PMPE   O32 5644   2.447   3.334   4.045
   83PMPE   C32 5645   2.568   3.275   4.251
   83PMPE   H2X 5646   2.668   3.293   4.294
   83PMPE   H2Y 5647   2.568   3.169   4.222
   83PMPE   C23 5648   2.978   3.717   4.402
   83PMPE   H3R 5649   2.910   3.802   4.425
   83PMPE   H3S 5650   3.083   3.752   4.418
   83PMPE   C24 5651   2.953   3.606   4.505
   83PMPE   H4R 5652   2.843   3.594   4.517
   83PMPE   H4S 5653   2.993   3.641   4.602
   83PMPE   C25 5654   3.025   3.475   4.467
   83PMPE   H5R 5655   3.126   3.505   4.433
   83PMPE   H5S 5656   2.976   3.424   4.381
   83PMPE   C26 5657   3.047   3.376   4.583
   83PMPE   H6R 5658   3.084   3.434   4.671
   83PMPE   H6S 5659   3.127   3.305   4.553
   83PMPE   C27 5660   2.926   3.292   4.624
   83PMPE   H7R 5661   2.932   3.193   4.575
   83PMPE   H7S 5662   2.832   3.338   4.588
   83PMPE   C28 5663   2.914   3.278   4.776
   83PMPE   H8R 5664   2.941   3.370   4.830
   83PMPE   H8S 5665   2.993   3.218   4.819
   83PMPE   C29 5666   2.778   3.221   4.811
   83PMPE   H9R 5667   2.736   3.139   4.751
   83PMPE  C217 5668   2.678   3.310   4.883
   83PMPE  H17R 5669   2.574   3.280   4.872
   83PMPE  H17S 5670   2.715   3.410   4.898
   83PMPE  C210 5671   2.757   3.204   4.957
   83PMPE  H10R 5672   2.693   3.121   4.994
   83PMPE  C211 5673   2.858   3.264   5.054
   83PMPE  H11R 5674   2.809   3.213   5.140
   83PMPE  H11S 5675   2.848   3.373   5.045
   83PMPE  C212 5676   3.014   3.256   5.071
   83PMPE  H12R 5677   3.074   3.267   4.984
   83PMPE  H12S 5678   3.036   3.161   5.103
   83PMPE  C213 5679   3.087   3.242   5.203
   83PMPE  H13R 5680   3.124   3.345   5.209
   83PMPE  H13S 5681   3.178   3.174   5.207
   83PMPE  C214 5682   2.985   3.186   5.304
   83PMPE  H14R 5683   2.957   3.089   5.340
   83PMPE  H14S 5684   2.889   3.221   5.297
   83PMPE  C215 5685   3.021   3.209   5.427
   83PMPE  H15R 5686   2.950   3.195   5.510
   83PMPE  H15S 5687   3.026   3.318   5.393
   83PMPE  C216 5688   3.136   3.126   5.456
   83PMPE  H16R 5689   3.151   3.024   5.483
   83PMPE  H16S 5690   3.220   3.157   5.390
   83PMPE  H16T 5691   3.137   3.169   5.559
   83PMPE   C33 5692   2.458   3.303   4.355
   83PMPE   H3X 5693   2.469   3.231   4.439
   83PMPE   H3Y 5694   2.358   3.282   4.311
   83PMPE   C34 5695   2.472   3.434   4.427
   83PMPE   H4X 5696   2.435   3.518   4.365
   83PMPE   H4Y 5697   2.581   3.451   4.441
   83PMPE   C35 5698   2.405   3.426   4.565
   83PMPE   H5X 5699   2.447   3.337   4.616
   83PMPE   H5Y 5700   2.299   3.403   4.571
   83PMPE   C36 5701   2.434   3.552   4.645
   83PMPE   H6X 5702   2.536   3.585   4.617
   83PMPE   H6Y 5703   2.440   3.520   4.750
   83PMPE   C37 5704   2.333   3.669   4.635
   83PMPE   H7X 5705   2.229   3.641   4.663
   83PMPE   H7Y 5706   2.330   3.707   4.530
   83PMPE   C38 5707   2.372   3.786   4.725
   83PMPE   H8X 5708   2.328   3.879   4.681
   83PMPE   H8Y 5709   2.483   3.799   4.724
   83PMPE   C39 5710   2.311   3.776   4.866
   83PMPE   H9X 5711   2.200   3.775   4.854
   83PMPE   H9Y 5712   2.337   3.867   4.925
   83PMPE  C310 5713   2.344   3.653   4.952
   83PMPE  H10X 5714   2.319   3.559   4.899
   83PMPE  H10Y 5715   2.277   3.655   5.041
   83PMPE  C311 5716   2.488   3.651   5.004
   83PMPE  H11X 5717   2.561   3.637   4.921
   83PMPE  H11Y 5718   2.495   3.560   5.066
   83PMPE  C312 5719   2.517   3.778   5.086
   83PMPE  H12X 5720   2.441   3.784   5.168
   83PMPE  H12Y 5721   2.514   3.871   5.027
   83PMPE  C313 5722   2.651   3.781   5.151
   83PMPE  H13X 5723   2.666   3.875   5.211
   83PMPE  H13Y 5724   2.738   3.768   5.082
   83PMPE  C314 5725   2.660   3.668   5.243
   83PMPE  H14X 5726   2.615   3.574   5.211
   83PMPE  H14Y 5727   2.589   3.679   5.326
   83PMPE  C315 5728   2.808   3.673   5.285
   83PMPE  H15X 5729   2.798   3.633   5.387
   83PMPE  H15Y 5730   2.829   3.781   5.284
   83PMPE  C316 5731   2.944   3.633   5.227
   83PMPE  H16X 5732   2.936   3.557   5.150
   83PMPE  H16Y 5733   3.007   3.594   5.312
   83PMPE  H16Z 5734   2.990   3.726   5.187
   84PMPE     N 5735   5.124   4.246   3.407
   84PMPE   HN1 5736   5.212   4.281   3.364
   84PMPE   HN2 5737   5.085   4.175   3.345
   84PMPE   HN3 5738   5.059   4.328   3.412
   84PMPE   C12 5739   5.145   4.186   3.543
   84PMPE  H12A 5740   5.188   4.264   3.609
   84PMPE  H12B 5741   5.218   4.104   3.531
   84PMPE   C11 5742   5.017   4.124   3.606
   84PMPE  H11A 5743   5.051   4.046   3.677
   84PMPE  H11B 5744   4.950   4.074   3.534
   84PMPE     P 5745   4.857   4.333   3.626
   84PMPE   O13 5746   4.773   4.268   3.523
   84PMPE   O14 5747   4.954   4.436   3.582
   84PMPE   O11 5748   4.772   4.384   3.749
   84PMPE   O12 5749   4.947   4.218   3.685
   84PMPE    C1 5750   4.693   4.289   3.823
   84PMPE    HA 5751   4.658   4.206   3.758
   84PMPE    HB 5752   4.600   4.339   3.858
   84PMPE    C2 5753   4.768   4.226   3.946
   84PMPE    HS 5754   4.719   4.270   4.037
   84PMPE   O21 5755   4.912   4.243   3.940
   84PMPE   C21 5756   4.955   4.351   4.000
   84PMPE   O22 5757   4.884   4.423   4.066
   84PMPE   C22 5758   5.107   4.371   3.983
   84PMPE   H2R 5759   5.143   4.457   4.043
   84PMPE   H2S 5760   5.128   4.393   3.876
   84PMPE    C3 5761   4.747   4.073   3.956
   84PMPE    HX 5762   4.799   4.028   3.869
   84PMPE    HY 5763   4.639   4.048   3.947
   84PMPE   O31 5764   4.810   4.023   4.076
   84PMPE   C31 5765   4.727   4.009   4.178
   84PMPE   O32 5766   4.606   4.012   4.172
   84PMPE   C32 5767   4.805   3.979   4.307
   84PMPE   H2X 5768   4.874   4.063   4.324
   84PMPE   H2Y 5769   4.863   3.887   4.297
   84PMPE   C23 5770   5.188   4.247   4.022
   84PMPE   H3R 5771   5.296   4.272   4.011
   84PMPE   H3S 5772   5.159   4.172   3.945
   84PMPE   C24 5773   5.153   4.184   4.158
   84PMPE   H4R 5774   5.182   4.077   4.151
   84PMPE   H4S 5775   5.043   4.183   4.175
   84PMPE   C25 5776   5.218   4.239   4.285
   84PMPE   H5R 5777   5.253   4.344   4.276
   84PMPE   H5S 5778   5.303   4.174   4.316
   84PMPE   C26 5779   5.118   4.233   4.398
   84PMPE   H6R 5780   5.075   4.130   4.404
   84PMPE   H6S 5781   5.035   4.303   4.373
   84PMPE   C27 5782   5.184   4.257   4.533
   84PMPE   H7R 5783   5.230   4.359   4.536
   84PMPE   H7S 5784   5.267   4.186   4.547
   84PMPE   C28 5785   5.081   4.230   4.640
   84PMPE   H8R 5786   5.119   4.241   4.744
   84PMPE   H8S 5787   5.020   4.139   4.630
   84PMPE   C29 5788   4.984   4.332   4.615
   84PMPE   H9R 5789   4.924   4.354   4.523
   84PMPE  C217 5790   5.054   4.453   4.659
   84PMPE  H17R 5791   5.054   4.513   4.569
   84PMPE  H17S 5792   5.141   4.457   4.722
   84PMPE  C210 5793   4.925   4.388   4.732
   84PMPE  H10R 5794   4.826   4.422   4.696
   84PMPE  C211 5795   4.944   4.357   4.890
   84PMPE  H11R 5796   5.046   4.387   4.923
   84PMPE  H11S 5797   4.927   4.250   4.904
   84PMPE  C212 5798   4.856   4.432   5.002
   84PMPE  H12R 5799   4.749   4.422   4.976
   84PMPE  H12S 5800   4.877   4.541   5.014
   84PMPE  C213 5801   4.878   4.388   5.149
   84PMPE  H13R 5802   4.953   4.306   5.146
   84PMPE  H13S 5803   4.780   4.350   5.186
   84PMPE  C214 5804   4.931   4.500   5.243
   84PMPE  H14R 5805   4.869   4.591   5.234
   84PMPE  H14S 5806   5.035   4.526   5.213
   84PMPE  C215 5807   4.940   4.469   5.394
   84PMPE  H15R 5808   5.003   4.378   5.410
   84PMPE  H15S 5809   4.839   4.451   5.435
   84PMPE  C216 5810   5.004   4.586   5.468
   84PMPE  H16R 5811   5.112   4.595   5.443
   84PMPE  H16S 5812   4.954   4.681   5.439
   84PMPE  H16T 5813   4.995   4.576   5.578
   84PMPE   C33 5814   4.711   3.952   4.424
   84PMPE   H3X 5815   4.695   3.842   4.430
   84PMPE   H3Y 5816   4.614   4.005   4.404
   84PMPE   C34 5817   4.751   4.010   4.558
   84PMPE   H4X 5818   4.657   4.022   4.619
   84PMPE   H4Y 5819   4.788   4.112   4.542
   84PMPE   C35 5820   4.860   3.938   4.634
   84PMPE   H5X 5821   4.962   3.952   4.598
   84PMPE   H5Y 5822   4.869   3.829   4.626
   84PMPE   C36 5823   4.838   3.986   4.775
   84PMPE   H6X 5824   4.736   3.984   4.820
   84PMPE   H6Y 5825   4.874   4.091   4.783
   84PMPE   C37 5826   4.928   3.909   4.856
   84PMPE   H7X 5827   5.027   3.919   4.805
   84PMPE   H7Y 5828   4.911   3.801   4.875
   84PMPE   C38 5829   4.933   3.980   4.982
   84PMPE   H8X 5830   4.840   4.025   5.022
   84PMPE   H8Y 5831   5.019   4.054   4.981
   84PMPE   C39 5832   4.965   3.887   5.084
   84PMPE   H9X 5833   5.051   3.849   5.075
   84PMPE   H9Y 5834   4.926   3.782   5.106
   84PMPE  C310 5835   5.046   3.972   5.175
   84PMPE  H10X 5836   5.026   3.882   5.241
   84PMPE  H10Y 5837   4.965   4.049   5.172
   84PMPE  C311 5838   5.178   4.067   5.197
   84PMPE  H11X 5839   5.166   4.145   5.124
   84PMPE  H11Y 5840   5.282   4.038   5.171
   84PMPE  C312 5841   5.235   4.113   5.338
   84PMPE  H12X 5842   5.160   4.187   5.364
   84PMPE  H12Y 5843   5.333   4.167   5.323
   84PMPE  C313 5844   5.278   4.008   5.444
   84PMPE  H13X 5845   5.353   3.939   5.409
   84PMPE  H13Y 5846   5.202   3.948   5.507
   84PMPE  C314 5847   5.287   4.032   5.567
   84PMPE  H14X 5848   5.401   4.008   5.560
   84PMPE  H14Y 5849   5.345   3.971   5.644
   84PMPE  C315 5850   5.198   4.179   5.580
   84PMPE  H15X 5851   5.229   4.266   5.519
   84PMPE  H15Y 5852   5.235   4.253   5.646
   84PMPE  C316 5853   5.073   4.216   5.659
   84PMPE  H16X 5854   5.013   4.226   5.578
   84PMPE  H16Y 5855   5.066   4.322   5.691
   84PMPE  H16Z 5856   5.043   4.145   5.739
   85PMPE     N 5857   4.040   2.490   3.301
   85PMPE   HN1 5858   4.015   2.558   3.225
   85PMPE   HN2 5859   4.140   2.499   3.330
   85PMPE   HN3 5860   4.019   2.394   3.267
   85PMPE   C12 5861   3.956   2.513   3.424
   85PMPE  H12A 5862   3.879   2.435   3.433
   85PMPE  H12B 5863   3.899   2.602   3.408
   85PMPE   C11 5864   4.034   2.520   3.553
   85PMPE  H11A 5865   3.974   2.569   3.633
   85PMPE  H11B 5866   4.129   2.578   3.542
   85PMPE     P 5867   4.153   2.334   3.695
   85PMPE   O13 5868   4.191   2.196   3.663
   85PMPE   O14 5869   4.093   2.363   3.826
   85PMPE   O11 5870   4.265   2.434   3.660
   85PMPE   O12 5871   4.054   2.383   3.583
   85PMPE    C1 5872   4.395   2.381   3.639
   85PMPE    HA 5873   4.438   2.413   3.541
   85PMPE    HB 5874   4.412   2.273   3.661
   85PMPE    C2 5875   4.476   2.441   3.742
   85PMPE    HS 5876   4.575   2.397   3.734
   85PMPE   O21 5877   4.429   2.409   3.871
   85PMPE   C21 5878   4.485   2.305   3.927
   85PMPE   O22 5879   4.579   2.237   3.888
   85PMPE   C22 5880   4.405   2.288   4.050
   85PMPE   H2R 5881   4.319   2.229   4.013
   85PMPE   H2S 5882   4.368   2.385   4.089
   85PMPE    C3 5883   4.474   2.593   3.718
   85PMPE    HX 5884   4.514   2.630   3.621
   85PMPE    HY 5885   4.557   2.587   3.788
   85PMPE   O31 5886   4.355   2.663   3.763
   85PMPE   C31 5887   4.343   2.730   3.875
   85PMPE   O32 5888   4.421   2.802   3.932
   85PMPE   C32 5889   4.204   2.748   3.920
   85PMPE   H2X 5890   4.141   2.662   3.896
   85PMPE   H2Y 5891   4.188   2.828   3.850
   85PMPE   C23 5892   4.477   2.219   4.162
   85PMPE   H3R 5893   4.530   2.287   4.229
   85PMPE   H3S 5894   4.546   2.137   4.129
   85PMPE   C24 5895   4.364   2.172   4.246
   85PMPE   H4R 5896   4.303   2.100   4.186
   85PMPE   H4S 5897   4.286   2.246   4.270
   85PMPE   C25 5898   4.419   2.116   4.375
   85PMPE   H5R 5899   4.508   2.048   4.363
   85PMPE   H5S 5900   4.325   2.063   4.399
   85PMPE   C26 5901   4.437   2.212   4.488
   85PMPE   H6R 5902   4.349   2.278   4.489
   85PMPE   H6S 5903   4.522   2.272   4.461
   85PMPE   C27 5904   4.465   2.147   4.623
   85PMPE   H7R 5905   4.531   2.212   4.684
   85PMPE   H7S 5906   4.518   2.050   4.610
   85PMPE   C28 5907   4.335   2.135   4.701
   85PMPE   H8R 5908   4.290   2.044   4.666
   85PMPE   H8S 5909   4.257   2.208   4.676
   85PMPE   C29 5910   4.355   2.128   4.849
   85PMPE   H9R 5911   4.433   2.188   4.900
   85PMPE  C217 5912   4.391   1.992   4.880
   85PMPE  H17R 5913   4.474   1.987   4.947
   85PMPE  H17S 5914   4.392   1.939   4.786
   85PMPE  C210 5915   4.257   2.045   4.930
   85PMPE  H10R 5916   4.250   2.078   5.035
   85PMPE  C211 5917   4.125   2.009   4.858
   85PMPE  H11R 5918   4.147   1.943   4.772
   85PMPE  H11S 5919   4.078   2.103   4.822
   85PMPE  C212 5920   4.014   1.943   4.942
   85PMPE  H12R 5921   4.053   1.853   4.990
   85PMPE  H12S 5922   3.932   1.911   4.874
   85PMPE  C213 5923   3.964   2.030   5.058
   85PMPE  H13R 5924   3.922   2.121   5.017
   85PMPE  H13S 5925   4.054   2.044   5.123
   85PMPE  C214 5926   3.853   1.972   5.146
   85PMPE  H14R 5927   3.914   1.888   5.155
   85PMPE  H14S 5928   3.769   1.915   5.102
   85PMPE  C215 5929   3.836   2.028   5.292
   85PMPE  H15R 5930   3.766   1.959   5.345
   85PMPE  H15S 5931   3.779   2.121   5.280
   85PMPE  C216 5932   3.962   2.058   5.384
   85PMPE  H16R 5933   4.039   1.983   5.406
   85PMPE  H16S 5934   4.033   2.128   5.338
   85PMPE  H16T 5935   3.936   2.066   5.492
   85PMPE   C33 5936   4.199   2.798   4.067
   85PMPE   H3X 5937   4.103   2.851   4.081
   85PMPE   H3Y 5938   4.278   2.870   4.100
   85PMPE   C34 5939   4.207   2.674   4.159
   85PMPE   H4X 5940   4.313   2.644   4.175
   85PMPE   H4Y 5941   4.153   2.592   4.107
   85PMPE   C35 5942   4.152   2.692   4.300
   85PMPE   H5X 5943   4.054   2.740   4.286
   85PMPE   H5Y 5944   4.213   2.771   4.345
   85PMPE   C36 5945   4.156   2.556   4.384
   85PMPE   H6X 5946   4.255   2.512   4.370
   85PMPE   H6Y 5947   4.082   2.488   4.334
   85PMPE   C37 5948   4.122   2.544   4.538
   85PMPE   H7X 5949   4.114   2.439   4.571
   85PMPE   H7Y 5950   4.022   2.561   4.579
   85PMPE   C38 5951   4.207   2.631   4.627
   85PMPE   H8X 5952   4.158   2.718   4.661
   85PMPE   H8Y 5953   4.294   2.671   4.574
   85PMPE   C39 5954   4.213   2.593   4.769
   85PMPE   H9X 5955   4.110   2.564   4.803
   85PMPE   H9Y 5956   4.249   2.679   4.833
   85PMPE  C310 5957   4.322   2.498   4.754
   85PMPE  H10X 5958   4.400   2.548   4.693
   85PMPE  H10Y 5959   4.279   2.410   4.702
   85PMPE  C311 5960   4.381   2.476   4.884
   85PMPE  H11X 5961   4.413   2.572   4.934
   85PMPE  H11Y 5962   4.468   2.409   4.877
   85PMPE  C312 5963   4.279   2.401   4.958
   85PMPE  H12X 5964   4.267   2.299   4.941
   85PMPE  H12Y 5965   4.171   2.433   4.945
   85PMPE  C313 5966   4.329   2.409   5.088
   85PMPE  H13X 5967   4.438   2.414   5.122
   85PMPE  H13Y 5968   4.307   2.309   5.134
   85PMPE  C314 5969   4.235   2.539   5.096
   85PMPE  H14X 5970   4.269   2.637   5.066
   85PMPE  H14Y 5971   4.320   2.546   5.169
   85PMPE  C315 5972   4.056   2.539   5.133
   85PMPE  H15X 5973   4.010   2.575   5.044
   85PMPE  H15Y 5974   4.022   2.625   5.199
   85PMPE  C316 5975   3.948   2.439   5.214
   85PMPE  H16X 5976   3.938   2.454   5.322
   85PMPE  H16Y 5977   3.974   2.335   5.238
   85PMPE  H16Z 5978   3.847   2.431   5.175
   86PMPE     N 5979   2.317   4.180   3.645
   86PMPE   HN1 5980   2.297   4.216   3.549
   86PMPE   HN2 5981   2.381   4.244   3.696
   86PMPE   HN3 5982   2.361   4.086   3.639
   86PMPE   C12 5983   2.186   4.170   3.718
   86PMPE  H12A 5984   2.207   4.166   3.826
   86PMPE  H12B 5985   2.138   4.075   3.685
   86PMPE   C11 5986   2.090   4.287   3.689
   86PMPE  H11A 5987   2.135   4.387   3.709
   86PMPE  H11B 5988   2.006   4.274   3.761
   86PMPE     P 5989   1.890   4.323   3.525
   86PMPE   O13 5990   1.809   4.200   3.539
   86PMPE   O14 5991   1.888   4.400   3.401
   86PMPE   O11 5992   1.856   4.415   3.643
   86PMPE   O12 5993   2.043   4.284   3.554
   86PMPE    C1 5994   1.720   4.463   3.656
   86PMPE    HA 5995   1.642   4.393   3.624
   86PMPE    HB 5996   1.711   4.553   3.589
   86PMPE    C2 5997   1.697   4.502   3.809
   86PMPE    HS 5998   1.627   4.589   3.810
   86PMPE   O21 5999   1.810   4.537   3.892
   86PMPE   C21 6000   1.889   4.605   3.825
   86PMPE   O22 6001   1.862   4.654   3.715
   86PMPE   C22 6002   2.028   4.613   3.903
   86PMPE   H2R 6003   2.090   4.646   3.817
   86PMPE   H2S 6004   2.061   4.510   3.914
   86PMPE    C3 6005   1.641   4.391   3.891
   86PMPE    HX 6006   1.542   4.369   3.848
   86PMPE    HY 6007   1.632   4.419   3.998
   86PMPE   O31 6008   1.736   4.284   3.885
   86PMPE   C31 6009   1.682   4.167   3.886
   86PMPE   O32 6010   1.564   4.143   3.904
   86PMPE   C32 6011   1.791   4.065   3.859
   86PMPE   H2X 6012   1.825   4.084   3.755
   86PMPE   H2Y 6013   1.747   3.964   3.865
   86PMPE   C23 6014   2.052   4.682   4.051
   86PMPE   H3R 6015   1.971   4.653   4.118
   86PMPE   H3S 6016   2.033   4.783   4.093
   86PMPE   C24 6017   2.191   4.711   4.099
   86PMPE   H4R 6018   2.203   4.800   4.168
   86PMPE   H4S 6019   2.267   4.727   4.019
   86PMPE   C25 6020   2.196   4.582   4.169
   86PMPE   H5R 6021   2.301   4.578   4.176
   86PMPE   H5S 6022   2.157   4.500   4.104
   86PMPE   C26 6023   2.128   4.579   4.306
   86PMPE   H6R 6024   2.116   4.472   4.332
   86PMPE   H6S 6025   2.027   4.625   4.305
   86PMPE   C27 6026   2.213   4.647   4.412
   86PMPE   H7R 6027   2.231   4.753   4.384
   86PMPE   H7S 6028   2.312   4.599   4.421
   86PMPE   C28 6029   2.165   4.626   4.554
   86PMPE   H8R 6030   2.227   4.692   4.617
   86PMPE   H8S 6031   2.187   4.520   4.580
   86PMPE   C29 6032   2.016   4.651   4.572
   86PMPE   H9R 6033   1.947   4.584   4.523
   86PMPE  C217 6034   1.983   4.797   4.588
   86PMPE  H17R 6035   1.891   4.826   4.540
   86PMPE  H17S 6036   2.075   4.852   4.583
   86PMPE  C210 6037   1.969   4.700   4.705
   86PMPE  H10R 6038   1.865   4.701   4.740
   86PMPE  C211 6039   2.075   4.690   4.809
   86PMPE  H11R 6040   2.125   4.786   4.810
   86PMPE  H11S 6041   2.139   4.600   4.796
   86PMPE  C212 6042   2.016   4.676   4.944
   86PMPE  H12R 6043   2.089   4.637   5.017
   86PMPE  H12S 6044   1.936   4.600   4.935
   86PMPE  C213 6045   1.982   4.811   5.005
   86PMPE  H13R 6046   1.892   4.848   4.950
   86PMPE  H13S 6047   2.046   4.898   4.992
   86PMPE  C214 6048   1.967   4.778   5.154
   86PMPE  H14R 6049   1.934   4.671   5.190
   86PMPE  H14S 6050   1.900   4.869   5.148
   86PMPE  C215 6051   2.010   4.825   5.280
   86PMPE  H15R 6052   2.077   4.897   5.254
   86PMPE  H15S 6053   2.071   4.743   5.275
   86PMPE  C216 6054   1.936   4.843   5.412
   86PMPE  H16R 6055   1.898   4.939   5.439
   86PMPE  H16S 6056   1.889   4.764   5.474
   86PMPE  H16T 6057   2.020   4.866   5.468
   86PMPE   C33 6058   1.916   4.081   3.948
   86PMPE   H3X 6059   1.951   4.187   3.946
   86PMPE   H3Y 6060   1.994   4.018   3.901
   86PMPE   C34 6061   1.892   4.034   4.092
   86PMPE   H4X 6062   1.851   3.931   4.086
   86PMPE   H4Y 6063   1.814   4.097   4.139
   86PMPE   C35 6064   2.014   4.033   4.186
   86PMPE   H5X 6065   2.104   3.989   4.138
   86PMPE   H5Y 6066   1.987   3.968   4.272
   86PMPE   C36 6067   2.050   4.173   4.241
   86PMPE   H6X 6068   2.061   4.240   4.153
   86PMPE   H6Y 6069   2.149   4.166   4.291
   86PMPE   C37 6070   1.945   4.233   4.338
   86PMPE   H7X 6071   1.843   4.224   4.295
   86PMPE   H7Y 6072   1.962   4.342   4.349
   86PMPE   C38 6073   1.953   4.176   4.481
   86PMPE   H8X 6074   1.962   4.065   4.475
   86PMPE   H8Y 6075   1.859   4.198   4.536
   86PMPE   C39 6076   2.069   4.236   4.563
   86PMPE   H9X 6077   2.039   4.337   4.599
   86PMPE   H9Y 6078   2.157   4.250   4.496
   86PMPE  C310 6079   2.113   4.144   4.677
   86PMPE  H10X 6080   2.154   4.055   4.624
   86PMPE  H10Y 6081   2.026   4.110   4.737
   86PMPE  C311 6082   2.218   4.201   4.776
   86PMPE  H11X 6083   2.274   4.284   4.729
   86PMPE  H11Y 6084   2.291   4.122   4.804
   86PMPE  C312 6085   2.152   4.249   4.906
   86PMPE  H12X 6086   2.090   4.166   4.947
   86PMPE  H12Y 6087   2.084   4.334   4.884
   86PMPE  C313 6088   2.250   4.280   5.019
   86PMPE  H13X 6089   2.317   4.367   4.995
   86PMPE  H13Y 6090   2.317   4.193   5.035
   86PMPE  C314 6091   2.174   4.298   5.150
   86PMPE  H14X 6092   2.115   4.214   5.188
   86PMPE  H14Y 6093   2.108   4.388   5.141
   86PMPE  C315 6094   2.273   4.319   5.260
   86PMPE  H15X 6095   2.219   4.344   5.355
   86PMPE  H15Y 6096   2.321   4.402   5.205
   86PMPE  C316 6097   2.373   4.220   5.302
   86PMPE  H16X 6098   2.426   4.251   5.395
   86PMPE  H16Y 6099   2.448   4.201   5.224
   86PMPE  H16Z 6100   2.302   4.140   5.321
   87PMPE     N 6101   4.850   2.723   3.323
   87PMPE   HN1 6102   4.757   2.767   3.314
   87PMPE   HN2 6103   4.908   2.737   3.238
   87PMPE   HN3 6104   4.835   2.620   3.340
   87PMPE   C12 6105   4.911   2.788   3.444
   87PMPE  H12A 6106   4.957   2.882   3.414
   87PMPE  H12B 6107   4.990   2.721   3.481
   87PMPE   C11 6108   4.805   2.818   3.549
   87PMPE  H11A 6109   4.730   2.892   3.513
   87PMPE  H11B 6110   4.851   2.862   3.641
   87PMPE     P 6111   4.808   2.591   3.672
   87PMPE   O13 6112   4.950   2.576   3.638
   87PMPE   O14 6113   4.732   2.473   3.635
   87PMPE   O11 6114   4.785   2.652   3.819
   87PMPE   O12 6115   4.739   2.698   3.579
   87PMPE    C1 6116   4.688   2.742   3.880
   87PMPE    HA 6117   4.597   2.754   3.823
   87PMPE    HB 6118   4.704   2.849   3.860
   87PMPE    C2 6119   4.651   2.694   4.026
   87PMPE    HS 6120   4.557   2.732   4.072
   87PMPE   O21 6121   4.755   2.733   4.109
   87PMPE   C21 6122   4.747   2.860   4.132
   87PMPE   O22 6123   4.650   2.933   4.120
   87PMPE   C22 6124   4.882   2.897   4.181
   87PMPE   H2R 6125   4.911   2.987   4.125
   87PMPE   H2S 6126   4.953   2.816   4.154
   87PMPE    C3 6127   4.624   2.544   4.046
   87PMPE    HX 6128   4.694   2.480   3.988
   87PMPE    HY 6129   4.522   2.537   4.009
   87PMPE   O31 6130   4.608   2.511   4.185
   87PMPE   C31 6131   4.711   2.449   4.237
   87PMPE   O32 6132   4.807   2.404   4.178
   87PMPE   C32 6133   4.687   2.435   4.385
   87PMPE   H2X 6134   4.684   2.326   4.403
   87PMPE   H2Y 6135   4.593   2.487   4.416
   87PMPE   C23 6136   4.866   2.917   4.333
   87PMPE   H3R 6137   4.836   2.825   4.385
   87PMPE   H3S 6138   4.781   2.989   4.345
   87PMPE   C24 6139   4.995   2.962   4.401
   87PMPE   H4R 6140   5.047   3.019   4.323
   87PMPE   H4S 6141   5.073   2.888   4.418
   87PMPE   C25 6142   4.972   3.031   4.536
   87PMPE   H5R 6143   4.910   3.113   4.512
   87PMPE   H5S 6144   5.065   3.077   4.578
   87PMPE   C26 6145   4.882   2.954   4.634
   87PMPE   H6R 6146   4.964   2.902   4.687
   87PMPE   H6S 6147   4.802   2.904   4.580
   87PMPE   C27 6148   4.799   3.022   4.741
   87PMPE   H7R 6149   4.709   3.082   4.726
   87PMPE   H7S 6150   4.892   3.072   4.765
   87PMPE   C28 6151   4.713   2.963   4.849
   87PMPE   H8R 6152   4.792   2.937   4.921
   87PMPE   H8S 6153   4.666   2.887   4.786
   87PMPE   C29 6154   4.573   3.028   4.900
   87PMPE   H9R 6155   4.549   3.126   4.847
   87PMPE  C217 6156   4.599   3.096   5.017
   87PMPE  H17R 6157   4.541   3.191   5.030
   87PMPE  H17S 6158   4.706   3.071   5.028
   87PMPE  C210 6159   4.528   2.995   5.053
   87PMPE  H10R 6160   4.453   3.053   5.112
   87PMPE  C211 6161   4.627   2.931   5.156
   87PMPE  H11R 6162   4.607   2.962   5.261
   87PMPE  H11S 6163   4.739   2.932   5.149
   87PMPE  C212 6164   4.585   2.803   5.098
   87PMPE  H12R 6165   4.616   2.800   4.992
   87PMPE  H12S 6166   4.473   2.803   5.104
   87PMPE  C213 6167   4.648   2.689   5.167
   87PMPE  H13R 6168   4.758   2.697   5.171
   87PMPE  H13S 6169   4.619   2.598   5.110
   87PMPE  C214 6170   4.582   2.686   5.301
   87PMPE  H14R 6171   4.477   2.688   5.272
   87PMPE  H14S 6172   4.592   2.776   5.367
   87PMPE  C215 6173   4.617   2.560   5.371
   87PMPE  H15R 6174   4.635   2.470   5.310
   87PMPE  H15S 6175   4.528   2.536   5.429
   87PMPE  C216 6176   4.737   2.593   5.453
   87PMPE  H16R 6177   4.832   2.596   5.401
   87PMPE  H16S 6178   4.718   2.685   5.514
   87PMPE  H16T 6179   4.759   2.506   5.515
   87PMPE   C33 6180   4.809   2.484   4.459
   87PMPE   H3X 6181   4.829   2.589   4.427
   87PMPE   H3Y 6182   4.896   2.420   4.430
   87PMPE   C34 6183   4.788   2.474   4.610
   87PMPE   H4X 6184   4.794   2.366   4.638
   87PMPE   H4Y 6185   4.686   2.510   4.637
   87PMPE   C35 6186   4.890   2.556   4.688
   87PMPE   H5X 6187   4.865   2.664   4.675
   87PMPE   H5Y 6188   4.992   2.539   4.647
   87PMPE   C36 6189   4.892   2.523   4.837
   87PMPE   H6X 6190   4.912   2.415   4.850
   87PMPE   H6Y 6191   4.792   2.544   4.880
   87PMPE   C37 6192   4.997   2.604   4.914
   87PMPE   H7X 6193   5.095   2.601   4.862
   87PMPE   H7Y 6194   5.008   2.556   5.014
   87PMPE   C38 6195   4.958   2.750   4.936
   87PMPE   H8X 6196   4.856   2.751   4.980
   87PMPE   H8Y 6197   4.952   2.801   4.840
   87PMPE   C39 6198   5.055   2.829   5.024
   87PMPE   H9X 6199   5.018   2.933   5.042
   87PMPE   H9Y 6200   5.153   2.839   4.972
   87PMPE  C310 6201   5.077   2.752   5.153
   87PMPE  H10X 6202   5.147   2.667   5.134
   87PMPE  H10Y 6203   4.981   2.719   5.197
   87PMPE  C311 6204   5.148   2.830   5.256
   87PMPE  H11X 6205   5.169   2.925   5.200
   87PMPE  H11Y 6206   5.245   2.780   5.278
   87PMPE  C312 6207   5.078   2.852   5.393
   87PMPE  H12X 6208   5.145   2.919   5.449
   87PMPE  H12Y 6209   5.093   2.775   5.468
   87PMPE  C313 6210   4.943   2.926   5.379
   87PMPE  H13X 6211   4.856   2.871   5.341
   87PMPE  H13Y 6212   4.966   2.978   5.285
   87PMPE  C314 6213   4.903   3.017   5.498
   87PMPE  H14X 6214   4.797   3.052   5.486
   87PMPE  H14Y 6215   4.944   3.115   5.529
   87PMPE  C315 6216   4.935   2.935   5.617
   87PMPE  H15X 6217   5.035   2.905   5.652
   87PMPE  H15Y 6218   4.871   2.844   5.598
   87PMPE  C316 6219   4.896   3.013   5.731
   87PMPE  H16X 6220   4.946   3.051   5.819
   87PMPE  H16Y 6221   4.857   2.916   5.774
   87PMPE  H16Z 6222   4.815   3.086   5.700
   88PMPE     N 6223   4.762   5.165   3.584
   88PMPE   HN1 6224   4.766   5.072   3.631
   88PMPE   HN2 6225   4.663   5.202   3.591
   88PMPE   HN3 6226   4.799   5.165   3.488
   88PMPE   C12 6227   4.851   5.251   3.665
   88PMPE  H12A 6228   4.803   5.240   3.760
   88PMPE  H12B 6229   4.858   5.353   3.623
   88PMPE   C11 6230   4.988   5.200   3.694
   88PMPE  H11A 6231   4.975   5.094   3.729
   88PMPE  H11B 6232   5.032   5.258   3.779
   88PMPE     P 6233   5.177   5.124   3.532
   88PMPE   O13 6234   5.306   5.190   3.502
   88PMPE   O14 6235   5.121   5.025   3.439
   88PMPE   O11 6236   5.192   5.056   3.670
   88PMPE   O12 6237   5.060   5.221   3.572
   88PMPE    C1 6238   5.280   4.947   3.676
   88PMPE    HA 6239   5.387   4.981   3.684
   88PMPE    HB 6240   5.282   4.883   3.584
   88PMPE    C2 6241   5.227   4.858   3.791
   88PMPE    HS 6242   5.265   4.765   3.746
   88PMPE   O21 6243   5.089   4.838   3.800
   88PMPE   C21 6244   5.067   4.714   3.843
   88PMPE   O22 6245   5.142   4.628   3.874
   88PMPE   C22 6246   4.935   4.677   3.851
   88PMPE   H2R 6247   4.940   4.568   3.875
   88PMPE   H2S 6248   4.906   4.689   3.744
   88PMPE    C3 6249   5.275   4.911   3.932
   88PMPE    HX 6250   5.362   4.939   3.891
   88PMPE    HY 6251   5.335   4.863   4.012
   88PMPE   O31 6252   5.236   5.040   3.965
   88PMPE   C31 6253   5.177   5.039   4.078
   88PMPE   O32 6254   5.165   4.944   4.155
   88PMPE   C32 6255   5.117   5.176   4.086
   88PMPE   H2X 6256   5.015   5.172   4.045
   88PMPE   H2Y 6257   5.177   5.244   4.021
   88PMPE   C23 6258   4.893   4.769   3.964
   88PMPE   H3R 6259   4.786   4.779   3.940
   88PMPE   H3S 6260   4.938   4.871   3.963
   88PMPE   C24 6261   4.905   4.720   4.109
   88PMPE   H4R 6262   5.008   4.716   4.151
   88PMPE   H4S 6263   4.866   4.620   4.121
   88PMPE   C25 6264   4.800   4.794   4.191
   88PMPE   H5R 6265   4.709   4.802   4.127
   88PMPE   H5S 6266   4.840   4.895   4.210
   88PMPE   C26 6267   4.752   4.724   4.318
   88PMPE   H6R 6268   4.700   4.628   4.300
   88PMPE   H6S 6269   4.679   4.792   4.366
   88PMPE   C27 6270   4.862   4.703   4.420
   88PMPE   H7R 6271   4.924   4.796   4.423
   88PMPE   H7S 6272   4.929   4.621   4.384
   88PMPE   C28 6273   4.803   4.680   4.561
   88PMPE   H8R 6274   4.746   4.583   4.556
   88PMPE   H8S 6275   4.736   4.762   4.590
   88PMPE   C29 6276   4.921   4.680   4.656
   88PMPE   H9R 6277   5.017   4.702   4.606
   88PMPE  C217 6278   4.906   4.626   4.798
   88PMPE  H17R 6279   4.994   4.580   4.844
   88PMPE  H17S 6280   4.808   4.579   4.811
   88PMPE  C210 6281   4.936   4.762   4.780
   88PMPE  H10R 6282   5.040   4.763   4.824
   88PMPE  C211 6283   4.813   4.804   4.847
   88PMPE  H11R 6284   4.725   4.734   4.854
   88PMPE  H11S 6285   4.785   4.882   4.776
   88PMPE  C212 6286   4.851   4.854   4.982
   88PMPE  H12R 6287   4.952   4.899   4.977
   88PMPE  H12S 6288   4.854   4.770   5.056
   88PMPE  C213 6289   4.747   4.958   5.016
   88PMPE  H13R 6290   4.647   4.922   4.983
   88PMPE  H13S 6291   4.769   5.050   4.957
   88PMPE  C214 6292   4.746   4.981   5.165
   88PMPE  H14R 6293   4.849   4.976   5.205
   88PMPE  H14S 6294   4.686   4.897   5.208
   88PMPE  C215 6295   4.676   5.109   5.207
   88PMPE  H15R 6296   4.583   5.116   5.145
   88PMPE  H15S 6297   4.743   5.195   5.184
   88PMPE  C216 6298   4.635   5.114   5.354
   88PMPE  H16R 6299   4.574   5.025   5.379
   88PMPE  H16S 6300   4.725   5.117   5.419
   88PMPE  H16T 6301   4.574   5.205   5.374
   88PMPE   C33 6302   5.132   5.225   4.230
   88PMPE   H3X 6303   5.117   5.335   4.226
   88PMPE   H3Y 6304   5.236   5.206   4.264
   88PMPE   C34 6305   5.032   5.160   4.326
   88PMPE   H4X 6306   5.027   5.049   4.315
   88PMPE   H4Y 6307   4.934   5.195   4.293
   88PMPE   C35 6308   5.067   5.193   4.472
   88PMPE   H5X 6309   5.057   5.302   4.490
   88PMPE   H5Y 6310   5.173   5.164   4.489
   88PMPE   C36 6311   4.982   5.126   4.580
   88PMPE   H6X 6312   4.985   5.015   4.568
   88PMPE   H6Y 6313   4.877   5.160   4.567
   88PMPE   C37 6314   5.033   5.161   4.721
   88PMPE   H7X 6315   5.138   5.198   4.713
   88PMPE   H7Y 6316   5.036   5.067   4.781
   88PMPE   C38 6317   4.952   5.266   4.798
   88PMPE   H8X 6318   4.849   5.226   4.812
   88PMPE   H8Y 6319   4.945   5.361   4.741
   88PMPE   C39 6320   5.014   5.291   4.936
   88PMPE   H9X 6321   5.113   5.340   4.927
   88PMPE   H9Y 6322   5.033   5.190   4.976
   88PMPE  C310 6323   4.923   5.369   5.033
   88PMPE  H10X 6324   4.828   5.313   5.043
   88PMPE  H10Y 6325   4.900   5.471   4.994
   88PMPE  C311 6326   4.976   5.381   5.176
   88PMPE  H11X 6327   4.907   5.437   5.243
   88PMPE  H11Y 6328   5.067   5.436   5.167
   88PMPE  C312 6329   5.024   5.248   5.232
   88PMPE  H12X 6330   5.095   5.202   5.159
   88PMPE  H12Y 6331   4.937   5.187   5.256
   88PMPE  C313 6332   5.112   5.246   5.351
   88PMPE  H13X 6333   5.082   5.318   5.430
   88PMPE  H13Y 6334   5.211   5.276   5.310
   88PMPE  C314 6335   5.145   5.107   5.407
   88PMPE  H14X 6336   5.239   5.132   5.458
   88PMPE  H14Y 6337   5.184   5.042   5.328
   88PMPE  C315 6338   5.021   5.037   5.475
   88PMPE  H15X 6339   4.972   4.988   5.391
   88PMPE  H15Y 6340   4.943   5.111   5.495
   88PMPE  C316 6341   5.013   4.912   5.566
   88PMPE  H16X 6342   5.112   4.863   5.549
   88PMPE  H16Y 6343   4.937   4.915   5.647
   88PMPE  H16Z 6344   5.037   4.915   5.673
   89PMPE     N 6345   5.806   2.853   3.509
   89PMPE   HN1 6346   5.881   2.896   3.451
   89PMPE   HN2 6347   5.836   2.834   3.607
   89PMPE   HN3 6348   5.769   2.766   3.465
   89PMPE   C12 6349   5.691   2.949   3.509
   89PMPE  H12A 6350   5.646   2.949   3.407
   89PMPE  H12B 6351   5.728   3.051   3.534
   89PMPE   C11 6352   5.585   2.904   3.608
   89PMPE  H11A 6353   5.617   2.929   3.713
   89PMPE  H11B 6354   5.567   2.795   3.609
   89PMPE     P 6355   5.422   3.102   3.615
   89PMPE   O13 6356   5.278   3.106   3.639
   89PMPE   O14 6357   5.480   3.203   3.523
   89PMPE   O11 6358   5.509   3.107   3.746
   89PMPE   O12 6359   5.463   2.960   3.564
   89PMPE    C1 6360   5.469   3.199   3.844
   89PMPE    HA 6361   5.377   3.163   3.888
   89PMPE    HB 6362   5.453   3.299   3.801
   89PMPE    C2 6363   5.557   3.199   3.966
   89PMPE    HS 6364   5.654   3.156   3.938
   89PMPE   O21 6365   5.500   3.144   4.078
   89PMPE   C21 6366   5.533   3.028   4.111
   89PMPE   O22 6367   5.601   2.951   4.046
   89PMPE   C22 6368   5.491   3.011   4.259
   89PMPE   H2R 6369   5.391   2.969   4.249
   89PMPE   H2S 6370   5.499   3.107   4.309
   89PMPE    C3 6371   5.588   3.333   4.009
   89PMPE    HX 6372   5.528   3.408   3.989
   89PMPE    HY 6373   5.646   3.350   3.924
   89PMPE   O31 6374   5.654   3.364   4.127
   89PMPE   C31 6375   5.794   3.340   4.109
   89PMPE   O32 6376   5.842   3.282   4.019
   89PMPE   C32 6377   5.890   3.377   4.220
   89PMPE   H2X 6378   5.796   3.345   4.252
   89PMPE   H2Y 6379   5.852   3.463   4.251
   89PMPE   C23 6380   5.570   2.948   4.373
   89PMPE   H3R 6381   5.635   3.011   4.439
   89PMPE   H3S 6382   5.632   2.888   4.311
   89PMPE   C24 6383   5.495   2.887   4.483
   89PMPE   H4R 6384   5.575   2.842   4.548
   89PMPE   H4S 6385   5.429   2.815   4.433
   89PMPE   C25 6386   5.420   2.982   4.572
   89PMPE   H5R 6387   5.370   2.927   4.654
   89PMPE   H5S 6388   5.338   3.025   4.513
   89PMPE   C26 6389   5.510   3.082   4.645
   89PMPE   H6R 6390   5.551   3.158   4.573
   89PMPE   H6S 6391   5.597   3.038   4.696
   89PMPE   C27 6392   5.426   3.137   4.758
   89PMPE   H7R 6393   5.339   3.082   4.798
   89PMPE   H7S 6394   5.349   3.184   4.694
   89PMPE   C28 6395   5.504   3.227   4.863
   89PMPE   H8R 6396   5.531   3.168   4.950
   89PMPE   H8S 6397   5.420   3.286   4.908
   89PMPE   C29 6398   5.627   3.325   4.816
   89PMPE   H9R 6399   5.639   3.380   4.718
   89PMPE  C217 6400   5.768   3.308   4.842
   89PMPE  H17R 6401   5.818   3.348   4.751
   89PMPE  H17S 6402   5.755   3.206   4.864
   89PMPE  C210 6403   5.687   3.414   4.919
   89PMPE  H10R 6404   5.709   3.521   4.893
   89PMPE  C211 6405   5.652   3.385   5.062
   89PMPE  H11R 6406   5.737   3.426   5.119
   89PMPE  H11S 6407   5.634   3.278   5.079
   89PMPE  C212 6408   5.527   3.455   5.112
   89PMPE  H12R 6409   5.434   3.430   5.060
   89PMPE  H12S 6410   5.561   3.556   5.101
   89PMPE  C213 6411   5.483   3.442   5.254
   89PMPE  H13R 6412   5.453   3.338   5.271
   89PMPE  H13S 6413   5.398   3.511   5.276
   89PMPE  C214 6414   5.588   3.482   5.348
   89PMPE  H14R 6415   5.636   3.577   5.319
   89PMPE  H14S 6416   5.679   3.440   5.332
   89PMPE  C215 6417   5.539   3.474   5.491
   89PMPE  H15R 6418   5.465   3.555   5.500
   89PMPE  H15S 6419   5.625   3.481   5.559
   89PMPE  C216 6420   5.487   3.363   5.566
   89PMPE  H16R 6421   5.478   3.391   5.673
   89PMPE  H16S 6422   5.396   3.337   5.521
   89PMPE  H16T 6423   5.558   3.287   5.563
   89PMPE   C33 6424   6.034   3.308   4.306
   89PMPE   H3X 6425   6.124   3.358   4.280
   89PMPE   H3Y 6426   6.069   3.218   4.257
   89PMPE   C34 6427   6.041   3.257   4.467
   89PMPE   H4X 6428   5.955   3.208   4.515
   89PMPE   H4Y 6429   6.050   3.316   4.558
   89PMPE   C35 6430   6.077   3.122   4.490
   89PMPE   H5X 6431   6.144   3.177   4.430
   89PMPE   H5Y 6432   6.069   3.032   4.430
   89PMPE   C36 6433   6.076   3.102   4.634
   89PMPE   H6X 6434   6.122   3.190   4.689
   89PMPE   H6Y 6435   6.135   3.008   4.625
   89PMPE   C37 6436   5.949   3.060   4.691
   89PMPE   H7X 6437   5.929   2.961   4.642
   89PMPE   H7Y 6438   5.869   3.134   4.683
   89PMPE   C38 6439   5.975   3.038   4.830
   89PMPE   H8X 6440   6.023   3.121   4.890
   89PMPE   H8Y 6441   6.063   2.973   4.807
   89PMPE   C39 6442   5.854   2.952   4.878
   89PMPE   H9X 6443   5.850   2.872   4.804
   89PMPE   H9Y 6444   5.761   3.009   4.899
   89PMPE  C310 6445   5.876   2.845   4.982
   89PMPE  H10X 6446   5.885   2.947   5.030
   89PMPE  H10Y 6447   5.964   2.782   4.989
   89PMPE  C311 6448   5.808   2.764   5.082
   89PMPE  H11X 6449   5.741   2.699   5.029
   89PMPE  H11Y 6450   5.735   2.846   5.083
   89PMPE  C312 6451   5.919   2.709   5.215
   89PMPE  H12X 6452   6.026   2.681   5.194
   89PMPE  H12Y 6453   5.833   2.649   5.202
   89PMPE  C313 6454   5.957   2.691   5.377
   89PMPE  H13X 6455   6.034   2.766   5.379
   89PMPE  H13Y 6456   6.042   2.626   5.412
   89PMPE  C314 6457   5.864   2.748   5.490
   89PMPE  H14X 6458   5.840   2.642   5.505
   89PMPE  H14Y 6459   5.749   2.744   5.479
   89PMPE  C315 6460   5.925   2.901   5.562
   89PMPE  H15X 6461   6.021   2.886   5.580
   89PMPE  H15Y 6462   5.906   2.928   5.667
   89PMPE  C316 6463   5.975   3.044   5.500
   89PMPE  H16X 6464   5.972   3.125   5.570
   89PMPE  H16Y 6465   5.905   3.080   5.428
   89PMPE  H16Z 6466   6.061   3.063   5.438
   90PMPE     N 6467   2.342   4.930   3.495
   90PMPE   HN1 6468   2.425   4.889   3.446
   90PMPE   HN2 6469   2.361   4.920   3.597
   90PMPE   HN3 6470   2.253   4.880   3.471
   90PMPE   C12 6471   2.321   5.077   3.465
   90PMPE  H12A 6472   2.281   5.086   3.362
   90PMPE  H12B 6473   2.422   5.123   3.469
   90PMPE   C11 6474   2.227   5.148   3.566
   90PMPE  H11A 6475   2.241   5.257   3.551
   90PMPE  H11B 6476   2.259   5.123   3.671
   90PMPE     P 6477   1.972   5.191   3.624
   90PMPE   O13 6478   1.844   5.198   3.552
   90PMPE   O14 6479   2.015   5.315   3.692
   90PMPE   O11 6480   1.967   5.093   3.734
   90PMPE   O12 6481   2.090   5.119   3.542
   90PMPE    C1 6482   1.946   4.964   3.685
   90PMPE    HA 6483   2.037   4.907   3.653
   90PMPE    HB 6484   1.853   4.938   3.627
   90PMPE    C2 6485   1.918   4.916   3.812
   90PMPE    HS 6486   1.911   4.818   3.793
   90PMPE   O21 6487   1.829   4.986   3.898
   90PMPE   C21 6488   1.715   4.968   3.874
   90PMPE   O22 6489   1.669   4.890   3.788
   90PMPE   C22 6490   1.657   5.031   4.022
   90PMPE   H2R 6491   1.650   4.980   4.121
   90PMPE   H2S 6492   1.564   4.997   4.067
   90PMPE    C3 6493   2.031   4.893   3.893
   90PMPE    HX 6494   2.107   4.827   3.848
   90PMPE    HY 6495   1.953   4.844   3.959
   90PMPE   O31 6496   2.085   4.995   3.965
   90PMPE   C31 6497   2.210   5.004   3.960
   90PMPE   O32 6498   2.293   4.934   3.904
   90PMPE   C32 6499   2.230   5.126   4.040
   90PMPE   H2X 6500   2.150   5.195   4.004
   90PMPE   H2Y 6501   2.329   5.165   4.013
   90PMPE   C23 6502   1.665   5.170   4.028
   90PMPE   H3R 6503   1.571   5.220   3.999
   90PMPE   H3S 6504   1.747   5.184   3.955
   90PMPE   C24 6505   1.705   5.181   4.169
   90PMPE   H4R 6506   1.751   5.280   4.163
   90PMPE   H4S 6507   1.782   5.102   4.194
   90PMPE   C25 6508   1.587   5.173   4.264
   90PMPE   H5R 6509   1.528   5.078   4.268
   90PMPE   H5S 6510   1.516   5.253   4.234
   90PMPE   C26 6511   1.647   5.192   4.399
   90PMPE   H6R 6512   1.715   5.281   4.394
   90PMPE   H6S 6513   1.709   5.104   4.429
   90PMPE   C27 6514   1.540   5.216   4.498
   90PMPE   H7R 6515   1.471   5.130   4.512
   90PMPE   H7S 6516   1.475   5.296   4.456
   90PMPE   C28 6517   1.606   5.256   4.629
   90PMPE   H8R 6518   1.513   5.272   4.671
   90PMPE   H8S 6519   1.663   5.352   4.630
   90PMPE   C29 6520   1.657   5.142   4.716
   90PMPE   H9R 6521   1.707   5.063   4.661
   90PMPE  C217 6522   1.542   5.083   4.803
   90PMPE  H17R 6523   1.534   4.978   4.789
   90PMPE  H17S 6524   1.454   5.140   4.787
   90PMPE  C210 6525   1.668   5.139   4.868
   90PMPE  H10R 6526   1.739   5.064   4.906
   90PMPE  C211 6527   1.665   5.270   4.943
   90PMPE  H11R 6528   1.629   5.254   5.048
   90PMPE  H11S 6529   1.601   5.330   4.877
   90PMPE  C212 6530   1.798   5.344   4.946
   90PMPE  H12R 6531   1.823   5.351   4.838
   90PMPE  H12S 6532   1.866   5.278   5.002
   90PMPE  C213 6533   1.812   5.489   4.999
   90PMPE  H13R 6534   1.734   5.555   4.953
   90PMPE  H13S 6535   1.911   5.529   4.976
   90PMPE  C214 6536   1.824   5.515   5.150
   90PMPE  H14R 6537   1.723   5.528   5.142
   90PMPE  H14S 6538   1.832   5.620   5.182
   90PMPE  C215 6539   1.875   5.409   5.256
   90PMPE  H15R 6540   1.971   5.458   5.280
   90PMPE  H15S 6541   1.888   5.314   5.202
   90PMPE  C216 6542   1.814   5.366   5.397
   90PMPE  H16R 6543   1.736   5.288   5.392
   90PMPE  H16S 6544   1.887   5.330   5.470
   90PMPE  H16T 6545   1.768   5.446   5.455
   90PMPE   C33 6546   2.209   5.094   4.190
   90PMPE   H3X 6547   2.290   5.024   4.219
   90PMPE   H3Y 6548   2.112   5.042   4.208
   90PMPE   C34 6549   2.215   5.222   4.274
   90PMPE   H4X 6550   2.136   5.292   4.239
   90PMPE   H4Y 6551   2.314   5.267   4.254
   90PMPE   C35 6552   2.198   5.206   4.426
   90PMPE   H5X 6553   2.197   5.306   4.474
   90PMPE   H5Y 6554   2.285   5.160   4.467
   90PMPE   C36 6555   2.087   5.112   4.471
   90PMPE   H6X 6556   2.127   5.009   4.475
   90PMPE   H6Y 6557   2.010   5.116   4.392
   90PMPE   C37 6558   2.026   5.153   4.607
   90PMPE   H7X 6559   1.933   5.096   4.626
   90PMPE   H7Y 6560   1.998   5.260   4.597
   90PMPE   C38 6561   2.123   5.135   4.724
   90PMPE   H8X 6562   2.209   5.204   4.708
   90PMPE   H8Y 6563   2.159   5.029   4.727
   90PMPE   C39 6564   2.070   5.167   4.864
   90PMPE   H9X 6565   2.002   5.084   4.894
   90PMPE   H9Y 6566   2.016   5.263   4.861
   90PMPE  C310 6567   2.178   5.182   4.971
   90PMPE  H10X 6568   2.263   5.242   4.937
   90PMPE  H10Y 6569   2.210   5.079   4.992
   90PMPE  C311 6570   2.138   5.226   5.107
   90PMPE  H11X 6571   2.078   5.317   5.098
   90PMPE  H11Y 6572   2.223   5.241   5.177
   90PMPE  C312 6573   2.059   5.113   5.164
   90PMPE  H12X 6574   2.118   5.022   5.141
   90PMPE  H12Y 6575   1.961   5.110   5.115
   90PMPE  C313 6576   2.039   5.132   5.309
   90PMPE  H13X 6577   1.938   5.099   5.339
   90PMPE  H13Y 6578   2.046   5.240   5.328
   90PMPE  C314 6579   2.143   5.069   5.392
   90PMPE  H14X 6580   2.242   5.102   5.372
   90PMPE  H14Y 6581   2.165   4.961   5.393
   90PMPE  C315 6582   2.104   5.117   5.523
   90PMPE  H15X 6583   2.191   5.074   5.569
   90PMPE  H15Y 6584   2.009   5.086   5.572
   90PMPE  C316 6585   2.139   5.252   5.549
   90PMPE  H16X 6586   2.099   5.265   5.652
   90PMPE  H16Y 6587   2.093   5.331   5.492
   90PMPE  H16Z 6588   2.251   5.258   5.538
   91PMPE     N 6589   3.002   1.947   3.472
   91PMPE   HN1 6590   3.038   1.848   3.473
   91PMPE   HN2 6591   2.901   1.950   3.500
   91PMPE   HN3 6592   3.006   1.981   3.374
   91PMPE   C12 6593   3.083   2.040   3.560
   91PMPE  H12A 6594   3.184   2.049   3.515
   91PMPE  H12B 6595   3.093   1.992   3.660
   91PMPE   C11 6596   3.020   2.180   3.575
   91PMPE  H11A 6597   3.001   2.224   3.474
   91PMPE  H11B 6598   3.093   2.248   3.626
   91PMPE     P 6599   2.764   2.236   3.618
   91PMPE   O13 6600   2.762   2.219   3.472
   91PMPE   O14 6601   2.746   2.369   3.678
   91PMPE   O11 6602   2.663   2.137   3.686
   91PMPE   O12 6603   2.905   2.176   3.658
   91PMPE    C1 6604   2.655   2.000   3.654
   91PMPE    HA 6605   2.739   1.965   3.588
   91PMPE    HB 6606   2.561   1.983   3.597
   91PMPE    C2 6607   2.660   1.913   3.782
   91PMPE    HS 6608   2.623   1.813   3.752
   91PMPE   O21 6609   2.581   1.966   3.892
   91PMPE   C21 6610   2.451   1.984   3.875
   91PMPE   O22 6611   2.385   1.945   3.780
   91PMPE   C22 6612   2.392   2.058   4.000
   91PMPE   H2R 6613   2.282   2.059   3.987
   91PMPE   H2S 6614   2.434   2.159   3.999
   91PMPE    C3 6615   2.808   1.899   3.833
   91PMPE    HX 6616   2.871   1.867   3.748
   91PMPE    HY 6617   2.817   1.819   3.910
   91PMPE   O31 6618   2.864   2.022   3.879
   91PMPE   C31 6619   2.845   2.063   4.002
   91PMPE   O32 6620   2.802   1.997   4.095
   91PMPE   C32 6621   2.894   2.207   4.005
   91PMPE   H2X 6622   2.860   2.254   3.910
   91PMPE   H2Y 6623   3.004   2.204   4.008
   91PMPE   C23 6624   2.423   1.996   4.139
   91PMPE   H3R 6625   2.535   1.981   4.141
   91PMPE   H3S 6626   2.364   1.902   4.149
   91PMPE   C24 6627   2.395   2.071   4.268
   91PMPE   H4R 6628   2.285   2.079   4.275
   91PMPE   H4S 6629   2.444   2.169   4.257
   91PMPE   C25 6630   2.455   2.004   4.396
   91PMPE   H5R 6631   2.562   1.982   4.375
   91PMPE   H5S 6632   2.406   1.906   4.416
   91PMPE   C26 6633   2.457   2.095   4.521
   91PMPE   H6R 6634   2.365   2.143   4.543
   91PMPE   H6S 6635   2.514   2.187   4.502
   91PMPE   C27 6636   2.488   2.028   4.656
   91PMPE   H7R 6637   2.593   1.994   4.648
   91PMPE   H7S 6638   2.421   1.939   4.670
   91PMPE   C28 6639   2.474   2.121   4.779
   91PMPE   H8R 6640   2.563   2.185   4.793
   91PMPE   H8S 6641   2.463   2.058   4.871
   91PMPE   C29 6642   2.345   2.200   4.765
   91PMPE   H9R 6643   2.284   2.160   4.844
   91PMPE  C217 6644   2.350   2.340   4.700
   91PMPE  H17R 6645   2.267   2.370   4.650
   91PMPE  H17S 6646   2.449   2.367   4.668
   91PMPE  C210 6647   2.307   2.322   4.842
   91PMPE  H10R 6648   2.204   2.348   4.873
   91PMPE  C211 6649   2.400   2.361   4.932
   91PMPE  H11R 6650   2.364   2.461   4.946
   91PMPE  H11S 6651   2.481   2.369   4.860
   91PMPE  C212 6652   2.443   2.276   5.050
   91PMPE  H12R 6653   2.534   2.306   5.102
   91PMPE  H12S 6654   2.499   2.185   5.028
   91PMPE  C213 6655   2.378   2.323   5.172
   91PMPE  H13R 6656   2.280   2.275   5.153
   91PMPE  H13S 6657   2.360   2.431   5.182
   91PMPE  C214 6658   2.472   2.284   5.290
   91PMPE  H14R 6659   2.562   2.345   5.309
   91PMPE  H14S 6660   2.499   2.176   5.272
   91PMPE  C215 6661   2.412   2.301   5.418
   91PMPE  H15R 6662   2.337   2.253   5.355
   91PMPE  H15S 6663   2.335   2.376   5.450
   91PMPE  C216 6664   2.461   2.203   5.526
   91PMPE  H16R 6665   2.435   2.095   5.506
   91PMPE  H16S 6666   2.567   2.206   5.550
   91PMPE  H16T 6667   2.405   2.234   5.617
   91PMPE   C33 6668   2.842   2.288   4.124
   91PMPE   H3X 6669   2.734   2.268   4.141
   91PMPE   H3Y 6670   2.853   2.396   4.097
   91PMPE   C34 6671   2.920   2.259   4.253
   91PMPE   H4X 6672   3.016   2.314   4.255
   91PMPE   H4Y 6673   2.942   2.150   4.260
   91PMPE   C35 6674   2.836   2.297   4.373
   91PMPE   H5X 6675   2.743   2.235   4.374
   91PMPE   H5Y 6676   2.805   2.403   4.368
   91PMPE   C36 6677   2.909   2.271   4.504
   91PMPE   H6X 6678   2.997   2.338   4.515
   91PMPE   H6Y 6679   2.943   2.165   4.508
   91PMPE   C37 6680   2.811   2.294   4.615
   91PMPE   H7X 6681   2.722   2.229   4.600
   91PMPE   H7Y 6682   2.777   2.401   4.615
   91PMPE   C38 6683   2.870   2.257   4.749
   91PMPE   H8X 6684   2.792   2.295   4.806
   91PMPE   H8Y 6685   2.957   2.319   4.775
   91PMPE   C39 6686   2.860   2.109   4.792
   91PMPE   H9X 6687   2.945   2.064   4.740
   91PMPE   H9Y 6688   2.763   2.073   4.753
   91PMPE  C310 6689   2.864   2.060   4.943
   91PMPE  H10X 6690   2.857   1.952   4.946
   91PMPE  H10Y 6691   2.769   2.096   4.991
   91PMPE  C311 6692   3.000   2.090   5.020
   91PMPE  H11X 6693   2.998   2.177   4.955
   91PMPE  H11Y 6694   3.104   2.097   4.994
   91PMPE  C312 6695   3.012   2.108   5.175
   91PMPE  H12X 6696   3.001   2.012   5.228
   91PMPE  H12Y 6697   2.898   2.114   5.188
   91PMPE  C313 6698   3.129   2.234   5.251
   91PMPE  H13X 6699   3.218   2.203   5.204
   91PMPE  H13Y 6700   3.123   2.176   5.344
   91PMPE  C314 6701   3.105   2.432   5.293
   91PMPE  H14X 6702   3.039   2.500   5.249
   91PMPE  H14Y 6703   3.183   2.490   5.253
   91PMPE  C315 6704   2.938   2.519   5.335
   91PMPE  H15X 6705   2.880   2.484   5.423
   91PMPE  H15Y 6706   2.825   2.496   5.315
   91PMPE  C316 6707   2.939   2.645   5.358
   91PMPE  H16X 6708   2.872   2.667   5.276
   91PMPE  H16Y 6709   3.039   2.674   5.348
   91PMPE  H16Z 6710   2.899   2.659   5.457
   92PMPE     N 6711   5.275   2.092   3.336
   92PMPE   HN1 6712   5.275   2.001   3.285
   92PMPE   HN2 6713   5.210   2.161   3.293
   92PMPE   HN3 6714   5.370   2.134   3.331
   92PMPE   C12 6715   5.248   2.073   3.482
   92PMPE  H12A 6716   5.183   1.983   3.493
   92PMPE  H12B 6717   5.197   2.163   3.522
   92PMPE   C11 6718   5.379   2.056   3.558
   92PMPE  H11A 6719   5.441   1.975   3.512
   92PMPE  H11B 6720   5.352   2.027   3.662
   92PMPE     P 6721   5.550   2.227   3.667
   92PMPE   O13 6722   5.569   2.373   3.659
   92PMPE   O14 6723   5.668   2.142   3.653
   92PMPE   O11 6724   5.467   2.187   3.798
   92PMPE   O12 6725   5.448   2.181   3.553
   92PMPE    C1 6726   5.445   2.286   3.898
   92PMPE    HA 6727   5.362   2.256   3.967
   92PMPE    HB 6728   5.418   2.386   3.857
   92PMPE    C2 6729   5.566   2.303   3.987
   92PMPE    HS 6730   5.653   2.330   3.920
   92PMPE   O21 6731   5.581   2.182   4.070
   92PMPE   C21 6732   5.710   2.147   4.073
   92PMPE   O22 6733   5.798   2.217   4.040
   92PMPE   C22 6734   5.751   2.010   4.110
   92PMPE   H2R 6735   5.863   2.005   4.098
   92PMPE   H2S 6736   5.702   1.946   4.035
   92PMPE    C3 6737   5.545   2.426   4.076
   92PMPE    HX 6738   5.554   2.523   4.023
   92PMPE    HY 6739   5.630   2.408   4.142
   92PMPE   O31 6740   5.419   2.417   4.142
   92PMPE   C31 6741   5.425   2.407   4.273
   92PMPE   O32 6742   5.522   2.422   4.344
   92PMPE   C32 6743   5.285   2.374   4.319
   92PMPE   H2X 6744   5.234   2.316   4.239
   92PMPE   H2Y 6745   5.230   2.469   4.332
   92PMPE   C23 6746   5.721   1.983   4.253
   92PMPE   H3R 6747   5.745   1.876   4.270
   92PMPE   H3S 6748   5.613   2.004   4.270
   92PMPE   C24 6749   5.807   2.056   4.355
   92PMPE   H4R 6750   5.829   2.162   4.326
   92PMPE   H4S 6751   5.907   2.007   4.363
   92PMPE   C25 6752   5.726   2.047   4.484
   92PMPE   H5R 6753   5.719   1.945   4.519
   92PMPE   H5S 6754   5.626   2.095   4.468
   92PMPE   C26 6755   5.786   2.117   4.599
   92PMPE   H6R 6756   5.780   2.215   4.544
   92PMPE   H6S 6757   5.891   2.082   4.609
   92PMPE   C27 6758   5.710   2.112   4.737
   92PMPE   H7R 6759   5.718   2.006   4.768
   92PMPE   H7S 6760   5.609   2.148   4.715
   92PMPE   C28 6761   5.744   2.190   4.867
   92PMPE   H8R 6762   5.680   2.188   4.955
   92PMPE   H8S 6763   5.721   2.295   4.846
   92PMPE   C29 6764   5.886   2.161   4.909
   92PMPE   H9R 6765   5.961   2.212   4.859
   92PMPE  C217 6766   5.929   2.025   4.939
   92PMPE  H17R 6767   6.010   2.002   4.871
   92PMPE  H17S 6768   5.853   1.957   4.966
   92PMPE  C210 6769   5.939   2.137   5.046
   92PMPE  H10R 6770   6.032   2.194   5.067
   92PMPE  C211 6771   5.836   2.142   5.156
   92PMPE  H11R 6772   5.884   2.098   5.246
   92PMPE  H11S 6773   5.745   2.096   5.122
   92PMPE  C212 6774   5.801   2.281   5.186
   92PMPE  H12R 6775   5.787   2.335   5.090
   92PMPE  H12S 6776   5.894   2.280   5.248
   92PMPE  C213 6777   5.710   2.353   5.278
   92PMPE  H13R 6778   5.723   2.466   5.278
   92PMPE  H13S 6779   5.742   2.321   5.377
   92PMPE  C214 6780   5.580   2.323   5.213
   92PMPE  H14R 6781   5.567   2.215   5.229
   92PMPE  H14S 6782   5.584   2.345   5.104
   92PMPE  C215 6783   5.472   2.406   5.272
   92PMPE  H15R 6784   5.493   2.515   5.261
   92PMPE  H15S 6785   5.482   2.375   5.375
   92PMPE  C216 6786   5.334   2.370   5.223
   92PMPE  H16R 6787   5.258   2.426   5.282
   92PMPE  H16S 6788   5.327   2.398   5.116
   92PMPE  H16T 6789   5.314   2.261   5.237
   92PMPE   C33 6790   5.292   2.289   4.447
   92PMPE   H3X 6791   5.188   2.287   4.487
   92PMPE   H3Y 6792   5.359   2.332   4.525
   92PMPE   C34 6793   5.330   2.145   4.411
   92PMPE   H4X 6794   5.438   2.133   4.389
   92PMPE   H4Y 6795   5.277   2.124   4.314
   92PMPE   C35 6796   5.279   2.042   4.512
   92PMPE   H5X 6797   5.297   1.940   4.470
   92PMPE   H5Y 6798   5.169   2.057   4.521
   92PMPE   C36 6799   5.342   2.046   4.652
   92PMPE   H6X 6800   5.300   2.130   4.711
   92PMPE   H6Y 6801   5.452   2.058   4.643
   92PMPE   C37 6802   5.315   1.919   4.734
   92PMPE   H7X 6803   5.349   1.830   4.677
   92PMPE   H7Y 6804   5.207   1.898   4.743
   92PMPE   C38 6805   5.382   1.921   4.872
   92PMPE   H8X 6806   5.467   1.992   4.875
   92PMPE   H8Y 6807   5.415   1.816   4.894
   92PMPE   C39 6808   5.286   1.945   4.987
   92PMPE   H9X 6809   5.238   1.847   4.993
   92PMPE   H9Y 6810   5.211   2.019   4.961
   92PMPE  C310 6811   5.346   1.973   5.125
   92PMPE  H10X 6812   5.270   1.987   5.204
   92PMPE  H10Y 6813   5.429   2.046   5.126
   92PMPE  C311 6814   5.406   1.849   5.174
   92PMPE  H11X 6815   5.484   1.831   5.099
   92PMPE  H11Y 6816   5.331   1.770   5.149
   92PMPE  C312 6817   5.462   1.855   5.320
   92PMPE  H12X 6818   5.538   1.771   5.343
   92PMPE  H12Y 6819   5.396   1.854   5.408
   92PMPE  C313 6820   5.572   1.938   5.335
   92PMPE  H13X 6821   5.555   2.041   5.318
   92PMPE  H13Y 6822   5.610   1.910   5.232
   92PMPE  C314 6823   5.650   1.904   5.469
   92PMPE  H14X 6824   5.684   1.796   5.471
   92PMPE  H14Y 6825   5.589   1.884   5.554
   92PMPE  C315 6826   5.760   2.021   5.473
   92PMPE  H15X 6827   5.714   2.103   5.422
   92PMPE  H15Y 6828   5.850   2.002   5.410
   92PMPE  C316 6829   5.850   2.073   5.579
   92PMPE  H16X 6830   5.818   2.050   5.680
   92PMPE  H16Y 6831   5.949   2.107   5.541
   92PMPE  H16Z 6832   5.928   2.000   5.589
   93PMPE     N 6833   6.678   4.372   3.547
   93PMPE   HN1 6834   6.669   4.442   3.623
   93PMPE   HN2 6835   6.672   4.278   3.591
   93PMPE   HN3 6836   6.768   4.386   3.498
   93PMPE   C12 6837   6.562   4.378   3.450
   93PMPE  H12A 6838   6.584   4.307   3.367
   93PMPE  H12B 6839   6.556   4.481   3.412
   93PMPE   C11 6840   6.430   4.341   3.516
   93PMPE  H11A 6841   6.350   4.339   3.438
   93PMPE  H11B 6842   6.402   4.419   3.592
   93PMPE     P 6843   6.313   4.146   3.641
   93PMPE   O13 6844   6.221   4.101   3.536
   93PMPE   O14 6845   6.266   4.242   3.743
   93PMPE   O11 6846   6.368   4.023   3.713
   93PMPE   O12 6847   6.444   4.212   3.576
   93PMPE    C1 6848   6.457   3.933   3.651
   93PMPE    HA 6849   6.494   3.960   3.549
   93PMPE    HB 6850   6.413   3.830   3.649
   93PMPE    C2 6851   6.577   3.928   3.738
   93PMPE    HS 6852   6.629   3.843   3.692
   93PMPE   O21 6853   6.521   3.911   3.880
   93PMPE   C21 6854   6.560   3.866   4.007
   93PMPE   O22 6855   6.661   3.883   4.065
   93PMPE   C22 6856   6.488   3.762   4.090
   93PMPE   H2R 6857   6.462   3.682   4.018
   93PMPE   H2S 6858   6.401   3.810   4.134
   93PMPE    C3 6859   6.664   4.060   3.702
   93PMPE    HX 6860   6.681   4.082   3.596
   93PMPE    HY 6861   6.774   4.038   3.706
   93PMPE   O31 6862   6.617   4.172   3.779
   93PMPE   C31 6863   6.680   4.223   3.883
   93PMPE   O32 6864   6.800   4.236   3.897
   93PMPE   C32 6865   6.587   4.299   3.970
   93PMPE   H2X 6866   6.520   4.237   4.033
   93PMPE   H2Y 6867   6.533   4.366   3.900
   93PMPE   C23 6868   6.589   3.712   4.206
   93PMPE   H3R 6869   6.688   3.692   4.168
   93PMPE   H3S 6870   6.577   3.608   4.241
   93PMPE   C24 6871   6.639   3.815   4.309
   93PMPE   H4R 6872   6.599   3.913   4.274
   93PMPE   H4S 6873   6.751   3.827   4.310
   93PMPE   C25 6874   6.577   3.770   4.434
   93PMPE   H5R 6875   6.640   3.688   4.477
   93PMPE   H5S 6876   6.476   3.734   4.409
   93PMPE   C26 6877   6.553   3.878   4.529
   93PMPE   H6R 6878   6.474   3.851   4.601
   93PMPE   H6S 6879   6.526   3.976   4.481
   93PMPE   C27 6880   6.680   3.884   4.606
   93PMPE   H7R 6881   6.660   3.983   4.621
   93PMPE   H7S 6882   6.773   3.891   4.547
   93PMPE   C28 6883   6.676   3.840   4.752
   93PMPE   H8R 6884   6.591   3.892   4.801
   93PMPE   H8S 6885   6.766   3.858   4.814
   93PMPE   C29 6886   6.673   3.697   4.761
   93PMPE   H9R 6887   6.748   3.643   4.703
   93PMPE  C217 6888   6.534   3.645   4.764
   93PMPE  H17R 6889   6.524   3.552   4.714
   93PMPE  H17S 6890   6.461   3.726   4.770
   93PMPE  C210 6891   6.620   3.637   4.888
   93PMPE  H10R 6892   6.686   3.552   4.910
   93PMPE  C211 6893   6.581   3.737   4.995
   93PMPE  H11R 6894   6.498   3.805   4.965
   93PMPE  H11S 6895   6.675   3.788   5.017
   93PMPE  C212 6896   6.537   3.678   5.127
   93PMPE  H12R 6897   6.628   3.626   5.166
   93PMPE  H12S 6898   6.455   3.615   5.088
   93PMPE  C213 6899   6.465   3.755   5.243
   93PMPE  H13R 6900   6.392   3.828   5.206
   93PMPE  H13S 6901   6.560   3.791   5.275
   93PMPE  C214 6902   6.453   3.725   5.396
   93PMPE  H14R 6903   6.540   3.665   5.428
   93PMPE  H14S 6904   6.378   3.654   5.422
   93PMPE  C215 6905   6.414   3.841   5.491
   93PMPE  H15R 6906   6.327   3.897   5.450
   93PMPE  H15S 6907   6.495   3.914   5.510
   93PMPE  C216 6908   6.375   3.779   5.625
   93PMPE  H16R 6909   6.350   3.853   5.702
   93PMPE  H16S 6910   6.286   3.719   5.606
   93PMPE  H16T 6911   6.452   3.707   5.660
   93PMPE   C33 6912   6.671   4.382   4.065
   93PMPE   H3X 6913   6.760   4.429   4.016
   93PMPE   H3Y 6914   6.715   4.316   4.138
   93PMPE   C34 6915   6.576   4.481   4.132
   93PMPE   H4X 6916   6.533   4.548   4.055
   93PMPE   H4Y 6917   6.635   4.546   4.193
   93PMPE   C35 6918   6.495   4.441   4.251
   93PMPE   H5X 6919   6.445   4.348   4.220
   93PMPE   H5Y 6920   6.427   4.525   4.275
   93PMPE   C36 6921   6.573   4.412   4.379
   93PMPE   H6X 6922   6.644   4.480   4.420
   93PMPE   H6Y 6923   6.641   4.335   4.347
   93PMPE   C37 6924   6.470   4.390   4.489
   93PMPE   H7X 6925   6.414   4.301   4.452
   93PMPE   H7Y 6926   6.409   4.481   4.498
   93PMPE   C38 6927   6.510   4.356   4.631
   93PMPE   H8X 6928   6.554   4.424   4.706
   93PMPE   H8Y 6929   6.591   4.299   4.608
   93PMPE   C39 6930   6.431   4.249   4.696
   93PMPE   H9X 6931   6.435   4.155   4.634
   93PMPE   H9Y 6932   6.329   4.289   4.708
   93PMPE  C310 6933   6.482   4.219   4.833
   93PMPE  H10X 6934   6.496   4.305   4.901
   93PMPE  H10Y 6935   6.581   4.182   4.831
   93PMPE  C311 6936   6.397   4.109   4.888
   93PMPE  H11X 6937   6.467   4.065   4.954
   93PMPE  H11Y 6938   6.388   4.017   4.829
   93PMPE  C312 6939   6.273   4.175   4.946
   93PMPE  H12X 6940   6.206   4.195   4.859
   93PMPE  H12Y 6941   6.297   4.276   4.987
   93PMPE  C313 6942   6.201   4.097   5.056
   93PMPE  H13X 6943   6.119   4.167   5.088
   93PMPE  H13Y 6944   6.263   4.082   5.146
   93PMPE  C314 6945   6.152   3.961   5.005
   93PMPE  H14X 6946   6.233   3.890   4.983
   93PMPE  H14Y 6947   6.107   3.982   4.906
   93PMPE  C315 6948   6.048   3.891   5.094
   93PMPE  H15X 6949   5.982   3.820   5.038
   93PMPE  H15Y 6950   5.987   3.974   5.122
   93PMPE  C316 6951   6.096   3.823   5.219
   93PMPE  H16X 6952   6.014   3.803   5.291
   93PMPE  H16Y 6953   6.180   3.876   5.267
   93PMPE  H16Z 6954   6.138   3.729   5.183
   94PMPE     N 6955   5.248   5.912   3.369
   94PMPE   HN1 6956   5.174   5.843   3.349
   94PMPE   HN2 6957   5.320   5.912   3.293
   94PMPE   HN3 6958   5.294   5.884   3.458
   94PMPE   C12 6959   5.190   6.051   3.381
   94PMPE  H12A 6960   5.178   6.090   3.278
   94PMPE  H12B 6961   5.264   6.113   3.435
   94PMPE   C11 6962   5.051   6.058   3.449
   94PMPE  H11A 6963   4.972   6.027   3.377
   94PMPE  H11B 6964   5.031   6.166   3.473
   94PMPE     P 6965   5.080   6.029   3.707
   94PMPE   O13 6966   4.960   6.072   3.783
   94PMPE   O14 6967   5.192   6.124   3.688
   94PMPE   O11 6968   5.141   5.901   3.774
   94PMPE   O12 6969   5.041   5.975   3.563
   94PMPE    C1 6970   5.219   5.799   3.711
   94PMPE    HA 6971   5.286   5.840   3.632
   94PMPE    HB 6972   5.154   5.721   3.667
   94PMPE    C2 6973   5.310   5.732   3.814
   94PMPE    HS 6974   5.333   5.625   3.790
   94PMPE   O21 6975   5.273   5.743   3.952
   94PMPE   C21 6976   5.152   5.705   3.982
   94PMPE   O22 6977   5.082   5.632   3.914
   94PMPE   C22 6978   5.116   5.762   4.119
   94PMPE   H2R 6979   5.011   5.735   4.140
   94PMPE   H2S 6980   5.125   5.873   4.113
   94PMPE    C3 6981   5.441   5.801   3.800
   94PMPE    HX 6982   5.492   5.768   3.707
   94PMPE    HY 6983   5.492   5.758   3.884
   94PMPE   O31 6984   5.448   5.943   3.813
   94PMPE   C31 6985   5.449   5.985   3.938
   94PMPE   O32 6986   5.465   5.917   4.039
   94PMPE   C32 6987   5.427   6.129   3.940
   94PMPE   H2X 6988   5.331   6.162   3.894
   94PMPE   H2Y 6989   5.512   6.185   3.893
   94PMPE   C23 6990   5.207   5.712   4.233
   94PMPE   H3R 6991   5.305   5.764   4.228
   94PMPE   H3S 6992   5.228   5.603   4.220
   94PMPE   C24 6993   5.145   5.726   4.372
   94PMPE   H4R 6994   5.043   5.770   4.367
   94PMPE   H4S 6995   5.207   5.796   4.433
   94PMPE   C25 6996   5.131   5.591   4.442
   94PMPE   H5R 6997   5.220   5.528   4.433
   94PMPE   H5S 6998   5.057   5.530   4.386
   94PMPE   C26 6999   5.088   5.609   4.588
   94PMPE   H6R 7000   5.060   5.511   4.631
   94PMPE   H6S 7001   4.999   5.675   4.587
   94PMPE   C27 7002   5.191   5.671   4.683
   94PMPE   H7R 7003   5.139   5.720   4.767
   94PMPE   H7S 7004   5.253   5.749   4.634
   94PMPE   C28 7005   5.277   5.561   4.746
   94PMPE   H8R 7006   5.318   5.503   4.662
   94PMPE   H8S 7007   5.221   5.482   4.796
   94PMPE   C29 7008   5.380   5.627   4.839
   94PMPE   H9R 7009   5.430   5.715   4.799
   94PMPE  C217 7010   5.439   5.550   4.960
   94PMPE  H17R 7011   5.534   5.583   5.003
   94PMPE  H17S 7012   5.404   5.449   4.962
   94PMPE  C210 7013   5.343   5.663   4.974
   94PMPE  H10R 7014   5.391   5.754   5.019
   94PMPE  C211 7015   5.210   5.610   5.017
   94PMPE  H11R 7016   5.188   5.510   4.980
   94PMPE  H11S 7017   5.133   5.686   4.988
   94PMPE  C212 7018   5.215   5.601   5.163
   94PMPE  H12R 7019   5.115   5.609   5.209
   94PMPE  H12S 7020   5.257   5.699   5.155
   94PMPE  C213 7021   5.301   5.502   5.246
   94PMPE  H13R 7022   5.408   5.513   5.226
   94PMPE  H13S 7023   5.268   5.410   5.196
   94PMPE  C214 7024   5.255   5.498   5.397
   94PMPE  H14R 7025   5.145   5.512   5.399
   94PMPE  H14S 7026   5.295   5.577   5.461
   94PMPE  C215 7027   5.290   5.398   5.501
   94PMPE  H15R 7028   5.312   5.298   5.466
   94PMPE  H15S 7029   5.222   5.411   5.589
   94PMPE  C216 7030   5.416   5.415   5.554
   94PMPE  H16R 7031   5.431   5.352   5.640
   94PMPE  H16S 7032   5.493   5.434   5.473
   94PMPE  H16T 7033   5.412   5.490   5.629
   94PMPE   C33 7034   5.414   6.150   4.088
   94PMPE   H3X 7035   5.396   6.254   4.078
   94PMPE   H3Y 7036   5.506   6.129   4.147
   94PMPE   C34 7037   5.283   6.149   4.162
   94PMPE   H4X 7038   5.240   6.051   4.135
   94PMPE   H4Y 7039   5.214   6.231   4.129
   94PMPE   C35 7040   5.306   6.160   4.312
   94PMPE   H5X 7041   5.346   6.259   4.347
   94PMPE   H5Y 7042   5.380   6.082   4.342
   94PMPE   C36 7043   5.175   6.136   4.381
   94PMPE   H6X 7044   5.131   6.037   4.352
   94PMPE   H6Y 7045   5.100   6.214   4.352
   94PMPE   C37 7046   5.194   6.138   4.530
   94PMPE   H7X 7047   5.242   6.234   4.562
   94PMPE   H7Y 7048   5.259   6.055   4.566
   94PMPE   C38 7049   5.055   6.122   4.583
   94PMPE   H8X 7050   5.001   6.034   4.544
   94PMPE   H8Y 7051   4.994   6.213   4.553
   94PMPE   C39 7052   5.062   6.108   4.731
   94PMPE   H9X 7053   5.051   6.215   4.724
   94PMPE   H9Y 7054   5.160   6.085   4.780
   94PMPE  C310 7055   4.944   6.038   4.793
   94PMPE  H10X 7056   4.950   5.937   4.750
   94PMPE  H10Y 7057   4.847   6.086   4.765
   94PMPE  C311 7058   4.953   6.008   4.939
   94PMPE  H11X 7059   4.920   6.078   5.010
   94PMPE  H11Y 7060   5.055   5.989   4.979
   94PMPE  C312 7061   4.833   5.941   4.994
   94PMPE  H12X 7062   4.815   5.849   4.937
   94PMPE  H12Y 7063   4.738   6.003   4.994
   94PMPE  C313 7064   4.874   5.927   5.137
   94PMPE  H13X 7065   4.865   6.015   5.205
   94PMPE  H13Y 7066   4.974   5.886   5.138
   94PMPE  C314 7067   4.782   5.840   5.188
   94PMPE  H14X 7068   4.838   5.789   5.271
   94PMPE  H14Y 7069   4.795   5.745   5.128
   94PMPE  C315 7070   4.642   5.928   5.222
   94PMPE  H15X 7071   4.653   6.035   5.205
   94PMPE  H15Y 7072   4.630   5.933   5.329
   94PMPE  C316 7073   4.487   5.908   5.187
   94PMPE  H16X 7074   4.507   5.909   5.079
   94PMPE  H16Y 7075   4.395   5.846   5.204
   94PMPE  H16Z 7076   4.458   5.812   5.224
   95PMPE     N 7077   4.886   1.878   3.745
   95PMPE   HN1 7078   4.941   1.809   3.801
   95PMPE   HN2 7079   4.946   1.961   3.722
   95PMPE   HN3 7080   4.804   1.912   3.799
   95PMPE   C12 7081   4.830   1.817   3.620
   95PMPE  H12A 7082   4.780   1.722   3.646
   95PMPE  H12B 7083   4.914   1.792   3.551
   95PMPE   C11 7084   4.728   1.913   3.559
   95PMPE  H11A 7085   4.718   1.890   3.451
   95PMPE  H11B 7086   4.763   2.019   3.566
   95PMPE     P 7087   4.497   1.795   3.556
   95PMPE   O13 7088   4.582   1.694   3.484
   95PMPE   O14 7089   4.388   1.864   3.485
   95PMPE   O11 7090   4.443   1.719   3.682
   95PMPE   O12 7091   4.601   1.900   3.622
   95PMPE    C1 7092   4.433   1.786   3.807
   95PMPE    HA 7093   4.345   1.755   3.864
   95PMPE    HB 7094   4.416   1.896   3.798
   95PMPE    C2 7095   4.551   1.751   3.897
   95PMPE    HS 7096   4.638   1.800   3.852
   95PMPE   O21 7097   4.571   1.610   3.908
   95PMPE   C21 7098   4.691   1.585   3.955
   95PMPE   O22 7099   4.784   1.664   3.960
   95PMPE   C22 7100   4.699   1.442   3.981
   95PMPE   H2R 7101   4.797   1.397   3.985
   95PMPE   H2S 7102   4.668   1.395   3.885
   95PMPE    C3 7103   4.522   1.805   4.036
   95PMPE    HX 7104   4.505   1.914   4.014
   95PMPE    HY 7105   4.609   1.796   4.104
   95PMPE   O31 7106   4.407   1.730   4.089
   95PMPE   C31 7107   4.359   1.804   4.186
   95PMPE   O32 7108   4.404   1.912   4.211
   95PMPE   C32 7109   4.256   1.736   4.272
   95PMPE   H2X 7110   4.312   1.649   4.313
   95PMPE   H2Y 7111   4.169   1.706   4.211
   95PMPE   C23 7112   4.703   1.399   4.125
   95PMPE   H3R 7113   4.797   1.428   4.176
   95PMPE   H3S 7114   4.711   1.290   4.135
   95PMPE   C24 7115   4.582   1.433   4.200
   95PMPE   H4R 7116   4.493   1.413   4.136
   95PMPE   H4S 7117   4.568   1.540   4.219
   95PMPE   C25 7118   4.585   1.340   4.319
   95PMPE   H5R 7119   4.598   1.237   4.279
   95PMPE   H5S 7120   4.493   1.363   4.377
   95PMPE   C26 7121   4.684   1.329   4.422
   95PMPE   H6R 7122   4.775   1.287   4.376
   95PMPE   H6S 7123   4.644   1.256   4.497
   95PMPE   C27 7124   4.675   1.470   4.463
   95PMPE   H7R 7125   4.571   1.500   4.493
   95PMPE   H7S 7126   4.709   1.537   4.382
   95PMPE   C28 7127   4.757   1.480   4.580
   95PMPE   H8R 7128   4.858   1.441   4.551
   95PMPE   H8S 7129   4.713   1.408   4.654
   95PMPE   C29 7130   4.751   1.628   4.618
   95PMPE   H9R 7131   4.660   1.686   4.609
   95PMPE  C217 7132   4.883   1.700   4.607
   95PMPE  H17R 7133   4.882   1.806   4.591
   95PMPE  H17S 7134   4.959   1.638   4.569
   95PMPE  C210 7135   4.823   1.656   4.741
   95PMPE  H10R 7136   4.801   1.743   4.805
   95PMPE  C211 7137   4.862   1.522   4.795
   95PMPE  H11R 7138   4.948   1.553   4.834
   95PMPE  H11S 7139   4.920   1.454   4.732
   95PMPE  C212 7140   4.788   1.457   4.911
   95PMPE  H12R 7141   4.856   1.391   4.971
   95PMPE  H12S 7142   4.727   1.384   4.860
   95PMPE  C213 7143   4.706   1.555   4.998
   95PMPE  H13R 7144   4.671   1.644   4.945
   95PMPE  H13S 7145   4.746   1.631   5.065
   95PMPE  C214 7146   4.631   1.481   5.104
   95PMPE  H14R 7147   4.535   1.458   5.055
   95PMPE  H14S 7148   4.620   1.540   5.199
   95PMPE  C215 7149   4.690   1.350   5.147
   95PMPE  H15R 7150   4.792   1.340   5.177
   95PMPE  H15S 7151   4.692   1.277   5.065
   95PMPE  C216 7152   4.610   1.303   5.262
   95PMPE  H16R 7153   4.607   1.353   5.359
   95PMPE  H16S 7154   4.504   1.297   5.231
   95PMPE  H16T 7155   4.662   1.205   5.282
   95PMPE   C33 7156   4.207   1.818   4.392
   95PMPE   H3X 7157   4.131   1.758   4.447
   95PMPE   H3Y 7158   4.155   1.913   4.364
   95PMPE   C34 7159   4.314   1.850   4.497
   95PMPE   H4X 7160   4.256   1.895   4.577
   95PMPE   H4Y 7161   4.398   1.911   4.463
   95PMPE   C35 7162   4.412   1.750   4.547
   95PMPE   H5X 7163   4.482   1.802   4.618
   95PMPE   H5Y 7164   4.472   1.714   4.461
   95PMPE   C36 7165   4.342   1.635   4.609
   95PMPE   H6X 7166   4.423   1.573   4.653
   95PMPE   H6Y 7167   4.281   1.586   4.531
   95PMPE   C37 7168   4.250   1.665   4.723
   95PMPE   H7X 7169   4.205   1.565   4.745
   95PMPE   H7Y 7170   4.167   1.736   4.697
   95PMPE   C38 7171   4.338   1.686   4.845
   95PMPE   H8X 7172   4.372   1.780   4.857
   95PMPE   H8Y 7173   4.425   1.622   4.855
   95PMPE   C39 7174   4.268   1.693   4.971
   95PMPE   H9X 7175   4.258   1.589   5.009
   95PMPE   H9Y 7176   4.176   1.734   4.921
   95PMPE  C310 7177   4.295   1.787   5.088
   95PMPE  H10X 7178   4.265   1.727   5.174
   95PMPE  H10Y 7179   4.229   1.876   5.092
   95PMPE  C311 7180   4.435   1.803   5.141
   95PMPE  H11X 7181   4.499   1.851   5.069
   95PMPE  H11Y 7182   4.477   1.702   5.153
   95PMPE  C312 7183   4.434   1.888   5.268
   95PMPE  H12X 7184   4.364   1.974   5.255
   95PMPE  H12Y 7185   4.537   1.928   5.281
   95PMPE  C313 7186   4.393   1.817   5.396
   95PMPE  H13X 7187   4.283   1.804   5.395
   95PMPE  H13Y 7188   4.413   1.884   5.483
   95PMPE  C314 7189   4.470   1.687   5.418
   95PMPE  H14X 7190   4.578   1.711   5.424
   95PMPE  H14Y 7191   4.457   1.613   5.336
   95PMPE  C315 7192   4.429   1.626   5.550
   95PMPE  H15X 7193   4.328   1.638   5.564
   95PMPE  H15Y 7194   4.470   1.681   5.637
   95PMPE  C316 7195   4.442   1.480   5.561
   95PMPE  H16X 7196   4.541   1.463   5.521
   95PMPE  H16Y 7197   4.378   1.412   5.500
   95PMPE  H16Z 7198   4.441   1.448   5.667
   96PMPE     N 7199   1.274   3.764   3.791
   96PMPE   HN1 7200   1.344   3.828   3.830
   96PMPE   HN2 7201   1.180   3.811   3.802
   96PMPE   HN3 7202   1.271   3.676   3.849
   96PMPE   C12 7203   1.299   3.729   3.647
   96PMPE  H12A 7204   1.242   3.639   3.621
   96PMPE  H12B 7205   1.402   3.692   3.639
   96PMPE   C11 7206   1.275   3.849   3.552
   96PMPE  H11A 7207   1.270   3.819   3.445
   96PMPE  H11B 7208   1.369   3.909   3.564
   96PMPE     P 7209   1.160   4.081   3.542
   96PMPE   O13 7210   1.048   4.111   3.450
   96PMPE   O14 7211   1.295   4.110   3.493
   96PMPE   O11 7212   1.139   4.153   3.682
   96PMPE   O12 7213   1.159   3.926   3.586
   96PMPE    C1 7214   1.242   4.150   3.781
   96PMPE    HA 7215   1.328   4.215   3.754
   96PMPE    HB 7216   1.282   4.047   3.796
   96PMPE    C2 7217   1.189   4.198   3.918
   96PMPE    HS 7218   1.251   4.155   4.000
   96PMPE   O21 7219   1.051   4.163   3.937
   96PMPE   C21 7220   1.030   4.033   3.939
   96PMPE   O22 7221   1.116   3.947   3.955
   96PMPE   C22 7222   0.879   4.012   3.941
   96PMPE   H2R 7223   0.824   4.048   3.854
   96PMPE   H2S 7224   0.864   4.075   4.032
   96PMPE    C3 7225   1.207   4.352   3.928
   96PMPE    HX 7226   1.157   4.404   3.844
   96PMPE    HY 7227   1.314   4.379   3.931
   96PMPE   O31 7228   1.150   4.402   4.044
   96PMPE   C31 7229   1.175   4.342   4.155
   96PMPE   O32 7230   1.285   4.305   4.194
   96PMPE   C32 7231   1.048   4.378   4.235
   96PMPE   H2X 7232   0.956   4.327   4.245
   96PMPE   H2Y 7233   1.034   4.483   4.226
   96PMPE   C23 7234   0.818   3.884   3.981
   96PMPE   H3R 7235   0.841   3.807   3.907
   96PMPE   H3S 7236   0.708   3.861   3.985
   96PMPE   C24 7237   0.877   3.883   4.121
   96PMPE   H4R 7238   0.982   3.859   4.150
   96PMPE   H4S 7239   0.849   3.787   4.109
   96PMPE   C25 7240   0.791   3.937   4.229
   96PMPE   H5R 7241   0.689   3.886   4.219
   96PMPE   H5S 7242   0.787   4.045   4.231
   96PMPE   C26 7243   0.849   3.914   4.362
   96PMPE   H6R 7244   0.895   3.816   4.334
   96PMPE   H6S 7245   0.763   3.916   4.433
   96PMPE   C27 7246   0.985   3.940   4.425
   96PMPE   H7R 7247   0.970   4.048   4.423
   96PMPE   H7S 7248   1.063   3.903   4.355
   96PMPE   C28 7249   1.020   3.890   4.570
   96PMPE   H8R 7250   1.009   3.783   4.599
   96PMPE   H8S 7251   0.952   3.942   4.639
   96PMPE   C29 7252   1.167   3.923   4.587
   96PMPE   H9R 7253   1.198   4.022   4.549
   96PMPE  C217 7254   1.239   3.808   4.512
   96PMPE  H17R 7255   1.293   3.854   4.430
   96PMPE  H17S 7256   1.175   3.723   4.496
   96PMPE  C210 7257   1.275   3.844   4.655
   96PMPE  H10R 7258   1.375   3.890   4.663
   96PMPE  C211 7259   1.233   3.752   4.767
   96PMPE  H11R 7260   1.329   3.710   4.806
   96PMPE  H11S 7261   1.167   3.672   4.725
   96PMPE  C212 7262   1.169   3.811   4.892
   96PMPE  H12R 7263   1.133   3.728   4.956
   96PMPE  H12S 7264   1.076   3.860   4.863
   96PMPE  C213 7265   1.271   3.897   4.969
   96PMPE  H13R 7266   1.299   3.981   4.902
   96PMPE  H13S 7267   1.365   3.841   4.990
   96PMPE  C214 7268   1.219   3.957   5.100
   96PMPE  H14R 7269   1.198   3.873   5.168
   96PMPE  H14S 7270   1.127   4.013   5.078
   96PMPE  C215 7271   1.318   4.054   5.167
   96PMPE  H15R 7272   1.331   4.142   5.099
   96PMPE  H15S 7273   1.414   3.999   5.170
   96PMPE  C216 7274   1.282   4.107   5.307
   96PMPE  H16R 7275   1.179   4.149   5.313
   96PMPE  H16S 7276   1.291   4.028   5.385
   96PMPE  H16T 7277   1.352   4.189   5.334
   96PMPE   C33 7278   1.055   4.365   4.374
   96PMPE   H3X 7279   1.142   4.436   4.356
   96PMPE   H3Y 7280   1.097   4.265   4.390
   96PMPE   C34 7281   0.940   4.402   4.481
   96PMPE   H4X 7282   0.843   4.375   4.443
   96PMPE   H4Y 7283   0.920   4.505   4.515
   96PMPE   C35 7284   0.958   4.368   4.630
   96PMPE   H5X 7285   0.887   4.403   4.704
   96PMPE   H5Y 7286   1.032   4.444   4.663
   96PMPE   C36 7287   0.990   4.220   4.653
   96PMPE   H6X 7288   1.095   4.189   4.642
   96PMPE   H6Y 7289   0.938   4.173   4.569
   96PMPE   C37 7290   0.952   4.159   4.787
   96PMPE   H7X 7291   1.011   4.171   4.876
   96PMPE   H7Y 7292   0.985   4.055   4.787
   96PMPE   C38 7293   0.811   4.198   4.821
   96PMPE   H8X 7294   0.757   4.161   4.732
   96PMPE   H8Y 7295   0.791   4.307   4.831
   96PMPE   C39 7296   0.767   4.132   4.947
   96PMPE   H9X 7297   0.816   4.032   4.950
   96PMPE   H9Y 7298   0.658   4.120   4.931
   96PMPE  C310 7299   0.789   4.216   5.073
   96PMPE  H10X 7300   0.725   4.306   5.071
   96PMPE  H10Y 7301   0.893   4.244   5.094
   96PMPE  C311 7302   0.777   4.140   5.201
   96PMPE  H11X 7303   0.669   4.122   5.217
   96PMPE  H11Y 7304   0.807   4.203   5.282
   96PMPE  C312 7305   0.887   4.033   5.221
   96PMPE  H12X 7306   0.963   4.050   5.146
   96PMPE  H12Y 7307   0.871   3.929   5.195
   96PMPE  C313 7308   0.921   4.007   5.366
   96PMPE  H13X 7309   0.828   4.015   5.426
   96PMPE  H13Y 7310   0.976   4.095   5.401
   96PMPE  C314 7311   1.009   3.879   5.381
   96PMPE  H14X 7312   1.049   3.882   5.483
   96PMPE  H14Y 7313   1.086   3.876   5.307
   96PMPE  C315 7314   0.961   3.739   5.342
   96PMPE  H15X 7315   0.937   3.702   5.243
   96PMPE  H15Y 7316   0.863   3.772   5.365
   96PMPE  C316 7317   1.005   3.610   5.410
   96PMPE  H16X 7318   1.070   3.548   5.347
   96PMPE  H16Y 7319   0.906   3.566   5.413
   96PMPE  H16Z 7320   1.028   3.601   5.518
   97PMPE     N 7321   6.210   2.735   3.430
   97PMPE   HN1 7322   6.124   2.745   3.373
   97PMPE   HN2 7323   6.291   2.783   3.386
   97PMPE   HN3 7324   6.240   2.634   3.436
   97PMPE   C12 7325   6.190   2.774   3.575
   97PMPE  H12A 7326   6.088   2.812   3.590
   97PMPE  H12B 7327   6.263   2.853   3.600
   97PMPE   C11 7328   6.214   2.648   3.659
   97PMPE  H11A 7329   6.135   2.573   3.631
   97PMPE  H11B 7330   6.201   2.667   3.768
   97PMPE     P 7331   6.367   2.446   3.599
   97PMPE   O13 7332   6.511   2.416   3.609
   97PMPE   O14 7333   6.297   2.441   3.469
   97PMPE   O11 7334   6.287   2.382   3.719
   97PMPE   O12 7335   6.346   2.600   3.636
   97PMPE    C1 7336   6.325   2.413   3.854
   97PMPE    HA 7337   6.311   2.521   3.879
   97PMPE    HB 7338   6.431   2.385   3.875
   97PMPE    C2 7339   6.230   2.345   3.952
   97PMPE    HS 7340   6.213   2.243   3.912
   97PMPE   O21 7341   6.108   2.421   3.945
   97PMPE   C21 7342   6.013   2.366   4.016
   97PMPE   O22 7343   6.029   2.271   4.090
   97PMPE   C22 7344   5.895   2.463   4.013
   97PMPE   H2R 7345   5.796   2.420   4.021
   97PMPE   H2S 7346   5.885   2.510   3.915
   97PMPE    C3 7347   6.292   2.340   4.096
   97PMPE    HX 7348   6.397   2.302   4.093
   97PMPE    HY 7349   6.238   2.270   4.160
   97PMPE   O31 7350   6.292   2.462   4.161
   97PMPE   C31 7351   6.249   2.465   4.285
   97PMPE   O32 7352   6.200   2.376   4.352
   97PMPE   C32 7353   6.283   2.601   4.332
   97PMPE   H2X 7354   6.187   2.654   4.346
   97PMPE   H2Y 7355   6.343   2.649   4.251
   97PMPE   C23 7356   5.900   2.541   4.145
   97PMPE   H3R 7357   5.977   2.617   4.132
   97PMPE   H3S 7358   5.927   2.469   4.227
   97PMPE   C24 7359   5.767   2.599   4.187
   97PMPE   H4R 7360   5.711   2.525   4.247
   97PMPE   H4S 7361   5.708   2.638   4.100
   97PMPE   C25 7362   5.765   2.700   4.297
   97PMPE   H5R 7363   5.655   2.711   4.313
   97PMPE   H5S 7364   5.813   2.787   4.258
   97PMPE   C26 7365   5.827   2.671   4.430
   97PMPE   H6R 7366   5.807   2.760   4.495
   97PMPE   H6S 7367   5.937   2.661   4.420
   97PMPE   C27 7368   5.766   2.551   4.501
   97PMPE   H7R 7369   5.797   2.457   4.450
   97PMPE   H7S 7370   5.655   2.553   4.501
   97PMPE   C28 7371   5.805   2.558   4.646
   97PMPE   H8R 7372   5.728   2.510   4.712
   97PMPE   H8S 7373   5.830   2.657   4.687
   97PMPE   C29 7374   5.935   2.491   4.650
   97PMPE   H9R 7375   6.006   2.501   4.567
   97PMPE  C217 7376   5.899   2.352   4.680
   97PMPE  H17R 7377   5.947   2.273   4.632
   97PMPE  H17S 7378   5.795   2.342   4.686
   97PMPE  C210 7379   5.975   2.431   4.775
   97PMPE  H10R 7380   6.073   2.404   4.803
   97PMPE  C211 7381   5.915   2.438   4.896
   97PMPE  H11R 7382   5.957   2.356   4.959
   97PMPE  H11S 7383   5.806   2.447   4.904
   97PMPE  C212 7384   6.000   2.537   4.947
   97PMPE  H12R 7385   5.974   2.626   4.880
   97PMPE  H12S 7386   6.109   2.512   4.965
   97PMPE  C213 7387   5.934   2.510   5.070
   97PMPE  H13R 7388   5.822   2.526   5.069
   97PMPE  H13S 7389   5.985   2.599   5.054
   97PMPE  C214 7390   5.997   2.463   5.203
   97PMPE  H14R 7391   5.993   2.377   5.141
   97PMPE  H14S 7392   5.930   2.465   5.294
   97PMPE  C215 7393   6.138   2.450   5.238
   97PMPE  H15R 7394   6.181   2.552   5.248
   97PMPE  H15S 7395   6.177   2.394   5.150
   97PMPE  C216 7396   6.156   2.371   5.366
   97PMPE  H16R 7397   6.265   2.349   5.368
   97PMPE  H16S 7398   6.127   2.428   5.457
   97PMPE  H16T 7399   6.099   2.275   5.368
   97PMPE   C33 7400   6.376   2.598   4.452
   97PMPE   H3X 7401   6.426   2.696   4.462
   97PMPE   H3Y 7402   6.454   2.518   4.440
   97PMPE   C34 7403   6.299   2.576   4.578
   97PMPE   H4X 7404   6.311   2.467   4.579
   97PMPE   H4Y 7405   6.194   2.611   4.582
   97PMPE   C35 7406   6.367   2.618   4.703
   97PMPE   H5X 7407   6.409   2.721   4.693
   97PMPE   H5Y 7408   6.446   2.541   4.709
   97PMPE   C36 7409   6.276   2.598   4.824
   97PMPE   H6X 7410   6.255   2.494   4.849
   97PMPE   H6Y 7411   6.186   2.662   4.809
   97PMPE   C37 7412   6.337   2.650   4.947
   97PMPE   H7X 7413   6.283   2.670   5.042
   97PMPE   H7Y 7414   6.377   2.733   4.888
   97PMPE   C38 7415   6.434   2.578   5.017
   97PMPE   H8X 7416   6.494   2.532   4.938
   97PMPE   H8Y 7417   6.402   2.494   5.082
   97PMPE   C39 7418   6.508   2.672   5.108
   97PMPE   H9X 7419   6.550   2.763   5.054
   97PMPE   H9Y 7420   6.572   2.579   5.135
   97PMPE  C310 7421   6.522   2.824   5.191
   97PMPE  H10X 7422   6.460   2.737   5.185
   97PMPE  H10Y 7423   6.449   2.880   5.207
   97PMPE  C311 7424   6.562   2.885   5.351
   97PMPE  H11X 7425   6.635   2.944   5.302
   97PMPE  H11Y 7426   6.619   2.830   5.429
   97PMPE  C312 7427   6.490   2.893   5.496
   97PMPE  H12X 7428   6.556   2.938   5.575
   97PMPE  H12Y 7429   6.477   2.795   5.554
   97PMPE  C313 7430   6.351   2.944   5.475
   97PMPE  H13X 7431   6.282   2.910   5.394
   97PMPE  H13Y 7432   6.363   3.043   5.449
   97PMPE  C314 7433   6.273   2.928   5.592
   97PMPE  H14X 7434   6.194   3.006   5.589
   97PMPE  H14Y 7435   6.335   2.929   5.683
   97PMPE  C315 7436   6.226   2.790   5.585
   97PMPE  H15X 7437   6.281   2.700   5.551
   97PMPE  H15Y 7438   6.150   2.789   5.509
   97PMPE  C316 7439   6.172   2.777   5.720
   97PMPE  H16X 7440   6.093   2.851   5.748
   97PMPE  H16Y 7441   6.223   2.743   5.808
   97PMPE  H16Z 7442   6.134   2.686   5.678
   98PMPE     N 7443   2.508   6.225   3.567
   98PMPE   HN1 7444   2.606   6.256   3.571
   98PMPE   HN2 7445   2.499   6.135   3.515
   98PMPE   HN3 7446   2.451   6.296   3.518
   98PMPE   C12 7447   2.445   6.212   3.703
   98PMPE  H12A 7448   2.465   6.307   3.756
   98PMPE  H12B 7449   2.491   6.127   3.756
   98PMPE   C11 7450   2.294   6.190   3.684
   98PMPE  H11A 7451   2.255   6.279   3.629
   98PMPE  H11B 7452   2.242   6.186   3.783
   98PMPE     P 7453   2.132   6.033   3.547
   98PMPE   O13 7454   2.141   5.919   3.454
   98PMPE   O14 7455   2.082   6.159   3.489
   98PMPE   O11 7456   2.039   5.994   3.668
   98PMPE   O12 7457   2.272   6.069   3.611
   98PMPE    C1 7458   1.921   5.915   3.639
   98PMPE    HA 7459   1.938   5.831   3.569
   98PMPE    HB 7460   1.842   5.981   3.594
   98PMPE    C2 7461   1.871   5.841   3.767
   98PMPE    HS 7462   1.771   5.794   3.744
   98PMPE   O21 7463   1.853   5.922   3.875
   98PMPE   C21 7464   1.768   5.996   3.850
   98PMPE   O22 7465   1.677   5.996   3.767
   98PMPE   C22 7466   1.831   6.109   3.914
   98PMPE   H2R 7467   1.729   6.129   3.892
   98PMPE   H2S 7468   1.879   6.159   3.837
   98PMPE    C3 7469   1.961   5.740   3.831
   98PMPE    HX 7470   1.965   5.661   3.756
   98PMPE    HY 7471   1.913   5.704   3.926
   98PMPE   O31 7472   2.091   5.797   3.854
   98PMPE   C31 7473   2.114   5.851   3.972
   98PMPE   O32 7474   2.043   5.841   4.071
   98PMPE   C32 7475   2.256   5.907   3.973
   98PMPE   H2X 7476   2.276   5.974   3.889
   98PMPE   H2Y 7477   2.309   5.812   3.954
   98PMPE   C23 7478   1.925   6.131   4.044
   98PMPE   H3R 7479   2.017   6.136   3.984
   98PMPE   H3S 7480   1.922   6.044   4.110
   98PMPE   C24 7481   1.947   6.257   4.145
   98PMPE   H4R 7482   1.860   6.294   4.203
   98PMPE   H4S 7483   1.974   6.353   4.097
   98PMPE   C25 7484   2.074   6.247   4.218
   98PMPE   H5R 7485   2.149   6.246   4.136
   98PMPE   H5S 7486   2.059   6.152   4.269
   98PMPE   C26 7487   2.113   6.362   4.311
   98PMPE   H6R 7488   2.133   6.451   4.253
   98PMPE   H6S 7489   2.203   6.338   4.369
   98PMPE   C27 7490   2.009   6.390   4.409
   98PMPE   H7R 7491   1.934   6.449   4.349
   98PMPE   H7S 7492   2.037   6.459   4.491
   98PMPE   C28 7493   1.947   6.260   4.466
   98PMPE   H8R 7494   1.867   6.220   4.398
   98PMPE   H8S 7495   1.902   6.295   4.557
   98PMPE   C29 7496   2.030   6.150   4.521
   98PMPE   H9R 7497   2.105   6.108   4.457
   98PMPE  C217 7498   1.942   6.044   4.587
   98PMPE  H17R 7499   1.972   5.942   4.571
   98PMPE  H17S 7500   1.837   6.070   4.600
   98PMPE  C210 7501   2.049   6.125   4.668
   98PMPE  H10R 7502   2.136   6.067   4.697
   98PMPE  C211 7503   1.994   6.210   4.781
   98PMPE  H11R 7504   1.988   6.151   4.875
   98PMPE  H11S 7505   1.898   6.222   4.732
   98PMPE  C212 7506   2.052   6.341   4.828
   98PMPE  H12R 7507   2.036   6.418   4.750
   98PMPE  H12S 7508   2.157   6.311   4.836
   98PMPE  C213 7509   1.999   6.382   4.968
   98PMPE  H13R 7510   2.020   6.307   5.045
   98PMPE  H13S 7511   1.896   6.404   4.979
   98PMPE  C214 7512   2.025   6.522   5.014
   98PMPE  H14R 7513   1.980   6.597   4.943
   98PMPE  H14S 7514   2.133   6.523   5.020
   98PMPE  C215 7515   1.983   6.547   5.157
   98PMPE  H15R 7516   2.031   6.638   5.181
   98PMPE  H15S 7517   2.032   6.481   5.230
   98PMPE  C216 7518   1.838   6.583   5.180
   98PMPE  H16R 7519   1.807   6.660   5.105
   98PMPE  H16S 7520   1.779   6.490   5.168
   98PMPE  H16T 7521   1.825   6.626   5.282
   98PMPE   C33 7522   2.284   5.979   4.108
   98PMPE   H3X 7523   2.289   5.896   4.181
   98PMPE   H3Y 7524   2.193   6.028   4.145
   98PMPE   C34 7525   2.383   6.099   4.111
   98PMPE   H4X 7526   2.364   6.167   4.026
   98PMPE   H4Y 7527   2.485   6.077   4.099
   98PMPE   C35 7528   2.406   6.177   4.242
   98PMPE   H5X 7529   2.315   6.229   4.267
   98PMPE   H5Y 7530   2.483   6.256   4.224
   98PMPE   C36 7531   2.446   6.094   4.363
   98PMPE   H6X 7532   2.540   6.039   4.344
   98PMPE   H6Y 7533   2.366   6.019   4.384
   98PMPE   C37 7534   2.472   6.179   4.486
   98PMPE   H7X 7535   2.381   6.239   4.506
   98PMPE   H7Y 7536   2.557   6.248   4.469
   98PMPE   C38 7537   2.500   6.087   4.604
   98PMPE   H8X 7538   2.586   6.020   4.581
   98PMPE   H8Y 7539   2.409   6.025   4.617
   98PMPE   C39 7540   2.530   6.167   4.731
   98PMPE   H9X 7541   2.449   6.241   4.748
   98PMPE   H9Y 7542   2.625   6.223   4.712
   98PMPE  C310 7543   2.550   6.081   4.856
   98PMPE  H10X 7544   2.582   6.147   4.939
   98PMPE  H10Y 7545   2.634   6.010   4.838
   98PMPE  C311 7546   2.426   6.003   4.899
   98PMPE  H11X 7547   2.459   5.917   4.962
   98PMPE  H11Y 7548   2.367   5.959   4.815
   98PMPE  C312 7549   2.328   6.089   4.977
   98PMPE  H12X 7550   2.233   6.103   4.921
   98PMPE  H12Y 7551   2.371   6.191   4.991
   98PMPE  C313 7552   2.290   6.023   5.107
   98PMPE  H13X 7553   2.378   5.998   5.170
   98PMPE  H13Y 7554   2.233   5.929   5.089
   98PMPE  C314 7555   2.194   6.113   5.177
   98PMPE  H14X 7556   2.107   6.143   5.116
   98PMPE  H14Y 7557   2.250   6.207   5.206
   98PMPE  C315 7558   2.139   6.049   5.301
   98PMPE  H15X 7559   2.057   6.123   5.325
   98PMPE  H15Y 7560   2.230   6.044   5.367
   98PMPE  C316 7561   2.075   5.919   5.333
   98PMPE  H16X 7562   2.143   5.841   5.295
   98PMPE  H16Y 7563   1.973   5.922   5.290
   98PMPE  H16Z 7564   2.068   5.912   5.445
   99PMPE     N 7565   1.692   5.465   3.612
   99PMPE   HN1 7566   1.718   5.366   3.634
   99PMPE   HN2 7567   1.761   5.505   3.544
   99PMPE   HN3 7568   1.695   5.525   3.697
   99PMPE   C12 7569   1.549   5.475   3.564
   99PMPE  H12A 7570   1.483   5.468   3.652
   99PMPE  H12B 7571   1.531   5.388   3.497
   99PMPE   C11 7572   1.519   5.607   3.490
   99PMPE  H11A 7573   1.412   5.605   3.457
   99PMPE  H11B 7574   1.583   5.607   3.399
   99PMPE     P 7575   1.449   5.843   3.605
   99PMPE   O13 7576   1.315   5.817   3.546
   99PMPE   O14 7577   1.511   5.971   3.571
   99PMPE   O11 7578   1.442   5.819   3.761
   99PMPE   O12 7579   1.550   5.722   3.569
   99PMPE    C1 7580   1.372   5.712   3.826
   99PMPE    HA 7581   1.439   5.668   3.903
   99PMPE    HB 7582   1.341   5.631   3.756
   99PMPE    C2 7583   1.248   5.764   3.903
   99PMPE    HS 7584   1.176   5.807   3.831
   99PMPE   O21 7585   1.294   5.867   3.988
   99PMPE   C21 7586   1.200   5.920   4.061
   99PMPE   O22 7587   1.081   5.925   4.037
   99PMPE   C22 7588   1.265   5.976   4.179
   99PMPE   H2R 7589   1.259   6.084   4.154
   99PMPE   H2S 7590   1.367   5.935   4.177
   99PMPE    C3 7591   1.183   5.650   3.988
   99PMPE    HX 7592   1.162   5.565   3.921
   99PMPE    HY 7593   1.084   5.686   4.027
   99PMPE   O31 7594   1.276   5.610   4.090
   99PMPE   C31 7595   1.224   5.561   4.201
   99PMPE   O32 7596   1.106   5.540   4.224
   99PMPE   C32 7597   1.337   5.537   4.301
   99PMPE   H2X 7598   1.417   5.611   4.281
   99PMPE   H2Y 7599   1.379   5.436   4.286
   99PMPE   C23 7600   1.209   5.936   4.320
   99PMPE   H3R 7601   1.216   5.829   4.338
   99PMPE   H3S 7602   1.109   5.981   4.316
   99PMPE   C24 7603   1.260   5.997   4.452
   99PMPE   H4R 7604   1.189   6.045   4.522
   99PMPE   H4S 7605   1.267   6.079   4.390
   99PMPE   C25 7606   1.403   5.972   4.503
   99PMPE   H5R 7607   1.492   6.041   4.489
   99PMPE   H5S 7608   1.443   5.888   4.446
   99PMPE   C26 7609   1.401   5.986   4.650
   99PMPE   H6R 7610   1.303   5.948   4.685
   99PMPE   H6S 7611   1.408   6.093   4.681
   99PMPE   C27 7612   1.520   5.907   4.699
   99PMPE   H7R 7613   1.608   5.914   4.631
   99PMPE   H7S 7614   1.481   5.804   4.708
   99PMPE   C28 7615   1.556   5.956   4.835
   99PMPE   H8R 7616   1.576   5.878   4.909
   99PMPE   H8S 7617   1.459   6.006   4.860
   99PMPE   C29 7618   1.671   6.052   4.841
   99PMPE   H9R 7619   1.668   6.120   4.752
   99PMPE  C217 7620   1.804   5.993   4.872
   99PMPE  H17R 7621   1.851   6.039   4.794
   99PMPE  H17S 7622   1.801   5.889   4.887
   99PMPE  C210 7623   1.752   6.085   4.978
   99PMPE  H10R 7624   1.805   6.180   4.996
   99PMPE  C211 7625   1.718   6.042   5.124
   99PMPE  H11R 7626   1.817   6.046   5.172
   99PMPE  H11S 7627   1.673   5.942   5.111
   99PMPE  C212 7628   1.639   6.137   5.225
   99PMPE  H12R 7629   1.537   6.135   5.203
   99PMPE  H12S 7630   1.624   6.247   5.224
   99PMPE  C213 7631   1.609   6.096   5.360
   99PMPE  H13R 7632   1.677   6.163   5.416
   99PMPE  H13S 7633   1.631   5.986   5.369
   99PMPE  C214 7634   1.465   6.130   5.397
   99PMPE  H14R 7635   1.385   6.087   5.333
   99PMPE  H14S 7636   1.432   6.234   5.414
   99PMPE  C215 7637   1.439   6.051   5.512
   99PMPE  H15R 7638   1.475   5.946   5.488
   99PMPE  H15S 7639   1.333   6.072   5.527
   99PMPE  C216 7640   1.510   6.068   5.631
   99PMPE  H16R 7641   1.535   5.982   5.696
   99PMPE  H16S 7642   1.605   6.056   5.582
   99PMPE  H16T 7643   1.494   6.160   5.691
   99PMPE   C33 7644   1.281   5.550   4.445
   99PMPE   H3X 7645   1.215   5.462   4.462
   99PMPE   H3Y 7646   1.220   5.643   4.453
   99PMPE   C34 7647   1.386   5.552   4.557
   99PMPE   H4X 7648   1.449   5.643   4.549
   99PMPE   H4Y 7649   1.457   5.471   4.534
   99PMPE   C35 7650   1.325   5.533   4.699
   99PMPE   H5X 7651   1.219   5.558   4.710
   99PMPE   H5Y 7652   1.384   5.595   4.771
   99PMPE   C36 7653   1.343   5.389   4.746
   99PMPE   H6X 7654   1.453   5.410   4.757
   99PMPE   H6Y 7655   1.319   5.314   4.666
   99PMPE   C37 7656   1.316   5.335   4.887
   99PMPE   H7X 7657   1.350   5.231   4.905
   99PMPE   H7Y 7658   1.209   5.331   4.909
   99PMPE   C38 7659   1.387   5.409   4.997
   99PMPE   H8X 7660   1.358   5.514   4.993
   99PMPE   H8Y 7661   1.493   5.423   4.982
   99PMPE   C39 7662   1.362   5.335   5.129
   99PMPE   H9X 7663   1.393   5.227   5.126
   99PMPE   H9Y 7664   1.252   5.338   5.139
   99PMPE  C310 7665   1.416   5.408   5.251
   99PMPE  H10X 7666   1.407   5.357   5.349
   99PMPE  H10Y 7667   1.374   5.510   5.253
   99PMPE  C311 7668   1.560   5.431   5.248
   99PMPE  H11X 7669   1.581   5.430   5.142
   99PMPE  H11Y 7670   1.613   5.337   5.266
   99PMPE  C312 7671   1.601   5.563   5.323
   99PMPE  H12X 7672   1.589   5.655   5.263
   99PMPE  H12Y 7673   1.709   5.579   5.343
   99PMPE  C313 7674   1.542   5.567   5.460
   99PMPE  H13X 7675   1.561   5.468   5.508
   99PMPE  H13Y 7676   1.436   5.584   5.445
   99PMPE  C314 7677   1.597   5.682   5.539
   99PMPE  H14X 7678   1.526   5.712   5.619
   99PMPE  H14Y 7679   1.623   5.770   5.476
   99PMPE  C315 7680   1.717   5.639   5.610
   99PMPE  H15X 7681   1.741   5.731   5.668
   99PMPE  H15Y 7682   1.803   5.619   5.542
   99PMPE  C316 7683   1.694   5.521   5.703
   99PMPE  H16X 7684   1.792   5.527   5.747
   99PMPE  H16Y 7685   1.702   5.415   5.680
   99PMPE  H16Z 7686   1.617   5.542   5.781
  100PMPE     N 7687   5.015   6.780   3.450
  100PMPE   HN1 7688   4.987   6.741   3.542
  100PMPE   HN2 7689   4.952   6.741   3.377
  100PMPE   HN3 7690   5.116   6.754   3.435
  100PMPE   C12 7691   5.011   6.930   3.455
  100PMPE  H12A 7692   4.906   6.960   3.466
  100PMPE  H12B 7693   5.057   6.970   3.362
  100PMPE   C11 7694   5.088   6.982   3.575
  100PMPE  H11A 7695   5.055   6.929   3.669
  100PMPE  H11B 7696   5.068   7.090   3.590
  100PMPE     P 7697   5.312   6.875   3.634
  100PMPE   O13 7698   5.453   6.906   3.603
  100PMPE   O14 7699   5.258   6.739   3.611
  100PMPE   O11 7700   5.265   6.930   3.777
  100PMPE   O12 7701   5.226   6.968   3.545
  100PMPE    C1 7702   5.344   6.890   3.887
  100PMPE    HA 7703   5.439   6.949   3.889
  100PMPE    HB 7704   5.355   6.781   3.879
  100PMPE    C2 7705   5.284   6.882   4.027
  100PMPE    HS 7706   5.352   6.829   4.099
  100PMPE   O21 7707   5.155   6.819   4.022
  100PMPE   C21 7708   5.154   6.688   3.998
  100PMPE   O22 7709   5.247   6.613   3.996
  100PMPE   C22 7710   5.019   6.629   3.977
  100PMPE   H2R 7711   5.038   6.528   3.934
  100PMPE   H2S 7712   4.961   6.693   3.910
  100PMPE    C3 7713   5.277   7.026   4.071
  100PMPE    HX 7714   5.215   7.081   3.997
  100PMPE    HY 7715   5.378   7.072   4.075
  100PMPE   O31 7716   5.227   7.031   4.201
  100PMPE   C31 7717   5.105   7.070   4.205
  100PMPE   O32 7718   5.024   7.094   4.118
  100PMPE   C32 7719   5.076   7.080   4.345
  100PMPE   H2X 7720   5.124   6.985   4.383
  100PMPE   H2Y 7721   4.966   7.088   4.343
  100PMPE   C23 7722   4.957   6.597   4.108
  100PMPE   H3R 7723   5.011   6.518   4.167
  100PMPE   H3S 7724   4.850   6.565   4.095
  100PMPE   C24 7725   4.962   6.710   4.199
  100PMPE   H4R 7726   4.911   6.797   4.151
  100PMPE   H4S 7727   5.059   6.755   4.228
  100PMPE   C25 7728   4.890   6.636   4.311
  100PMPE   H5R 7729   4.786   6.598   4.312
  100PMPE   H5S 7730   4.871   6.733   4.328
  100PMPE   C26 7731   4.960   6.582   4.428
  100PMPE   H6R 7732   5.000   6.485   4.397
  100PMPE   H6S 7733   4.886   6.574   4.513
  100PMPE   C27 7734   5.080   6.665   4.458
  100PMPE   H7R 7735   5.054   6.767   4.475
  100PMPE   H7S 7736   5.160   6.686   4.389
  100PMPE   C28 7737   5.142   6.603   4.573
  100PMPE   H8R 7738   5.143   6.495   4.585
  100PMPE   H8S 7739   5.051   6.600   4.636
  100PMPE   C29 7740   5.267   6.688   4.623
  100PMPE   H9R 7741   5.266   6.801   4.632
  100PMPE  C217 7742   5.389   6.657   4.561
  100PMPE  H17R 7743   5.422   6.757   4.529
  100PMPE  H17S 7744   5.352   6.575   4.502
  100PMPE  C210 7745   5.386   6.634   4.715
  100PMPE  H10R 7746   5.439   6.715   4.769
  100PMPE  C211 7747   5.390   6.488   4.792
  100PMPE  H11R 7748   5.487   6.442   4.798
  100PMPE  H11S 7749   5.339   6.425   4.717
  100PMPE  C212 7750   5.352   6.452   4.952
  100PMPE  H12R 7751   5.413   6.510   5.020
  100PMPE  H12S 7752   5.360   6.341   4.961
  100PMPE  C213 7753   5.215   6.463   5.023
  100PMPE  H13R 7754   5.199   6.423   4.930
  100PMPE  H13S 7755   5.141   6.541   5.030
  100PMPE  C214 7756   5.124   6.437   5.132
  100PMPE  H14R 7757   5.119   6.332   5.138
  100PMPE  H14S 7758   5.016   6.462   5.097
  100PMPE  C215 7759   5.183   6.518   5.239
  100PMPE  H15R 7760   5.217   6.619   5.208
  100PMPE  H15S 7761   5.271   6.449   5.246
  100PMPE  C216 7762   5.092   6.536   5.354
  100PMPE  H16R 7763   4.994   6.583   5.340
  100PMPE  H16S 7764   5.056   6.440   5.367
  100PMPE  H16T 7765   5.132   6.552   5.452
  100PMPE   C33 7766   5.115   7.201   4.425
  100PMPE   H3X 7767   5.077   7.287   4.365
  100PMPE   H3Y 7768   5.227   7.202   4.429
  100PMPE   C34 7769   5.065   7.213   4.572
  100PMPE   H4X 7770   5.100   7.318   4.577
  100PMPE   H4Y 7771   5.125   7.157   4.644
  100PMPE   C35 7772   4.915   7.216   4.618
  100PMPE   H5X 7773   4.852   7.244   4.528
  100PMPE   H5Y 7774   4.899   7.291   4.693
  100PMPE   C36 7775   4.837   7.127   4.728
  100PMPE   H6X 7776   4.814   7.091   4.634
  100PMPE   H6Y 7777   4.747   7.063   4.706
  100PMPE   C37 7778   4.889   7.049   4.855
  100PMPE   H7X 7779   4.924   7.126   4.922
  100PMPE   H7Y 7780   4.992   7.028   4.842
  100PMPE   C38 7781   4.815   6.911   4.899
  100PMPE   H8X 7782   4.813   6.821   4.830
  100PMPE   H8Y 7783   4.707   6.922   4.903
  100PMPE   C39 7784   4.879   6.822   5.007
  100PMPE   H9X 7785   4.988   6.841   5.018
  100PMPE   H9Y 7786   4.863   6.713   4.994
  100PMPE  C310 7787   4.881   6.871   5.132
  100PMPE  H10X 7788   4.779   6.829   5.149
  100PMPE  H10Y 7789   4.894   6.979   5.099
  100PMPE  C311 7790   4.974   6.821   5.235
  100PMPE  H11X 7791   4.969   6.714   5.218
  100PMPE  H11Y 7792   4.918   6.850   5.327
  100PMPE  C312 7793   5.117   6.880   5.235
  100PMPE  H12X 7794   5.188   6.838   5.167
  100PMPE  H12Y 7795   5.160   6.856   5.334
  100PMPE  C313 7796   5.140   7.024   5.186
  100PMPE  H13X 7797   5.115   7.048   5.082
  100PMPE  H13Y 7798   5.238   7.064   5.220
  100PMPE  C314 7799   5.047   7.102   5.254
  100PMPE  H14X 7800   4.950   7.052   5.245
  100PMPE  H14Y 7801   5.036   7.210   5.226
  100PMPE  C315 7802   5.089   7.079   5.387
  100PMPE  H15X 7803   5.135   7.168   5.426
  100PMPE  H15Y 7804   5.081   6.987   5.451
  100PMPE  C316 7805   4.981   7.134   5.423
  100PMPE  H16X 7806   4.883   7.114   5.387
  100PMPE  H16Y 7807   4.978   7.248   5.395
  100PMPE  H16Z 7808   4.963   7.099   5.529
  101PMPE     N 7809   7.310   3.706   3.571
  101PMPE   HN1 7810   7.242   3.675   3.498
  101PMPE   HN2 7811   7.382   3.764   3.526
  101PMPE   HN3 7812   7.353   3.622   3.614
  101PMPE   C12 7813   7.232   3.786   3.673
  101PMPE  H12A 7814   7.193   3.876   3.621
  101PMPE  H12B 7815   7.299   3.815   3.756
  101PMPE   C11 7816   7.109   3.712   3.728
  101PMPE  H11A 7817   7.054   3.786   3.791
  101PMPE  H11B 7818   7.137   3.630   3.799
  101PMPE     P 7819   6.926   3.741   3.536
  101PMPE   O13 7820   6.855   3.651   3.442
  101PMPE   O14 7821   6.987   3.866   3.488
  101PMPE   O11 7822   6.827   3.773   3.648
  101PMPE   O12 7823   7.033   3.658   3.620
  101PMPE    C1 7824   6.779   3.658   3.720
  101PMPE    HA 7825   6.853   3.579   3.746
  101PMPE    HB 7826   6.682   3.621   3.676
  101PMPE    C2 7827   6.749   3.706   3.857
  101PMPE    HS 7828   6.651   3.748   3.846
  101PMPE   O21 7829   6.869   3.776   3.914
  101PMPE   C21 7830   6.866   3.913   3.928
  101PMPE   O22 7831   6.779   3.982   3.897
  101PMPE   C22 7832   6.952   4.003   4.005
  101PMPE   H2R 7833   6.973   4.095   3.941
  101PMPE   H2S 7834   7.043   3.951   4.027
  101PMPE    C3 7835   6.700   3.588   3.942
  101PMPE    HX 7836   6.612   3.539   3.891
  101PMPE    HY 7837   6.635   3.598   4.023
  101PMPE   O31 7838   6.802   3.513   3.996
  101PMPE   C31 7839   6.874   3.546   4.101
  101PMPE   O32 7840   6.890   3.648   4.165
  101PMPE   C32 7841   6.941   3.421   4.130
  101PMPE   H2X 7842   7.034   3.438   4.072
  101PMPE   H2Y 7843   6.878   3.337   4.092
  101PMPE   C23 7844   6.864   4.057   4.125
  101PMPE   H3R 7845   6.832   3.969   4.184
  101PMPE   H3S 7846   6.765   4.107   4.106
  101PMPE   C24 7847   6.953   4.150   4.202
  101PMPE   H4R 7848   6.995   4.222   4.127
  101PMPE   H4S 7849   7.030   4.084   4.245
  101PMPE   C25 7850   6.896   4.234   4.314
  101PMPE   H5R 7851   6.806   4.283   4.285
  101PMPE   H5S 7852   6.965   4.318   4.336
  101PMPE   C26 7853   6.869   4.156   4.439
  101PMPE   H6R 7854   6.962   4.137   4.494
  101PMPE   H6S 7855   6.807   4.064   4.419
  101PMPE   C27 7856   6.784   4.234   4.529
  101PMPE   H7R 7857   6.686   4.215   4.479
  101PMPE   H7S 7858   6.798   4.345   4.531
  101PMPE   C28 7859   6.773   4.177   4.669
  101PMPE   H8R 7860   6.677   4.135   4.682
  101PMPE   H8S 7861   6.723   4.247   4.733
  101PMPE   C29 7862   6.897   4.146   4.749
  101PMPE   H9R 7863   6.988   4.204   4.729
  101PMPE  C217 7864   6.938   4.003   4.762
  101PMPE  H17R 7865   7.041   3.997   4.737
  101PMPE  H17S 7866   6.874   3.959   4.693
  101PMPE  C210 7867   6.888   4.083   4.885
  101PMPE  H10R 7868   6.972   4.099   4.952
  101PMPE  C211 7869   6.753   4.047   4.955
  101PMPE  H11R 7870   6.765   3.948   4.997
  101PMPE  H11S 7871   6.672   4.038   4.885
  101PMPE  C212 7872   6.702   4.145   5.062
  101PMPE  H12R 7873   6.672   4.239   5.013
  101PMPE  H12S 7874   6.786   4.154   5.136
  101PMPE  C213 7875   6.583   4.122   5.151
  101PMPE  H13R 7876   6.482   4.100   5.121
  101PMPE  H13S 7877   6.563   4.202   5.223
  101PMPE  C214 7878   6.600   3.994   5.208
  101PMPE  H14R 7879   6.610   3.919   5.131
  101PMPE  H14S 7880   6.510   3.981   5.273
  101PMPE  C215 7881   6.715   3.977   5.287
  101PMPE  H15R 7882   6.816   3.966   5.243
  101PMPE  H15S 7883   6.702   3.877   5.331
  101PMPE  C216 7884   6.706   4.087   5.387
  101PMPE  H16R 7885   6.633   4.072   5.469
  101PMPE  H16S 7886   6.809   4.068   5.411
  101PMPE  H16T 7887   6.715   4.192   5.361
  101PMPE   C33 7888   6.966   3.412   4.279
  101PMPE   H3X 7889   6.975   3.303   4.298
  101PMPE   H3Y 7890   6.880   3.449   4.340
  101PMPE   C34 7891   7.096   3.484   4.318
  101PMPE   H4X 7892   7.082   3.593   4.329
  101PMPE   H4Y 7893   7.179   3.462   4.248
  101PMPE   C35 7894   7.141   3.439   4.453
  101PMPE   H5X 7895   7.238   3.479   4.488
  101PMPE   H5Y 7896   7.161   3.331   4.440
  101PMPE   C36 7897   7.034   3.471   4.556
  101PMPE   H6X 7898   7.090   3.477   4.652
  101PMPE   H6Y 7899   6.952   3.395   4.559
  101PMPE   C37 7900   6.984   3.609   4.581
  101PMPE   H7X 7901   6.933   3.598   4.681
  101PMPE   H7Y 7902   6.912   3.630   4.501
  101PMPE   C38 7903   7.098   3.710   4.593
  101PMPE   H8X 7904   7.044   3.806   4.602
  101PMPE   H8Y 7905   7.159   3.709   4.500
  101PMPE   C39 7906   7.195   3.693   4.713
  101PMPE   H9X 7907   7.252   3.598   4.706
  101PMPE   H9Y 7908   7.131   3.688   4.804
  101PMPE  C310 7909   7.296   3.806   4.739
  101PMPE  H10X 7910   7.242   3.901   4.760
  101PMPE  H10Y 7911   7.360   3.825   4.650
  101PMPE  C311 7912   7.383   3.767   4.861
  101PMPE  H11X 7913   7.472   3.834   4.869
  101PMPE  H11Y 7914   7.422   3.665   4.841
  101PMPE  C312 7915   7.310   3.768   4.997
  101PMPE  H12X 7916   7.380   3.727   5.073
  101PMPE  H12Y 7917   7.223   3.700   4.995
  101PMPE  C313 7918   7.269   3.909   5.043
  101PMPE  H13X 7919   7.175   3.941   4.992
  101PMPE  H13Y 7920   7.348   3.979   5.009
  101PMPE  C314 7921   7.259   3.928   5.196
  101PMPE  H14X 7922   7.230   4.034   5.215
  101PMPE  H14Y 7923   7.361   3.914   5.238
  101PMPE  C315 7924   7.160   3.839   5.274
  101PMPE  H15X 7925   7.176   3.732   5.251
  101PMPE  H15Y 7926   7.057   3.865   5.242
  101PMPE  C316 7927   7.175   3.860   5.425
  101PMPE  H16X 7928   7.277   3.832   5.458
  101PMPE  H16Y 7929   7.108   3.796   5.485
  101PMPE  H16Z 7930   7.157   3.967   5.451
  102PMPE     N 7931   3.823   7.256   3.498
  102PMPE   HN1 7932   3.792   7.279   3.595
  102PMPE   HN2 7933   3.875   7.336   3.457
  102PMPE   HN3 7934   3.741   7.236   3.438
  102PMPE   C12 7935   3.919   7.140   3.505
  102PMPE  H12A 7936   3.989   7.159   3.588
  102PMPE  H12B 7937   3.970   7.136   3.408
  102PMPE   C11 7938   3.856   7.004   3.534
  102PMPE  H11A 7939   3.935   6.934   3.573
  102PMPE  H11B 7940   3.823   6.964   3.435
  102PMPE     P 7941   3.639   6.906   3.624
  102PMPE   O13 7942   3.675   6.820   3.510
  102PMPE   O14 7943   3.507   6.972   3.626
  102PMPE   O11 7944   3.669   6.840   3.764
  102PMPE   O12 7945   3.750   7.019   3.629
  102PMPE    C1 7946   3.679   6.906   3.889
  102PMPE    HA 7947   3.616   6.853   3.964
  102PMPE    HB 7948   3.638   7.009   3.881
  102PMPE    C2 7949   3.825   6.908   3.947
  102PMPE    HS 7950   3.891   6.954   3.871
  102PMPE   O21 7951   3.867   6.775   3.985
  102PMPE   C21 7952   3.956   6.705   3.919
  102PMPE   O22 7953   4.017   6.738   3.819
  102PMPE   C22 7954   3.981   6.575   4.004
  102PMPE   H2R 7955   4.041   6.596   4.088
  102PMPE   H2S 7956   4.030   6.492   3.948
  102PMPE    C3 7957   3.811   6.999   4.075
  102PMPE    HX 7958   3.714   6.976   4.120
  102PMPE    HY 7959   3.807   7.105   4.042
  102PMPE   O31 7960   3.898   6.976   4.186
  102PMPE   C31 7961   3.983   7.073   4.199
  102PMPE   O32 7962   3.994   7.172   4.132
  102PMPE   C32 7963   4.077   7.034   4.297
  102PMPE   H2X 7964   4.094   6.929   4.280
  102PMPE   H2Y 7965   4.050   6.941   4.352
  102PMPE   C23 7966   3.942   6.560   4.157
  102PMPE   H3R 7967   3.940   6.449   4.170
  102PMPE   H3S 7968   3.845   6.611   4.150
  102PMPE   C24 7969   3.972   6.644   4.284
  102PMPE   H4R 7970   3.979   6.747   4.246
  102PMPE   H4S 7971   4.057   6.593   4.332
  102PMPE   C25 7972   3.858   6.647   4.388
  102PMPE   H5R 7973   3.869   6.541   4.420
  102PMPE   H5S 7974   3.759   6.671   4.341
  102PMPE   C26 7975   3.868   6.686   4.532
  102PMPE   H6R 7976   3.903   6.788   4.512
  102PMPE   H6S 7977   3.947   6.620   4.577
  102PMPE   C27 7978   3.733   6.676   4.610
  102PMPE   H7R 7979   3.754   6.677   4.717
  102PMPE   H7S 7980   3.675   6.583   4.613
  102PMPE   C28 7981   3.623   6.770   4.556
  102PMPE   H8R 7982   3.639   6.792   4.448
  102PMPE   H8S 7983   3.632   6.864   4.614
  102PMPE   C29 7984   3.483   6.709   4.566
  102PMPE   H9R 7985   3.454   6.622   4.505
  102PMPE  C217 7986   3.369   6.810   4.567
  102PMPE  H17R 7987   3.280   6.777   4.516
  102PMPE  H17S 7988   3.406   6.912   4.571
  102PMPE  C210 7989   3.402   6.726   4.691
  102PMPE  H10R 7990   3.335   6.641   4.711
  102PMPE  C211 7991   3.441   6.816   4.807
  102PMPE  H11R 7992   3.347   6.828   4.866
  102PMPE  H11S 7993   3.471   6.918   4.774
  102PMPE  C212 7994   3.553   6.758   4.895
  102PMPE  H12R 7995   3.652   6.775   4.849
  102PMPE  H12S 7996   3.537   6.649   4.910
  102PMPE  C213 7997   3.557   6.826   5.031
  102PMPE  H13R 7998   3.465   6.799   5.087
  102PMPE  H13S 7999   3.557   6.933   5.006
  102PMPE  C214 8000   3.681   6.796   5.115
  102PMPE  H14R 8001   3.769   6.855   5.079
  102PMPE  H14S 8002   3.703   6.689   5.100
  102PMPE  C215 8003   3.664   6.821   5.265
  102PMPE  H15R 8004   3.604   6.913   5.284
  102PMPE  H15S 8005   3.764   6.839   5.310
  102PMPE  C216 8006   3.602   6.705   5.340
  102PMPE  H16R 8007   3.649   6.608   5.317
  102PMPE  H16S 8008   3.608   6.723   5.449
  102PMPE  H16T 8009   3.496   6.693   5.317
  102PMPE   C33 8010   4.201   7.131   4.303
  102PMPE   H3X 8011   4.252   7.180   4.223
  102PMPE   H3Y 8012   4.310   7.099   4.301
  102PMPE   C34 8013   4.150   7.209   4.418
  102PMPE   H4X 8014   4.062   7.257   4.374
  102PMPE   H4Y 8015   4.229   7.271   4.463
  102PMPE   C35 8016   4.066   7.138   4.526
  102PMPE   H5X 8017   4.147   7.086   4.550
  102PMPE   H5Y 8018   4.008   7.044   4.524
  102PMPE   C36 8019   4.053   7.213   4.654
  102PMPE   H6X 8020   4.003   7.302   4.614
  102PMPE   H6Y 8021   4.151   7.245   4.699
  102PMPE   C37 8022   3.969   7.129   4.749
  102PMPE   H7X 8023   4.019   7.043   4.788
  102PMPE   H7Y 8024   3.895   7.063   4.703
  102PMPE   C38 8025   3.922   7.222   4.857
  102PMPE   H8X 8026   3.855   7.294   4.808
  102PMPE   H8Y 8027   4.010   7.284   4.882
  102PMPE   C39 8028   3.852   7.151   4.973
  102PMPE   H9X 8029   3.921   7.087   5.034
  102PMPE   H9Y 8030   3.781   7.081   4.924
  102PMPE  C310 8031   3.780   7.251   5.067
  102PMPE  H10X 8032   3.681   7.275   5.023
  102PMPE  H10Y 8033   3.841   7.344   5.063
  102PMPE  C311 8034   3.770   7.201   5.213
  102PMPE  H11X 8035   3.873   7.173   5.244
  102PMPE  H11Y 8036   3.714   7.105   5.210
  102PMPE  C312 8037   3.721   7.298   5.325
  102PMPE  H12X 8038   3.617   7.333   5.330
  102PMPE  H12Y 8039   3.770   7.396   5.317
  102PMPE  C313 8040   3.730   7.233   5.464
  102PMPE  H13X 8041   3.834   7.243   5.499
  102PMPE  H13Y 8042   3.697   7.126   5.457
  102PMPE  C314 8043   3.641   7.300   5.568
  102PMPE  H14X 8044   3.542   7.290   5.521
  102PMPE  H14Y 8045   3.652   7.409   5.572
  102PMPE  C315 8046   3.656   7.241   5.712
  102PMPE  H15X 8047   3.597   7.301   5.787
  102PMPE  H15Y 8048   3.761   7.256   5.744
  102PMPE  C316 8049   3.621   7.092   5.730
  102PMPE  H16X 8050   3.677   7.028   5.661
  102PMPE  H16Y 8051   3.516   7.071   5.709
  102PMPE  H16Z 8052   3.628   7.059   5.836
  103PMPE     N 8053   7.273   3.032   3.777
  103PMPE   HN1 8054   7.252   3.133   3.790
  103PMPE   HN2 8055   7.313   2.991   3.864
  103PMPE   HN3 8056   7.343   3.020   3.700
  103PMPE   C12 8057   7.146   2.958   3.745
  103PMPE  H12A 8058   7.072   2.981   3.825
  103PMPE  H12B 8059   7.169   2.850   3.748
  103PMPE   C11 8060   7.095   2.997   3.606
  103PMPE  H11A 8061   7.171   2.970   3.529
  103PMPE  H11B 8062   7.082   3.108   3.601
  103PMPE     P 8063   6.947   2.795   3.513
  103PMPE   O13 8064   7.023   2.788   3.386
  103PMPE   O14 8065   6.802   2.767   3.507
  103PMPE   O11 8066   7.016   2.695   3.617
  103PMPE   O12 8067   6.968   2.936   3.583
  103PMPE    C1 8068   6.942   2.595   3.688
  103PMPE    HA 8069   6.985   2.496   3.662
  103PMPE    HB 8070   6.835   2.591   3.659
  103PMPE    C2 8071   6.949   2.617   3.842
  103PMPE    HS 8072   6.887   2.538   3.892
  103PMPE   O21 8073   6.902   2.751   3.869
  103PMPE   C21 8074   6.802   2.760   3.956
  103PMPE   O22 8075   6.766   2.672   4.032
  103PMPE   C22 8076   6.738   2.900   3.950
  103PMPE   H2R 8077   6.630   2.886   3.971
  103PMPE   H2S 8078   6.746   2.941   3.847
  103PMPE    C3 8079   7.094   2.599   3.894
  103PMPE    HX 8080   7.159   2.655   3.823
  103PMPE    HY 8081   7.124   2.493   3.887
  103PMPE   O31 8082   7.105   2.640   4.032
  103PMPE   C31 8083   7.195   2.733   4.057
  103PMPE   O32 8084   7.270   2.783   3.974
  103PMPE   C32 8085   7.202   2.762   4.208
  103PMPE   H2X 8086   7.251   2.680   4.262
  103PMPE   H2Y 8087   7.105   2.768   4.256
  103PMPE   C23 8088   6.799   3.000   4.052
  103PMPE   H3R 8089   6.735   3.091   4.051
  103PMPE   H3S 8090   6.902   3.029   4.021
  103PMPE   C24 8091   6.808   2.950   4.197
  103PMPE   H4R 8092   6.845   3.033   4.261
  103PMPE   H4S 8093   6.879   2.865   4.207
  103PMPE   C25 8094   6.671   2.908   4.250
  103PMPE   H5R 8095   6.628   2.826   4.188
  103PMPE   H5S 8096   6.606   2.997   4.241
  103PMPE   C26 8097   6.672   2.866   4.396
  103PMPE   H6R 8098   6.568   2.854   4.433
  103PMPE   H6S 8099   6.719   2.947   4.457
  103PMPE   C27 8100   6.747   2.737   4.423
  103PMPE   H7R 8101   6.852   2.739   4.389
  103PMPE   H7S 8102   6.698   2.651   4.372
  103PMPE   C28 8103   6.752   2.722   4.572
  103PMPE   H8R 8104   6.648   2.717   4.611
  103PMPE   H8S 8105   6.810   2.800   4.625
  103PMPE   C29 8106   6.829   2.601   4.592
  103PMPE   H9R 8107   6.938   2.588   4.577
  103PMPE  C217 8108   6.743   2.488   4.553
  103PMPE  H17R 8109   6.813   2.412   4.523
  103PMPE  H17S 8110   6.634   2.483   4.553
  103PMPE  C210 8111   6.783   2.514   4.692
  103PMPE  H10R 8112   6.875   2.457   4.720
  103PMPE  C211 8113   6.697   2.579   4.792
  103PMPE  H11R 8114   6.652   2.503   4.854
  103PMPE  H11S 8115   6.600   2.617   4.767
  103PMPE  C212 8116   6.799   2.664   4.872
  103PMPE  H12R 8117   6.816   2.762   4.826
  103PMPE  H12S 8118   6.873   2.618   4.940
  103PMPE  C213 8119   6.728   2.695   4.987
  103PMPE  H13R 8120   6.690   2.594   5.004
  103PMPE  H13S 8121   6.643   2.741   4.921
  103PMPE  C214 8122   6.759   2.719   5.152
  103PMPE  H14R 8123   6.763   2.832   5.138
  103PMPE  H14S 8124   6.861   2.685   5.158
  103PMPE  C215 8125   6.663   2.657   5.307
  103PMPE  H15R 8126   6.735   2.729   5.354
  103PMPE  H15S 8127   6.690   2.563   5.333
  103PMPE  C216 8128   6.472   2.644   5.367
  103PMPE  H16R 8129   6.401   2.742   5.358
  103PMPE  H16S 8130   6.371   2.651   5.303
  103PMPE  H16T 8131   6.459   2.613   5.463
  103PMPE   C33 8132   7.280   2.891   4.232
  103PMPE   H3X 8133   7.231   2.975   4.180
  103PMPE   H3Y 8134   7.376   2.875   4.181
  103PMPE   C34 8135   7.300   2.921   4.381
  103PMPE   H4X 8136   7.381   2.996   4.387
  103PMPE   H4Y 8137   7.335   2.829   4.433
  103PMPE   C35 8138   7.174   2.979   4.448
  103PMPE   H5X 8139   7.101   2.900   4.476
  103PMPE   H5Y 8140   7.124   3.045   4.373
  103PMPE   C36 8141   7.201   3.062   4.574
  103PMPE   H6X 8142   7.294   3.122   4.560
  103PMPE   H6Y 8143   7.216   2.998   4.664
  103PMPE   C37 8144   7.086   3.156   4.605
  103PMPE   H7X 8145   6.995   3.110   4.648
  103PMPE   H7Y 8146   7.048   3.197   4.509
  103PMPE   C38 8147   7.133   3.262   4.704
  103PMPE   H8X 8148   7.040   3.316   4.733
  103PMPE   H8Y 8149   7.212   3.325   4.655
  103PMPE   C39 8150   7.186   3.222   4.837
  103PMPE   H9X 8151   7.296   3.210   4.822
  103PMPE   H9Y 8152   7.135   3.125   4.853
  103PMPE  C310 8153   7.154   3.316   4.955
  103PMPE  H10X 8154   7.174   3.424   4.932
  103PMPE  H10Y 8155   7.223   3.287   5.036
  103PMPE  C311 8156   7.009   3.305   5.007
  103PMPE  H11X 8157   6.943   3.342   4.926
  103PMPE  H11Y 8158   6.995   3.373   5.094
  103PMPE  C312 8159   6.957   3.163   5.038
  103PMPE  H12X 8160   6.944   3.112   4.941
  103PMPE  H12Y 8161   6.855   3.176   5.083
  103PMPE  C313 8162   7.039   3.068   5.126
  103PMPE  H13X 8163   7.141   3.050   5.087
  103PMPE  H13Y 8164   6.986   2.969   5.128
  103PMPE  C314 8165   7.047   3.109   5.270
  103PMPE  H14X 8166   7.051   3.219   5.286
  103PMPE  H14Y 8167   7.134   3.064   5.326
  103PMPE  C315 8168   6.927   3.050   5.335
  103PMPE  H15X 8169   6.954   2.944   5.359
  103PMPE  H15Y 8170   6.826   3.052   5.292
  103PMPE  C316 8171   6.916   3.134   5.453
  103PMPE  H16X 8172   6.839   3.077   5.506
  103PMPE  H16Y 8173   6.854   3.218   5.460
  103PMPE  H16Z 8174   7.014   3.136   5.505
  104PMPE     N 8175   6.279   1.551   3.770
  104PMPE   HN1 8176   6.224   1.471   3.733
  104PMPE   HN2 8177   6.346   1.518   3.843
  104PMPE   HN3 8178   6.212   1.619   3.812
  104PMPE   C12 8179   6.353   1.621   3.659
  104PMPE  H12A 8180   6.428   1.551   3.617
  104PMPE  H12B 8181   6.406   1.708   3.705
  104PMPE   C11 8182   6.257   1.679   3.553
  104PMPE  H11A 8183   6.195   1.598   3.509
  104PMPE  H11B 8184   6.320   1.723   3.471
  104PMPE     P 8185   6.043   1.835   3.540
  104PMPE   O13 8186   6.040   1.779   3.402
  104PMPE   O14 8187   6.026   1.982   3.556
  104PMPE   O11 8188   5.941   1.754   3.632
  104PMPE   O12 8189   6.177   1.783   3.612
  104PMPE    C1 8190   5.861   1.826   3.726
  104PMPE    HA 8191   5.762   1.777   3.729
  104PMPE    HB 8192   5.837   1.932   3.695
  104PMPE    C2 8193   5.918   1.827   3.872
  104PMPE    HS 8194   5.857   1.905   3.922
  104PMPE   O21 8195   6.058   1.853   3.886
  104PMPE   C21 8196   6.092   1.981   3.899
  104PMPE   O22 8197   6.019   2.077   3.887
  104PMPE   C22 8198   6.241   1.984   3.939
  104PMPE   H2R 8199   6.292   2.042   3.858
  104PMPE   H2S 8200   6.285   1.885   3.953
  104PMPE    C3 8201   5.895   1.692   3.944
  104PMPE    HX 8202   5.963   1.621   3.892
  104PMPE    HY 8203   5.791   1.657   3.929
  104PMPE   O31 8204   5.924   1.702   4.086
  104PMPE   C31 8205   5.976   1.595   4.145
  104PMPE   O32 8206   5.990   1.486   4.093
  104PMPE   C32 8207   6.011   1.626   4.291
  104PMPE   H2X 8208   5.940   1.572   4.357
  104PMPE   H2Y 8209   6.001   1.736   4.308
  104PMPE   C23 8210   6.270   2.057   4.070
  104PMPE   H3R 8211   6.179   2.116   4.086
  104PMPE   H3S 8212   6.363   2.115   4.054
  104PMPE   C24 8213   6.287   1.983   4.200
  104PMPE   H4R 8214   6.364   1.906   4.182
  104PMPE   H4S 8215   6.188   1.939   4.223
  104PMPE   C25 8216   6.334   2.068   4.320
  104PMPE   H5R 8217   6.284   2.166   4.329
  104PMPE   H5S 8218   6.441   2.091   4.312
  104PMPE   C26 8219   6.312   1.985   4.446
  104PMPE   H6R 8220   6.359   1.886   4.434
  104PMPE   H6S 8221   6.202   1.969   4.454
  104PMPE   C27 8222   6.372   2.046   4.573
  104PMPE   H7R 8223   6.479   2.039   4.574
  104PMPE   H7S 8224   6.333   1.991   4.663
  104PMPE   C28 8225   6.338   2.189   4.588
  104PMPE   H8R 8226   6.352   2.261   4.505
  104PMPE   H8S 8227   6.380   2.236   4.679
  104PMPE   C29 8228   6.199   2.166   4.610
  104PMPE   H9R 8229   6.124   2.134   4.533
  104PMPE  C217 8230   6.168   2.303   4.634
  104PMPE  H17R 8231   6.103   2.332   4.553
  104PMPE  H17S 8232   6.215   2.375   4.696
  104PMPE  C210 8233   6.143   2.193   4.739
  104PMPE  H10R 8234   6.056   2.129   4.730
  104PMPE  C211 8235   6.212   2.221   4.878
  104PMPE  H11R 8236   6.149   2.287   4.943
  104PMPE  H11S 8237   6.294   2.291   4.870
  104PMPE  C212 8238   6.241   2.093   4.955
  104PMPE  H12R 8239   6.283   2.019   4.886
  104PMPE  H12S 8240   6.149   2.045   4.983
  104PMPE  C213 8241   6.281   2.096   5.102
  104PMPE  H13R 8242   6.208   2.152   5.165
  104PMPE  H13S 8243   6.379   2.146   5.111
  104PMPE  C214 8244   6.289   1.953   5.159
  104PMPE  H14R 8245   6.302   1.959   5.269
  104PMPE  H14S 8246   6.372   1.901   5.110
  104PMPE  C215 8247   6.180   1.855   5.131
  104PMPE  H15R 8248   6.200   1.755   5.179
  104PMPE  H15S 8249   6.154   1.839   5.025
  104PMPE  C216 8250   6.062   1.905   5.193
  104PMPE  H16R 8251   6.050   2.008   5.229
  104PMPE  H16S 8252   5.981   1.871   5.123
  104PMPE  H16T 8253   6.062   1.849   5.285
  104PMPE   C33 8254   6.154   1.581   4.327
  104PMPE   H3X 8255   6.226   1.631   4.259
  104PMPE   H3Y 8256   6.163   1.471   4.307
  104PMPE   C34 8257   6.189   1.606   4.475
  104PMPE   H4X 8258   6.133   1.535   4.540
  104PMPE   H4Y 8259   6.158   1.709   4.503
  104PMPE   C35 8260   6.340   1.589   4.499
  104PMPE   H5X 8261   6.387   1.648   4.417
  104PMPE   H5Y 8262   6.366   1.482   4.487
  104PMPE   C36 8263   6.405   1.647   4.627
  104PMPE   H6X 8264   6.376   1.753   4.635
  104PMPE   H6Y 8265   6.515   1.641   4.604
  104PMPE   C37 8266   6.384   1.579   4.764
  104PMPE   H7X 8267   6.470   1.612   4.827
  104PMPE   H7Y 8268   6.394   1.469   4.756
  104PMPE   C38 8269   6.255   1.621   4.841
  104PMPE   H8X 8270   6.168   1.619   4.773
  104PMPE   H8Y 8271   6.268   1.728   4.872
  104PMPE   C39 8272   6.226   1.534   4.966
  104PMPE   H9X 8273   6.179   1.441   4.928
  104PMPE   H9Y 8274   6.150   1.576   5.035
  104PMPE  C310 8275   6.356   1.499   5.040
  104PMPE  H10X 8276   6.415   1.592   5.053
  104PMPE  H10Y 8277   6.414   1.431   4.973
  104PMPE  C311 8278   6.347   1.429   5.177
  104PMPE  H11X 8279   6.441   1.373   5.196
  104PMPE  H11Y 8280   6.266   1.361   5.173
  104PMPE  C312 8281   6.290   1.494   5.301
  104PMPE  H12X 8282   6.273   1.413   5.377
  104PMPE  H12Y 8283   6.188   1.535   5.281
  104PMPE  C313 8284   6.386   1.598   5.352
  104PMPE  H13X 8285   6.414   1.660   5.265
  104PMPE  H13Y 8286   6.478   1.549   5.391
  104PMPE  C314 8287   6.323   1.676   5.466
  104PMPE  H14X 8288   6.301   1.606   5.549
  104PMPE  H14Y 8289   6.231   1.728   5.432
  104PMPE  C315 8290   6.415   1.780   5.523
  104PMPE  H15X 8291   6.427   1.851   5.438
  104PMPE  H15Y 8292   6.512   1.739   5.553
  104PMPE  C316 8293   6.360   1.854   5.642
  104PMPE  H16X 8294   6.276   1.909   5.601
  104PMPE  H16Y 8295   6.432   1.925   5.678
  104PMPE  H16Z 8296   6.331   1.807   5.735
  105PMPE     N 8297   0.307   4.639   3.523
  105PMPE   HN1 8298   0.398   4.679   3.491
  105PMPE   HN2 8299   0.245   4.616   3.442
  105PMPE   HN3 8300   0.257   4.707   3.585
  105PMPE   C12 8301   0.342   4.513   3.598
  105PMPE  H12A 8302   0.369   4.436   3.523
  105PMPE  H12B 8303   0.252   4.477   3.650
  105PMPE   C11 8304   0.465   4.537   3.688
  105PMPE  H11A 8305   0.471   4.455   3.763
  105PMPE  H11B 8306   0.454   4.630   3.747
  105PMPE     P 8307   0.665   4.411   3.577
  105PMPE   O13 8308   0.800   4.441   3.526
  105PMPE   O14 8309   0.573   4.328   3.498
  105PMPE   O11 8310   0.679   4.351   3.721
  105PMPE   O12 8311   0.585   4.547   3.608
  105PMPE    C1 8312   0.780   4.412   3.801
  105PMPE    HA 8313   0.759   4.519   3.823
  105PMPE    HB 8314   0.882   4.404   3.755
  105PMPE    C2 8315   0.777   4.337   3.931
  105PMPE    HS 8316   0.830   4.241   3.913
  105PMPE   O21 8317   0.645   4.325   3.982
  105PMPE   C21 8318   0.606   4.219   4.044
  105PMPE   O22 8319   0.663   4.116   4.062
  105PMPE   C22 8320   0.471   4.232   4.102
  105PMPE   H2R 8321   0.424   4.133   4.078
  105PMPE   H2S 8322   0.416   4.310   4.049
  105PMPE    C3 8323   0.853   4.417   4.027
  105PMPE    HX 8324   0.952   4.433   3.977
  105PMPE    HY 8325   0.857   4.346   4.108
  105PMPE   O31 8326   0.774   4.533   4.068
  105PMPE   C31 8327   0.860   4.627   4.101
  105PMPE   O32 8328   0.977   4.615   4.083
  105PMPE   C32 8329   0.799   4.758   4.130
  105PMPE   H2X 8330   0.797   4.802   4.031
  105PMPE   H2Y 8331   0.847   4.846   4.173
  105PMPE   C23 8332   0.487   4.254   4.255
  105PMPE   H3R 8333   0.553   4.177   4.302
  105PMPE   H3S 8334   0.387   4.244   4.302
  105PMPE   C24 8335   0.544   4.393   4.288
  105PMPE   H4R 8336   0.484   4.469   4.234
  105PMPE   H4S 8337   0.648   4.401   4.250
  105PMPE   C25 8338   0.543   4.425   4.439
  105PMPE   H5R 8339   0.648   4.441   4.473
  105PMPE   H5S 8340   0.507   4.337   4.496
  105PMPE   C26 8341   0.456   4.547   4.472
  105PMPE   H6R 8342   0.349   4.521   4.453
  105PMPE   H6S 8343   0.481   4.629   4.400
  105PMPE   C27 8344   0.477   4.610   4.610
  105PMPE   H7R 8345   0.468   4.720   4.601
  105PMPE   H7S 8346   0.579   4.586   4.648
  105PMPE   C28 8347   0.380   4.571   4.719
  105PMPE   H8R 8348   0.275   4.576   4.682
  105PMPE   H8S 8349   0.388   4.645   4.802
  105PMPE   C29 8350   0.423   4.432   4.766
  105PMPE   H9R 8351   0.524   4.394   4.751
  105PMPE  C217 8352   0.318   4.326   4.743
  105PMPE  H17R 8353   0.347   4.221   4.743
  105PMPE  H17S 8354   0.229   4.370   4.703
  105PMPE  C210 8355   0.346   4.382   4.880
  105PMPE  H10R 8356   0.391   4.314   4.954
  105PMPE  C211 8357   0.251   4.486   4.923
  105PMPE  H11R 8358   0.160   4.424   4.913
  105PMPE  H11S 8359   0.189   4.548   4.855
  105PMPE  C212 8360   0.312   4.550   5.062
  105PMPE  H12R 8361   0.249   4.640   5.058
  105PMPE  H12S 8362   0.412   4.581   5.036
  105PMPE  C213 8363   0.323   4.476   5.217
  105PMPE  H13R 8364   0.388   4.542   5.272
  105PMPE  H13S 8365   0.359   4.373   5.201
  105PMPE  C214 8366   0.219   4.472   5.346
  105PMPE  H14R 8367   0.109   4.465   5.339
  105PMPE  H14S 8368   0.186   4.569   5.346
  105PMPE  C215 8369   0.193   4.375   5.457
  105PMPE  H15R 8370   0.288   4.381   5.505
  105PMPE  H15S 8371   0.185   4.266   5.433
  105PMPE  C216 8372   0.064   4.424   5.531
  105PMPE  H16R 8373  -0.037   4.396   5.489
  105PMPE  H16S 8374   0.093   4.383   5.624
  105PMPE  H16T 8375   0.036   4.522   5.564
  105PMPE   C33 8376   0.691   4.740   4.229
  105PMPE   H3X 8377   0.677   4.641   4.276
  105PMPE   H3Y 8378   0.603   4.779   4.172
  105PMPE   C34 8379   0.713   4.824   4.352
  105PMPE   H4X 8380   0.606   4.833   4.386
  105PMPE   H4Y 8381   0.752   4.917   4.312
  105PMPE   C35 8382   0.827   4.840   4.456
  105PMPE   H5X 8383   0.826   4.932   4.521
  105PMPE   H5Y 8384   0.922   4.871   4.413
  105PMPE   C36 8385   0.799   4.749   4.568
  105PMPE   H6X 8386   0.818   4.654   4.521
  105PMPE   H6Y 8387   0.691   4.751   4.593
  105PMPE   C37 8388   0.879   4.782   4.694
  105PMPE   H7X 8389   0.847   4.872   4.748
  105PMPE   H7Y 8390   0.985   4.799   4.664
  105PMPE   C38 8391   0.878   4.658   4.779
  105PMPE   H8X 8392   0.980   4.642   4.815
  105PMPE   H8Y 8393   0.851   4.582   4.706
  105PMPE   C39 8394   0.774   4.640   4.889
  105PMPE   H9X 8395   0.767   4.530   4.911
  105PMPE   H9Y 8396   0.675   4.670   4.849
  105PMPE  C310 8397   0.817   4.715   5.014
  105PMPE  H10X 8398   0.846   4.817   4.978
  105PMPE  H10Y 8399   0.903   4.677   5.071
  105PMPE  C311 8400   0.711   4.716   5.120
  105PMPE  H11X 8401   0.630   4.728   5.051
  105PMPE  H11Y 8402   0.723   4.794   5.198
  105PMPE  C312 8403   0.623   4.602   5.158
  105PMPE  H12X 8404   0.599   4.535   5.074
  105PMPE  H12Y 8405   0.527   4.650   5.196
  105PMPE  C313 8406   0.699   4.533   5.261
  105PMPE  H13X 8407   0.717   4.621   5.325
  105PMPE  H13Y 8408   0.795   4.498   5.222
  105PMPE  C314 8409   0.616   4.421   5.316
  105PMPE  H14X 8410   0.558   4.363   5.243
  105PMPE  H14Y 8411   0.533   4.477   5.348
  105PMPE  C315 8412   0.672   4.340   5.431
  105PMPE  H15X 8413   0.696   4.390   5.527
  105PMPE  H15Y 8414   0.774   4.324   5.401
  105PMPE  C316 8415   0.584   4.222   5.467
  105PMPE  H16X 8416   0.567   4.154   5.382
  105PMPE  H16Y 8417   0.484   4.258   5.501
  105PMPE  H16Z 8418   0.633   4.165   5.549
  106PMPE     N 8419   7.005   4.379   3.416
  106PMPE   HN1 8420   6.936   4.338   3.348
  106PMPE   HN2 8421   7.099   4.336   3.404
  106PMPE   HN3 8422   6.979   4.361   3.515
  106PMPE   C12 8423   7.029   4.526   3.395
  106PMPE  H12A 8424   6.937   4.572   3.357
  106PMPE  H12B 8425   7.105   4.537   3.315
  106PMPE   C11 8426   7.071   4.598   3.524
  106PMPE  H11A 8427   6.992   4.593   3.603
  106PMPE  H11B 8428   7.079   4.704   3.493
  106PMPE     P 8429   7.275   4.653   3.676
  106PMPE   O13 8430   7.204   4.782   3.683
  106PMPE   O14 8431   7.419   4.651   3.638
  106PMPE   O11 8432   7.255   4.582   3.815
  106PMPE   O12 8433   7.195   4.551   3.577
  106PMPE    C1 8434   7.354   4.558   3.916
  106PMPE    HA 8435   7.457   4.569   3.879
  106PMPE    HB 8436   7.338   4.455   3.957
  106PMPE    C2 8437   7.348   4.645   4.043
  106PMPE    HS 8438   7.400   4.591   4.126
  106PMPE   O21 8439   7.214   4.659   4.080
  106PMPE   C21 8440   7.204   4.703   4.199
  106PMPE   O22 8441   7.267   4.672   4.299
  106PMPE   C22 8442   7.090   4.802   4.185
  106PMPE   H2R 8443   7.039   4.779   4.090
  106PMPE   H2S 8444   7.097   4.905   4.214
  106PMPE    C3 8445   7.413   4.783   4.025
  106PMPE    HX 8446   7.348   4.853   3.967
  106PMPE    HY 8447   7.505   4.764   3.967
  106PMPE   O31 8448   7.454   4.835   4.151
  106PMPE   C31 8449   7.429   4.958   4.178
  106PMPE   O32 8450   7.364   5.039   4.115
  106PMPE   C32 8451   7.500   4.981   4.308
  106PMPE   H2X 8452   7.589   5.028   4.269
  106PMPE   H2Y 8453   7.539   4.890   4.356
  106PMPE   C23 8454   7.007   4.799   4.303
  106PMPE   H3R 8455   7.079   4.761   4.385
  106PMPE   H3S 8456   7.010   4.678   4.309
  106PMPE   C24 8457   6.814   4.871   4.336
  106PMPE   H4R 8458   6.792   4.920   4.249
  106PMPE   H4S 8459   6.774   4.940   4.399
  106PMPE   C25 8460   6.673   4.762   4.465
  106PMPE   H5R 8461   6.605   4.687   4.421
  106PMPE   H5S 8462   6.628   4.839   4.495
  106PMPE   C26 8463   6.706   4.627   4.593
  106PMPE   H6R 8464   6.784   4.547   4.560
  106PMPE   H6S 8465   6.640   4.550   4.616
  106PMPE   C27 8466   6.782   4.677   4.725
  106PMPE   H7R 8467   6.746   4.777   4.733
  106PMPE   H7S 8468   6.888   4.693   4.712
  106PMPE   C28 8469   6.822   4.618   4.854
  106PMPE   H8R 8470   6.731   4.571   4.889
  106PMPE   H8S 8471   6.851   4.704   4.917
  106PMPE   C29 8472   6.939   4.526   4.835
  106PMPE   H9R 8473   7.016   4.543   4.756
  106PMPE  C217 8474   6.863   4.415   4.776
  106PMPE  H17R 8475   6.916   4.381   4.689
  106PMPE  H17S 8476   6.755   4.416   4.783
  106PMPE  C210 8477   6.929   4.400   4.910
  106PMPE  H10R 8478   7.016   4.333   4.914
  106PMPE  C211 8479   6.838   4.408   5.030
  106PMPE  H11R 8480   6.843   4.313   5.076
  106PMPE  H11S 8481   6.731   4.433   5.009
  106PMPE  C212 8482   6.884   4.479   5.153
  106PMPE  H12R 8483   6.940   4.562   5.108
  106PMPE  H12S 8484   6.961   4.423   5.210
  106PMPE  C213 8485   6.754   4.494   5.236
  106PMPE  H13R 8486   6.720   4.394   5.268
  106PMPE  H13S 8487   6.674   4.549   5.181
  106PMPE  C214 8488   6.761   4.559   5.371
  106PMPE  H14R 8489   6.844   4.515   5.425
  106PMPE  H14S 8490   6.683   4.547   5.444
  106PMPE  C215 8491   6.741   4.702   5.358
  106PMPE  H15R 8492   6.753   4.752   5.459
  106PMPE  H15S 8493   6.666   4.754   5.292
  106PMPE  C216 8494   6.795   4.760   5.264
  106PMPE  H16R 8495   6.866   4.793   5.315
  106PMPE  H16S 8496   6.876   4.687   5.243
  106PMPE  H16T 8497   6.822   4.868   5.300
  106PMPE   C33 8498   7.424   5.065   4.407
  106PMPE   H3X 8499   7.389   5.163   4.364
  106PMPE   H3Y 8500   7.482   5.091   4.500
  106PMPE   C34 8501   7.316   4.979   4.454
  106PMPE   H4X 8502   7.343   4.900   4.528
  106PMPE   H4Y 8503   7.255   4.938   4.370
  106PMPE   C35 8504   7.228   5.068   4.522
  106PMPE   H5X 8505   7.142   5.012   4.516
  106PMPE   H5Y 8506   7.183   5.143   4.454
  106PMPE   C36 8507   7.265   5.100   4.665
  106PMPE   H6X 8508   7.177   5.155   4.692
  106PMPE   H6Y 8509   7.349   5.166   4.663
  106PMPE   C37 8510   7.305   5.009   4.781
  106PMPE   H7X 8511   7.277   5.054   4.879
  106PMPE   H7Y 8512   7.409   4.981   4.765
  106PMPE   C38 8513   7.238   4.880   4.796
  106PMPE   H8X 8514   7.235   4.822   4.706
  106PMPE   H8Y 8515   7.150   4.927   4.803
  106PMPE   C39 8516   7.227   4.811   4.926
  106PMPE   H9X 8517   7.152   4.729   4.913
  106PMPE   H9Y 8518   7.202   4.879   5.013
  106PMPE  C310 8519   7.360   4.763   4.949
  106PMPE  H10X 8520   7.402   4.848   5.007
  106PMPE  H10Y 8521   7.400   4.755   4.845
  106PMPE  C311 8522   7.370   4.630   5.015
  106PMPE  H11X 8523   7.478   4.614   5.026
  106PMPE  H11Y 8524   7.322   4.550   4.954
  106PMPE  C312 8525   7.310   4.628   5.152
  106PMPE  H12X 8526   7.212   4.673   5.135
  106PMPE  H12Y 8527   7.368   4.693   5.221
  106PMPE  C313 8528   7.281   4.490   5.207
  106PMPE  H13X 8529   7.371   4.426   5.198
  106PMPE  H13Y 8530   7.195   4.441   5.154
  106PMPE  C314 8531   7.247   4.496   5.352
  106PMPE  H14X 8532   7.197   4.398   5.371
  106PMPE  H14Y 8533   7.172   4.569   5.381
  106PMPE  C315 8534   7.372   4.536   5.433
  106PMPE  H15X 8535   7.436   4.612   5.388
  106PMPE  H15Y 8536   7.433   4.442   5.441
  106PMPE  C316 8537   7.346   4.599   5.567
  106PMPE  H16X 8538   7.412   4.545   5.640
  106PMPE  H16Y 8539   7.238   4.581   5.584
  106PMPE  H16Z 8540   7.329   4.702   5.598
  107PMPE     N 8541   4.661   7.528   3.566
  107PMPE   HN1 8542   4.755   7.559   3.537
  107PMPE   HN2 8543   4.600   7.502   3.484
  107PMPE   HN3 8544   4.610   7.601   3.619
  107PMPE   C12 8545   4.677   7.410   3.656
  107PMPE  H12A 8546   4.718   7.445   3.753
  107PMPE  H12B 8547   4.748   7.339   3.609
  107PMPE   C11 8548   4.542   7.342   3.678
  107PMPE  H11A 8549   4.476   7.409   3.738
  107PMPE  H11B 8550   4.560   7.250   3.738
  107PMPE     P 8551   4.336   7.245   3.552
  107PMPE   O13 8552   4.336   7.112   3.488
  107PMPE   O14 8553   4.230   7.341   3.514
  107PMPE   O11 8554   4.319   7.222   3.703
  107PMPE   O12 8555   4.481   7.311   3.552
  107PMPE    C1 8556   4.194   7.176   3.753
  107PMPE    HA 8557   4.167   7.076   3.708
  107PMPE    HB 8558   4.113   7.249   3.741
  107PMPE    C2 8559   4.206   7.165   3.903
  107PMPE    HS 8560   4.107   7.185   3.948
  107PMPE   O21 8561   4.321   7.238   3.956
  107PMPE   C21 8562   4.290   7.319   4.051
  107PMPE   O22 8563   4.178   7.342   4.089
  107PMPE   C22 8564   4.416   7.368   4.120
  107PMPE   H2R 8565   4.468   7.431   4.047
  107PMPE   H2S 8566   4.478   7.279   4.145
  107PMPE    C3 8567   4.232   7.026   3.927
  107PMPE    HX 8568   4.315   7.030   3.856
  107PMPE    HY 8569   4.171   6.945   3.874
  107PMPE   O31 8570   4.297   7.014   4.061
  107PMPE   C31 8571   4.237   6.921   4.127
  107PMPE   O32 8572   4.128   6.882   4.080
  107PMPE   C32 8573   4.307   6.875   4.288
  107PMPE   H2X 8574   4.413   6.881   4.272
  107PMPE   H2Y 8575   4.263   6.778   4.315
  107PMPE   C23 8576   4.384   7.448   4.248
  107PMPE   H3R 8577   4.313   7.394   4.313
  107PMPE   H3S 8578   4.332   7.541   4.219
  107PMPE   C24 8579   4.507   7.489   4.331
  107PMPE   H4R 8580   4.467   7.542   4.420
  107PMPE   H4S 8581   4.569   7.562   4.274
  107PMPE   C25 8582   4.596   7.373   4.378
  107PMPE   H5R 8583   4.674   7.415   4.445
  107PMPE   H5S 8584   4.648   7.327   4.291
  107PMPE   C26 8585   4.512   7.268   4.453
  107PMPE   H6R 8586   4.467   7.200   4.378
  107PMPE   H6S 8587   4.431   7.319   4.510
  107PMPE   C27 8588   4.581   7.182   4.556
  107PMPE   H7R 8589   4.670   7.139   4.505
  107PMPE   H7S 8590   4.521   7.095   4.585
  107PMPE   C28 8591   4.617   7.258   4.685
  107PMPE   H8R 8592   4.706   7.318   4.659
  107PMPE   H8S 8593   4.630   7.186   4.770
  107PMPE   C29 8594   4.528   7.344   4.757
  107PMPE   H9R 8595   4.428   7.307   4.771
  107PMPE  C217 8596   4.557   7.489   4.728
  107PMPE  H17R 8597   4.460   7.527   4.706
  107PMPE  H17S 8598   4.649   7.506   4.673
  107PMPE  C210 8599   4.584   7.431   4.867
  107PMPE  H10R 8600   4.515   7.471   4.943
  107PMPE  C211 8601   4.730   7.432   4.905
  107PMPE  H11R 8602   4.765   7.538   4.908
  107PMPE  H11S 8603   4.793   7.374   4.835
  107PMPE  C212 8604   4.752   7.367   5.040
  107PMPE  H12R 8605   4.719   7.434   5.120
  107PMPE  H12S 8606   4.859   7.341   5.060
  107PMPE  C213 8607   4.690   7.231   5.050
  107PMPE  H13R 8608   4.733   7.167   4.972
  107PMPE  H13S 8609   4.581   7.234   5.037
  107PMPE  C214 8610   4.739   7.179   5.183
  107PMPE  H14R 8611   4.715   7.246   5.265
  107PMPE  H14S 8612   4.845   7.175   5.159
  107PMPE  C215 8613   4.701   7.043   5.220
  107PMPE  H15R 8614   4.744   6.987   5.307
  107PMPE  H15S 8615   4.706   6.994   5.119
  107PMPE  C216 8616   4.568   7.030   5.232
  107PMPE  H16R 8617   4.544   6.922   5.259
  107PMPE  H16S 8618   4.512   7.107   5.286
  107PMPE  H16T 8619   4.536   7.050   5.125
  107PMPE   C33 8620   4.292   6.934   4.444
  107PMPE   H3X 8621   4.185   6.929   4.467
  107PMPE   H3Y 8622   4.336   7.036   4.465
  107PMPE   C34 8623   4.319   6.891   4.583
  107PMPE   H4X 8624   4.425   6.868   4.567
  107PMPE   H4Y 8625   4.242   6.812   4.603
  107PMPE   C35 8626   4.296   7.011   4.678
  107PMPE   H5X 8627   4.187   7.010   4.701
  107PMPE   H5Y 8628   4.323   7.118   4.652
  107PMPE   C36 8629   4.312   6.979   4.811
  107PMPE   H6X 8630   4.422   6.991   4.819
  107PMPE   H6Y 8631   4.275   6.874   4.813
  107PMPE   C37 8632   4.223   7.057   4.909
  107PMPE   H7X 8633   4.212   6.984   4.985
  107PMPE   H7Y 8634   4.119   7.039   4.926
  107PMPE   C38 8635   4.272   7.194   4.949
  107PMPE   H8X 8636   4.266   7.262   4.863
  107PMPE   H8Y 8637   4.379   7.184   4.977
  107PMPE   C39 8638   4.194   7.256   5.065
  107PMPE   H9X 8639   4.183   7.189   5.151
  107PMPE   H9Y 8640   4.090   7.282   5.044
  107PMPE  C310 8641   4.269   7.377   5.111
  107PMPE  H10X 8642   4.268   7.460   5.035
  107PMPE  H10Y 8643   4.372   7.353   5.140
  107PMPE  C311 8644   4.210   7.427   5.235
  107PMPE  H11X 8645   4.189   7.363   5.323
  107PMPE  H11Y 8646   4.111   7.447   5.195
  107PMPE  C312 8647   4.297   7.545   5.265
  107PMPE  H12X 8648   4.247   7.569   5.354
  107PMPE  H12Y 8649   4.299   7.622   5.186
  107PMPE  C313 8650   4.428   7.551   5.331
  107PMPE  H13X 8651   4.448   7.662   5.350
  107PMPE  H13Y 8652   4.500   7.503   5.266
  107PMPE  C314 8653   4.445   7.490   5.461
  107PMPE  H14X 8654   4.444   7.378   5.466
  107PMPE  H14Y 8655   4.377   7.534   5.539
  107PMPE  C315 8656   4.568   7.548   5.501
  107PMPE  H15X 8657   4.570   7.656   5.499
  107PMPE  H15Y 8658   4.659   7.495   5.464
  107PMPE  C316 8659   4.555   7.537   5.638
  107PMPE  H16X 8660   4.494   7.586   5.715
  107PMPE  H16Y 8661   4.655   7.577   5.657
  107PMPE  H16Z 8662   4.538   7.426   5.645
  108PMPE     N 8663   0.583   5.115   3.334
  108PMPE   HN1 8664   0.637   5.037   3.291
  108PMPE   HN2 8665   0.504   5.075   3.388
  108PMPE   HN3 8666   0.547   5.180   3.260
  108PMPE   C12 8667   0.678   5.186   3.425
  108PMPE  H12A 8668   0.770   5.194   3.367
  108PMPE  H12B 8669   0.694   5.123   3.515
  108PMPE   C11 8670   0.631   5.327   3.465
  108PMPE  H11A 8671   0.531   5.320   3.514
  108PMPE  H11B 8672   0.620   5.389   3.373
  108PMPE     P 8673   0.730   5.377   3.707
  108PMPE   O13 8674   0.868   5.395   3.757
  108PMPE   O14 8675   0.666   5.247   3.736
  108PMPE   O11 8676   0.637   5.499   3.748
  108PMPE   O12 8677   0.730   5.389   3.549
  108PMPE    C1 8678   0.495   5.490   3.762
  108PMPE    HA 8679   0.450   5.399   3.716
  108PMPE    HB 8680   0.449   5.580   3.714
  108PMPE    C2 8681   0.455   5.493   3.909
  108PMPE    HS 8682   0.516   5.572   3.960
  108PMPE   O21 8683   0.472   5.361   3.965
  108PMPE   C21 8684   0.522   5.359   4.087
  108PMPE   O22 8685   0.535   5.454   4.162
  108PMPE   C22 8686   0.552   5.217   4.129
  108PMPE   H2R 8687   0.627   5.173   4.060
  108PMPE   H2S 8688   0.459   5.157   4.122
  108PMPE    C3 8689   0.312   5.542   3.926
  108PMPE    HX 8690   0.242   5.460   3.890
  108PMPE    HY 8691   0.290   5.629   3.863
  108PMPE   O31 8692   0.313   5.590   4.062
  108PMPE   C31 8693   0.238   5.512   4.129
  108PMPE   O32 8694   0.147   5.453   4.071
  108PMPE   C32 8695   0.279   5.520   4.282
  108PMPE   H2X 8696   0.205   5.588   4.330
  108PMPE   H2Y 8697   0.369   5.581   4.286
  108PMPE   C23 8698   0.600   5.216   4.274
  108PMPE   H3R 8699   0.542   5.272   4.349
  108PMPE   H3S 8700   0.708   5.247   4.281
  108PMPE   C24 8701   0.593   5.077   4.321
  108PMPE   H4R 8702   0.654   5.039   4.236
  108PMPE   H4S 8703   0.500   5.017   4.313
  108PMPE   C25 8704   0.649   5.068   4.464
  108PMPE   H5R 8705   0.746   5.115   4.485
  108PMPE   H5S 8706   0.649   4.967   4.502
  108PMPE   C26 8707   0.559   5.057   4.579
  108PMPE   H6R 8708   0.472   4.987   4.559
  108PMPE   H6S 8709   0.540   5.163   4.558
  108PMPE   C27 8710   0.626   5.021   4.715
  108PMPE   H7R 8711   0.696   5.100   4.749
  108PMPE   H7S 8712   0.667   4.920   4.717
  108PMPE   C28 8713   0.522   5.010   4.821
  108PMPE   H8R 8714   0.447   4.927   4.809
  108PMPE   H8S 8715   0.488   5.100   4.774
  108PMPE   C29 8716   0.543   5.058   4.962
  108PMPE   H9R 8717   0.626   5.125   4.990
  108PMPE  C217 8718   0.563   4.931   5.030
  108PMPE  H17R 8719   0.644   4.940   5.100
  108PMPE  H17S 8720   0.539   4.850   4.960
  108PMPE  C210 8721   0.453   5.016   5.074
  108PMPE  H10R 8722   0.477   5.052   5.176
  108PMPE  C211 8723   0.320   4.951   5.053
  108PMPE  H11R 8724   0.321   4.852   5.002
  108PMPE  H11S 8725   0.258   5.017   4.990
  108PMPE  C212 8726   0.268   4.960   5.195
  108PMPE  H12R 8727   0.174   5.014   5.196
  108PMPE  H12S 8728   0.302   5.045   5.254
  108PMPE  C213 8729   0.278   4.832   5.275
  108PMPE  H13R 8730   0.383   4.819   5.306
  108PMPE  H13S 8731   0.263   4.744   5.213
  108PMPE  C214 8732   0.177   4.840   5.396
  108PMPE  H14R 8733   0.080   4.884   5.399
  108PMPE  H14S 8734   0.241   4.912   5.436
  108PMPE  C215 8735   0.144   4.747   5.505
  108PMPE  H15R 8736   0.134   4.644   5.491
  108PMPE  H15S 8737   0.076   4.756   5.588
  108PMPE  C216 8738   0.268   4.734   5.534
  108PMPE  H16R 8739   0.313   4.686   5.445
  108PMPE  H16S 8740   0.335   4.820   5.548
  108PMPE  H16T 8741   0.267   4.666   5.619
  108PMPE   C33 8742   0.287   5.393   4.375
  108PMPE   H3X 8743   0.360   5.320   4.340
  108PMPE   H3Y 8744   0.199   5.326   4.388
  108PMPE   C34 8745   0.318   5.445   4.515
  108PMPE   H4X 8746   0.360   5.367   4.573
  108PMPE   H4Y 8747   0.236   5.489   4.574
  108PMPE   C35 8748   0.433   5.538   4.534
  108PMPE   H5X 8749   0.396   5.634   4.493
  108PMPE   H5Y 8750   0.516   5.494   4.475
  108PMPE   C36 8751   0.473   5.541   4.682
  108PMPE   H6X 8752   0.387   5.576   4.743
  108PMPE   H6Y 8753   0.553   5.616   4.691
  108PMPE   C37 8754   0.529   5.407   4.734
  108PMPE   H7X 8755   0.588   5.357   4.655
  108PMPE   H7Y 8756   0.447   5.339   4.758
  108PMPE   C38 8757   0.613   5.418   4.860
  108PMPE   H8X 8758   0.693   5.493   4.850
  108PMPE   H8Y 8759   0.658   5.318   4.883
  108PMPE   C39 8760   0.530   5.450   4.981
  108PMPE   H9X 8761   0.480   5.353   4.999
  108PMPE   H9Y 8762   0.453   5.530   4.966
  108PMPE  C310 8763   0.611   5.447   5.108
  108PMPE  H10X 8764   0.655   5.545   5.135
  108PMPE  H10Y 8765   0.675   5.358   5.113
  108PMPE  C311 8766   0.514   5.416   5.211
  108PMPE  H11X 8767   0.446   5.331   5.187
  108PMPE  H11Y 8768   0.478   5.521   5.208
  108PMPE  C312 8769   0.537   5.394   5.354
  108PMPE  H12X 8770   0.629   5.335   5.349
  108PMPE  H12Y 8771   0.447   5.336   5.387
  108PMPE  C313 8772   0.526   5.517   5.444
  108PMPE  H13X 8773   0.436   5.578   5.451
  108PMPE  H13Y 8774   0.590   5.568   5.375
  108PMPE  C314 8775   0.569   5.497   5.589
  108PMPE  H14X 8776   0.675   5.503   5.584
  108PMPE  H14Y 8777   0.535   5.402   5.622
  108PMPE  C315 8778   0.560   5.588   5.713
  108PMPE  H15X 8779   0.496   5.676   5.718
  108PMPE  H15Y 8780   0.612   5.661   5.659
  108PMPE  C316 8781   0.609   5.525   5.854
  108PMPE  H16X 8782   0.564   5.428   5.873
  108PMPE  H16Y 8783   0.599   5.590   5.939
  108PMPE  H16Z 8784   0.710   5.497   5.880
  109PMPE     N 8785   0.447   3.646   3.304
  109PMPE   HN1 8786   0.521   3.665   3.375
  109PMPE   HN2 8787   0.489   3.597   3.222
  109PMPE   HN3 8788   0.407   3.738   3.276
  109PMPE   C12 8789   0.344   3.559   3.371
  109PMPE  H12A 8790   0.361   3.455   3.337
  109PMPE  H12B 8791   0.243   3.594   3.339
  109PMPE   C11 8792   0.347   3.569   3.524
  109PMPE  H11A 8793   0.288   3.486   3.569
  109PMPE  H11B 8794   0.301   3.666   3.553
  109PMPE     P 8795   0.518   3.513   3.714
  109PMPE   O13 8796   0.498   3.367   3.715
  109PMPE   O14 8797   0.452   3.597   3.816
  109PMPE   O11 8798   0.672   3.546   3.706
  109PMPE   O12 8799   0.481   3.568   3.568
  109PMPE    C1 8800   0.738   3.532   3.580
  109PMPE    HA 8801   0.721   3.622   3.517
  109PMPE    HB 8802   0.702   3.440   3.526
  109PMPE    C2 8803   0.891   3.516   3.596
  109PMPE    HS 8804   0.936   3.488   3.498
  109PMPE   O21 8805   0.918   3.417   3.695
  109PMPE   C21 8806   0.880   3.298   3.658
  109PMPE   O22 8807   0.866   3.263   3.540
  109PMPE   C22 8808   0.857   3.215   3.783
  109PMPE   H2R 8809   0.947   3.221   3.850
  109PMPE   H2S 8810   0.843   3.110   3.751
  109PMPE    C3 8811   0.957   3.647   3.640
  109PMPE    HX 8812   0.919   3.732   3.579
  109PMPE    HY 8813   1.061   3.640   3.615
  109PMPE   O31 8814   0.939   3.669   3.781
  109PMPE   C31 8815   1.019   3.600   3.868
  109PMPE   O32 8816   1.121   3.544   3.837
  109PMPE   C32 8817   0.995   3.642   4.012
  109PMPE   H2X 8818   1.002   3.748   3.985
  109PMPE   H2Y 8819   1.085   3.648   4.074
  109PMPE   C23 8820   0.778   3.258   3.895
  109PMPE   H3R 8821   0.680   3.263   3.843
  109PMPE   H3S 8822   0.823   3.355   3.926
  109PMPE   C24 8823   0.798   3.156   4.007
  109PMPE   H4R 8824   0.895   3.102   4.016
  109PMPE   H4S 8825   0.737   3.074   3.984
  109PMPE   C25 8826   0.736   3.197   4.135
  109PMPE   H5R 8827   0.805   3.271   4.177
  109PMPE   H5S 8828   0.723   3.104   4.197
  109PMPE   C26 8829   0.599   3.260   4.118
  109PMPE   H6R 8830   0.523   3.180   4.119
  109PMPE   H6S 8831   0.588   3.320   4.025
  109PMPE   C27 8832   0.561   3.349   4.232
  109PMPE   H7R 8833   0.462   3.395   4.206
  109PMPE   H7S 8834   0.637   3.427   4.234
  109PMPE   C28 8835   0.566   3.279   4.367
  109PMPE   H8R 8836   0.595   3.354   4.444
  109PMPE   H8S 8837   0.635   3.193   4.369
  109PMPE   C29 8838   0.434   3.225   4.401
  109PMPE   H9R 8839   0.389   3.146   4.337
  109PMPE  C217 8840   0.340   3.336   4.445
  109PMPE  H17R 8841   0.273   3.316   4.373
  109PMPE  H17S 8842   0.374   3.437   4.451
  109PMPE  C210 8843   0.380   3.226   4.540
  109PMPE  H10R 8844   0.317   3.138   4.554
  109PMPE  C211 8845   0.459   3.273   4.657
  109PMPE  H11R 8846   0.469   3.384   4.651
  109PMPE  H11S 8847   0.557   3.221   4.649
  109PMPE  C212 8848   0.390   3.230   4.787
  109PMPE  H12R 8849   0.382   3.119   4.780
  109PMPE  H12S 8850   0.292   3.281   4.796
  109PMPE  C213 8851   0.471   3.255   4.913
  109PMPE  H13R 8852   0.508   3.358   4.898
  109PMPE  H13S 8853   0.551   3.177   4.923
  109PMPE  C214 8854   0.409   3.277   5.047
  109PMPE  H14R 8855   0.361   3.377   5.043
  109PMPE  H14S 8856   0.492   3.284   5.121
  109PMPE  C215 8857   0.325   3.161   5.092
  109PMPE  H15R 8858   0.394   3.074   5.103
  109PMPE  H15S 8859   0.252   3.136   5.013
  109PMPE  C216 8860   0.252   3.193   5.220
  109PMPE  H16R 8861   0.184   3.107   5.241
  109PMPE  H16S 8862   0.319   3.209   5.306
  109PMPE  H16T 8863   0.191   3.285   5.205
  109PMPE   C33 8864   0.870   3.569   4.081
  109PMPE   H3X 8865   0.907   3.466   4.094
  109PMPE   H3Y 8866   0.788   3.577   4.004
  109PMPE   C34 8867   0.783   3.608   4.210
  109PMPE   H4X 8868   0.676   3.624   4.191
  109PMPE   H4Y 8869   0.775   3.707   4.241
  109PMPE   C35 8870   0.837   3.598   4.350
  109PMPE   H5X 8871   0.948   3.617   4.345
  109PMPE   H5Y 8872   0.806   3.493   4.363
  109PMPE   C36 8873   0.778   3.683   4.467
  109PMPE   H6X 8874   0.831   3.765   4.512
  109PMPE   H6Y 8875   0.828   3.685   4.562
  109PMPE   C37 8876   0.635   3.693   4.490
  109PMPE   H7X 8877   0.594   3.601   4.444
  109PMPE   H7Y 8878   0.600   3.786   4.442
  109PMPE   C38 8879   0.614   3.712   4.638
  109PMPE   H8X 8880   0.683   3.781   4.691
  109PMPE   H8Y 8881   0.637   3.623   4.686
  109PMPE   C39 8882   0.469   3.708   4.671
  109PMPE   H9X 8883   0.425   3.616   4.626
  109PMPE   H9Y 8884   0.434   3.800   4.622
  109PMPE  C310 8885   0.443   3.703   4.821
  109PMPE  H10X 8886   0.465   3.604   4.868
  109PMPE  H10Y 8887   0.335   3.723   4.832
  109PMPE  C311 8888   0.522   3.810   4.894
  109PMPE  H11X 8889   0.517   3.906   4.839
  109PMPE  H11Y 8890   0.629   3.777   4.899
  109PMPE  C312 8891   0.459   3.831   5.030
  109PMPE  H12X 8892   0.457   3.733   5.084
  109PMPE  H12Y 8893   0.359   3.875   5.022
  109PMPE  C313 8894   0.535   3.929   5.110
  109PMPE  H13X 8895   0.493   3.950   5.211
  109PMPE  H13Y 8896   0.553   4.027   5.062
  109PMPE  C314 8897   0.663   3.862   5.130
  109PMPE  H14X 8898   0.688   3.937   5.201
  109PMPE  H14Y 8899   0.742   3.861   5.051
  109PMPE  C315 8900   0.664   3.757   5.235
  109PMPE  H15X 8901   0.765   3.729   5.206
  109PMPE  H15Y 8902   0.628   3.658   5.215
  109PMPE  C316 8903   0.629   3.812   5.378
  109PMPE  H16X 8904   0.706   3.877   5.420
  109PMPE  H16Y 8905   0.619   3.732   5.453
  109PMPE  H16Z 8906   0.533   3.860   5.395
  110PMPE     N 8907   2.085   6.808   3.420
  110PMPE   HN1 8908   2.067   6.889   3.356
  110PMPE   HN2 8909   2.031   6.725   3.388
  110PMPE   HN3 8910   2.057   6.837   3.516
  110PMPE   C12 8911   2.229   6.764   3.424
  110PMPE  H12A 8912   2.261   6.744   3.319
  110PMPE  H12B 8913   2.231   6.668   3.479
  110PMPE   C11 8914   2.322   6.867   3.491
  110PMPE  H11A 8915   2.322   6.958   3.427
  110PMPE  H11B 8916   2.427   6.826   3.491
  110PMPE     P 8917   2.332   7.040   3.684
  110PMPE   O13 8918   2.423   7.104   3.589
  110PMPE   O14 8919   2.373   7.021   3.824
  110PMPE   O11 8920   2.196   7.118   3.675
  110PMPE   O12 8921   2.280   6.900   3.623
  110PMPE    C1 8922   2.076   7.059   3.722
  110PMPE    HA 8923   2.092   6.957   3.767
  110PMPE    HB 8924   2.003   7.049   3.639
  110PMPE    C2 8925   2.015   7.145   3.832
  110PMPE    HS 8926   2.006   7.252   3.801
  110PMPE   O21 8927   2.093   7.125   3.952
  110PMPE   C21 8928   2.061   7.201   4.053
  110PMPE   O22 8929   1.978   7.291   4.048
  110PMPE   C22 8930   2.138   7.152   4.178
  110PMPE   H2R 8931   2.239   7.192   4.187
  110PMPE   H2S 8932   2.148   7.044   4.173
  110PMPE    C3 8933   1.875   7.094   3.854
  110PMPE    HX 8934   1.810   7.100   3.764
  110PMPE    HY 8935   1.832   7.148   3.938
  110PMPE   O31 8936   1.886   6.959   3.883
  110PMPE   C31 8937   1.904   6.925   4.010
  110PMPE   O32 8938   1.860   6.968   4.111
  110PMPE   C32 8939   1.945   6.794   4.011
  110PMPE   H2X 8940   1.886   6.766   3.921
  110PMPE   H2Y 8941   1.910   6.758   4.113
  110PMPE   C23 8942   2.074   7.186   4.311
  110PMPE   H3R 8943   2.000   7.111   4.315
  110PMPE   H3S 8944   2.025   7.282   4.302
  110PMPE   C24 8945   2.137   7.136   4.443
  110PMPE   H4R 8946   2.244   7.152   4.423
  110PMPE   H4S 8947   2.106   7.032   4.458
  110PMPE   C25 8948   2.096   7.206   4.572
  110PMPE   H5R 8949   2.132   7.190   4.674
  110PMPE   H5S 8950   2.022   7.153   4.630
  110PMPE   C26 8951   2.078   7.349   4.535
  110PMPE   H6R 8952   2.036   7.404   4.613
  110PMPE   H6S 8953   2.014   7.406   4.463
  110PMPE   C27 8954   2.209   7.375   4.513
  110PMPE   H7R 8955   2.174   7.484   4.506
  110PMPE   H7S 8956   2.241   7.358   4.410
  110PMPE   C28 8957   2.314   7.310   4.620
  110PMPE   H8R 8958   2.313   7.205   4.646
  110PMPE   H8S 8959   2.272   7.317   4.720
  110PMPE   C29 8960   2.462   7.359   4.618
  110PMPE   H9R 8961   2.489   7.450   4.666
  110PMPE  C217 8962   2.554   7.277   4.538
  110PMPE  H17R 8963   2.599   7.340   4.462
  110PMPE  H17S 8964   2.473   7.215   4.504
  110PMPE  C210 8965   2.588   7.316   4.684
  110PMPE  H10R 8966   2.662   7.401   4.702
  110PMPE  C211 8967   2.540   7.256   4.811
  110PMPE  H11R 8968   2.627   7.196   4.839
  110PMPE  H11S 8969   2.455   7.189   4.789
  110PMPE  C212 8970   2.507   7.347   4.933
  110PMPE  H12R 8971   2.409   7.399   4.936
  110PMPE  H12S 8972   2.584   7.426   4.948
  110PMPE  C213 8973   2.499   7.248   5.048
  110PMPE  H13R 8974   2.582   7.175   5.032
  110PMPE  H13S 8975   2.404   7.191   5.039
  110PMPE  C214 8976   2.519   7.305   5.187
  110PMPE  H14R 8977   2.420   7.314   5.239
  110PMPE  H14S 8978   2.566   7.406   5.179
  110PMPE  C215 8979   2.602   7.207   5.269
  110PMPE  H15R 8980   2.710   7.219   5.243
  110PMPE  H15S 8981   2.571   7.104   5.241
  110PMPE  C216 8982   2.580   7.217   5.418
  110PMPE  H16R 8983   2.616   7.313   5.456
  110PMPE  H16S 8984   2.472   7.213   5.445
  110PMPE  H16T 8985   2.634   7.133   5.466
  110PMPE   C33 8986   2.073   6.735   3.969
  110PMPE   H3X 8987   2.086   6.772   3.866
  110PMPE   H3Y 8988   2.076   6.623   3.963
  110PMPE   C34 8989   2.164   6.780   4.076
  110PMPE   H4X 8990   2.148   6.888   4.079
  110PMPE   H4Y 8991   2.263   6.751   4.038
  110PMPE   C35 8992   2.140   6.726   4.218
  110PMPE   H5X 8993   2.121   6.621   4.201
  110PMPE   H5Y 8994   2.048   6.764   4.269
  110PMPE   C36 8995   2.264   6.754   4.303
  110PMPE   H6X 8996   2.271   6.864   4.310
  110PMPE   H6Y 8997   2.354   6.718   4.248
  110PMPE   C37 8998   2.262   6.688   4.442
  110PMPE   H7X 8999   2.352   6.720   4.499
  110PMPE   H7Y 9000   2.270   6.577   4.429
  110PMPE   C38 9001   2.136   6.724   4.521
  110PMPE   H8X 9002   2.047   6.686   4.468
  110PMPE   H8Y 9003   2.131   6.835   4.531
  110PMPE   C39 9004   2.132   6.667   4.663
  110PMPE   H9X 9005   2.134   6.556   4.655
  110PMPE   H9Y 9006   2.035   6.697   4.710
  110PMPE  C310 9007   2.251   6.716   4.745
  110PMPE  H10X 9008   2.273   6.822   4.722
  110PMPE  H10Y 9009   2.339   6.654   4.714
  110PMPE  C311 9010   2.229   6.699   4.894
  110PMPE  H11X 9011   2.252   6.591   4.905
  110PMPE  H11Y 9012   2.126   6.729   4.923
  110PMPE  C312 9013   2.321   6.771   4.991
  110PMPE  H12X 9014   2.313   6.880   4.973
  110PMPE  H12Y 9015   2.423   6.734   4.965
  110PMPE  C313 9016   2.303   6.738   5.141
  110PMPE  H13X 9017   2.397   6.774   5.190
  110PMPE  H13Y 9018   2.295   6.628   5.156
  110PMPE  C314 9019   2.189   6.801   5.221
  110PMPE  H14X 9020   2.179   6.752   5.321
  110PMPE  H14Y 9021   2.091   6.799   5.171
  110PMPE  C315 9022   2.188   6.950   5.226
  110PMPE  H15X 9023   2.170   6.986   5.121
  110PMPE  H15Y 9024   2.286   6.987   5.261
  110PMPE  C316 9025   2.070   6.993   5.311
  110PMPE  H16X 9026   1.975   6.968   5.259
  110PMPE  H16Y 9027   2.077   7.103   5.325
  110PMPE  H16Z 9028   2.068   6.941   5.410
  111PMPE     N 9029   7.222   2.094   3.738
  111PMPE   HN1 9030   7.271   2.037   3.666
  111PMPE   HN2 9031   7.288   2.131   3.810
  111PMPE   HN3 9032   7.153   2.028   3.781
  111PMPE   C12 9033   7.142   2.201   3.668
  111PMPE  H12A 9034   7.208   2.270   3.613
  111PMPE  H12B 9035   7.086   2.259   3.744
  111PMPE   C11 9036   7.053   2.127   3.570
  111PMPE  H11A 9037   7.105   2.040   3.525
  111PMPE  H11B 9038   7.027   2.193   3.486
  111PMPE     P 9039   6.829   2.003   3.549
  111PMPE   O13 9040   6.854   2.033   3.405
  111PMPE   O14 9041   6.694   2.027   3.602
  111PMPE   O11 9042   6.865   1.851   3.572
  111PMPE   O12 9043   6.935   2.086   3.637
  111PMPE    C1 9044   6.947   1.803   3.676
  111PMPE    HA 9045   7.031   1.872   3.698
  111PMPE    HB 9046   6.996   1.708   3.643
  111PMPE    C2 9047   6.872   1.773   3.809
  111PMPE    HS 9048   6.804   1.687   3.792
  111PMPE   O21 9049   6.797   1.886   3.854
  111PMPE   C21 9050   6.705   1.869   3.947
  111PMPE   O22 9051   6.660   1.764   3.988
  111PMPE   C22 9052   6.664   2.008   3.998
  111PMPE   H2R 9053   6.567   2.001   4.051
  111PMPE   H2S 9054   6.653   2.076   3.911
  111PMPE    C3 9055   6.983   1.745   3.912
  111PMPE    HX 9056   7.044   1.655   3.884
  111PMPE    HY 9057   6.931   1.725   4.004
  111PMPE   O31 9058   7.058   1.866   3.942
  111PMPE   C31 9059   7.162   1.845   4.021
  111PMPE   O32 9060   7.219   1.740   4.040
  111PMPE   C32 9061   7.222   1.976   4.067
  111PMPE   H2X 9062   7.155   2.062   4.049
  111PMPE   H2Y 9063   7.312   1.979   4.002
  111PMPE   C23 9064   6.774   2.066   4.089
  111PMPE   H3R 9065   6.866   2.078   4.027
  111PMPE   H3S 9066   6.797   1.993   4.170
  111PMPE   C24 9067   6.737   2.202   4.149
  111PMPE   H4R 9068   6.674   2.259   4.078
  111PMPE   H4S 9069   6.830   2.261   4.167
  111PMPE   C25 9070   6.660   2.188   4.280
  111PMPE   H5R 9071   6.636   2.083   4.304
  111PMPE   H5S 9072   6.567   2.251   4.277
  111PMPE   C26 9073   6.740   2.238   4.396
  111PMPE   H6R 9074   6.743   2.346   4.366
  111PMPE   H6S 9075   6.845   2.204   4.399
  111PMPE   C27 9076   6.671   2.202   4.529
  111PMPE   H7R 9077   6.650   2.094   4.526
  111PMPE   H7S 9078   6.577   2.262   4.535
  111PMPE   C28 9079   6.749   2.212   4.661
  111PMPE   H8R 9080   6.780   2.304   4.684
  111PMPE   H8S 9081   6.854   2.179   4.654
  111PMPE   C29 9082   6.670   2.188   4.788
  111PMPE   H9R 9083   6.630   2.089   4.804
  111PMPE  C217 9084   6.568   2.298   4.819
  111PMPE  H17R 9085   6.479   2.268   4.868
  111PMPE  H17S 9086   6.563   2.371   4.740
  111PMPE  C210 9087   6.688   2.271   4.913
  111PMPE  H10R 9088   6.646   2.235   5.007
  111PMPE  C211 9089   6.801   2.367   4.955
  111PMPE  H11R 9090   6.769   2.431   5.039
  111PMPE  H11S 9091   6.828   2.438   4.890
  111PMPE  C212 9092   6.947   2.342   4.954
  111PMPE  H12R 9093   7.010   2.435   4.931
  111PMPE  H12S 9094   6.973   2.266   4.878
  111PMPE  C213 9095   6.955   2.314   5.099
  111PMPE  H13R 9096   6.870   2.250   5.132
  111PMPE  H13S 9097   6.939   2.411   5.153
  111PMPE  C214 9098   7.083   2.242   5.112
  111PMPE  H14R 9099   7.158   2.289   5.043
  111PMPE  H14S 9100   7.063   2.138   5.078
  111PMPE  C215 9101   7.128   2.239   5.254
  111PMPE  H15R 9102   7.234   2.202   5.249
  111PMPE  H15S 9103   7.065   2.174   5.317
  111PMPE  C216 9104   7.122   2.373   5.317
  111PMPE  H16R 9105   7.127   2.446   5.233
  111PMPE  H16S 9106   7.035   2.414   5.370
  111PMPE  H16T 9107   7.211   2.371   5.385
  111PMPE   C33 9108   7.269   1.974   4.214
  111PMPE   H3X 9109   7.335   2.060   4.233
  111PMPE   H3Y 9110   7.332   1.883   4.226
  111PMPE   C34 9111   7.157   1.996   4.318
  111PMPE   H4X 9112   7.086   1.920   4.326
  111PMPE   H4Y 9113   7.081   2.068   4.287
  111PMPE   C35 9114   7.204   2.012   4.462
  111PMPE   H5X 9115   7.278   2.094   4.455
  111PMPE   H5Y 9116   7.261   1.924   4.496
  111PMPE   C36 9117   7.090   2.052   4.560
  111PMPE   H6X 9118   7.013   2.107   4.504
  111PMPE   H6Y 9119   7.141   2.108   4.641
  111PMPE   C37 9120   7.019   1.946   4.641
  111PMPE   H7X 9121   7.106   1.895   4.688
  111PMPE   H7Y 9122   6.954   1.883   4.582
  111PMPE   C38 9123   6.890   1.958   4.725
  111PMPE   H8X 9124   6.812   1.995   4.655
  111PMPE   H8Y 9125   6.913   2.022   4.811
  111PMPE   C39 9126   6.808   1.829   4.757
  111PMPE   H9X 9127   6.859   1.769   4.828
  111PMPE   H9Y 9128   6.794   1.761   4.672
  111PMPE  C310 9129   6.693   1.837   4.848
  111PMPE  H10X 9130   6.666   1.732   4.881
  111PMPE  H10Y 9131   6.616   1.886   4.788
  111PMPE  C311 9132   6.727   1.916   4.969
  111PMPE  H11X 9133   6.767   2.018   4.955
  111PMPE  H11Y 9134   6.803   1.876   5.028
  111PMPE  C312 9135   6.629   1.896   5.073
  111PMPE  H12X 9136   6.618   1.790   5.108
  111PMPE  H12Y 9137   6.534   1.934   5.035
  111PMPE  C313 9138   6.684   1.976   5.182
  111PMPE  H13X 9139   6.692   2.084   5.158
  111PMPE  H13Y 9140   6.780   1.940   5.228
  111PMPE  C314 9141   6.591   1.961   5.285
  111PMPE  H14X 9142   6.580   1.852   5.315
  111PMPE  H14Y 9143   6.491   1.999   5.265
  111PMPE  C315 9144   6.665   2.047   5.380
  111PMPE  H15X 9145   6.755   2.012   5.430
  111PMPE  H15Y 9146   6.588   1.993   5.434
  111PMPE  C316 9147   6.673   2.204   5.374
  111PMPE  H16X 9148   6.757   2.229   5.310
  111PMPE  H16Y 9149   6.711   2.254   5.466
  111PMPE  H16Z 9150   6.576   2.257   5.363
  112PMPE     N 9151   3.810   0.650   3.615
  112PMPE   HN1 9152   3.715   0.630   3.577
  112PMPE   HN2 9153   3.841   0.565   3.667
  112PMPE   HN3 9154   3.808   0.730   3.680
  112PMPE   C12 9155   3.905   0.673   3.503
  112PMPE  H12A 9156   3.993   0.730   3.540
  112PMPE  H12B 9157   3.853   0.730   3.422
  112PMPE   C11 9158   3.949   0.537   3.452
  112PMPE  H11A 9159   4.003   0.554   3.360
  112PMPE  H11B 9160   3.870   0.468   3.419
  112PMPE     P 9161   3.995   0.351   3.633
  112PMPE   O13 9162   4.086   0.237   3.608
  112PMPE   O14 9163   3.848   0.340   3.620
  112PMPE   O11 9164   4.025   0.424   3.770
  112PMPE   O12 9165   4.035   0.473   3.541
  112PMPE    C1 9166   4.146   0.501   3.775
  112PMPE    HA 9167   4.143   0.586   3.703
  112PMPE    HB 9168   4.234   0.438   3.751
  112PMPE    C2 9169   4.177   0.564   3.914
  112PMPE    HS 9170   4.283   0.598   3.916
  112PMPE   O21 9171   4.146   0.478   4.025
  112PMPE   C21 9172   4.214   0.368   4.026
  112PMPE   O22 9173   4.317   0.345   3.966
  112PMPE   C22 9174   4.150   0.277   4.130
  112PMPE   H2R 9175   4.044   0.258   4.102
  112PMPE   H2S 9176   4.156   0.325   4.230
  112PMPE    C3 9177   4.092   0.685   3.934
  112PMPE    HX 9178   4.103   0.769   3.863
  112PMPE    HY 9179   4.126   0.722   4.035
  112PMPE   O31 9180   3.961   0.625   3.924
  112PMPE   C31 9181   3.894   0.675   4.019
  112PMPE   O32 9182   3.923   0.790   4.058
  112PMPE   C32 9183   3.764   0.576   4.030
  112PMPE   H2X 9184   3.699   0.561   3.943
  112PMPE   H2Y 9185   3.667   0.610   4.065
  112PMPE   C23 9186   4.216   0.140   4.134
  112PMPE   H3R 9187   4.319   0.170   4.162
  112PMPE   H3S 9188   4.230   0.089   4.038
  112PMPE   C24 9189   4.127   0.046   4.218
  112PMPE   H4R 9190   4.078  -0.031   4.158
  112PMPE   H4S 9191   4.056   0.109   4.280
  112PMPE   C25 9192   4.200  -0.043   4.310
  112PMPE   H5R 9193   4.218   0.046   4.365
  112PMPE   H5S 9194   4.287  -0.094   4.263
  112PMPE   C26 9195   4.139  -0.122   4.419
  112PMPE   H6R 9196   4.214  -0.187   4.473
  112PMPE   H6S 9197   4.099  -0.180   4.336
  112PMPE   C27 9198   4.018  -0.068   4.499
  112PMPE   H7R 9199   3.961  -0.155   4.537
  112PMPE   H7S 9200   3.965   0.006   4.439
  112PMPE   C28 9201   4.023  -0.002   4.632
  112PMPE   H8R 9202   3.939   0.029   4.693
  112PMPE   H8S 9203   4.059   0.100   4.629
  112PMPE   C29 9204   4.078  -0.102   4.716
  112PMPE   H9R 9205   4.162  -0.171   4.681
  112PMPE  C217 9206   4.006  -0.133   4.848
  112PMPE  H17R 9207   4.052  -0.214   4.903
  112PMPE  H17S 9208   3.921  -0.082   4.884
  112PMPE  C210 9209   4.103  -0.029   4.840
  112PMPE  H10R 9210   4.181  -0.094   4.852
  112PMPE  C211 9211   4.083   0.123   4.904
  112PMPE  H11R 9212   3.978   0.138   4.895
  112PMPE  H11S 9213   4.139   0.203   4.850
  112PMPE  C212 9214   4.124   0.183   5.048
  112PMPE  H12R 9215   4.114   0.294   5.051
  112PMPE  H12S 9216   4.233   0.188   5.061
  112PMPE  C213 9217   4.049   0.129   5.175
  112PMPE  H13R 9218   3.940   0.132   5.159
  112PMPE  H13S 9219   4.080   0.192   5.258
  112PMPE  C214 9220   4.070  -0.003   5.248
  112PMPE  H14R 9221   4.125   0.009   5.341
  112PMPE  H14S 9222   4.130  -0.090   5.230
  112PMPE  C215 9223   3.963  -0.084   5.217
  112PMPE  H15R 9224   3.996  -0.187   5.180
  112PMPE  H15S 9225   3.917  -0.075   5.119
  112PMPE  C216 9226   3.909  -0.033   5.352
  112PMPE  H16R 9227   3.979  -0.035   5.441
  112PMPE  H16S 9228   3.804  -0.013   5.343
  112PMPE  H16T 9229   3.864  -0.091   5.430
  112PMPE   C33 9230   3.781   0.450   4.087
  112PMPE   H3X 9231   3.845   0.476   4.174
  112PMPE   H3Y 9232   3.829   0.407   3.996
  112PMPE   C34 9233   3.644   0.391   4.120
  112PMPE   H4X 9234   3.592   0.365   4.024
  112PMPE   H4Y 9235   3.571   0.457   4.173
  112PMPE   C35 9236   3.684   0.267   4.197
  112PMPE   H5X 9237   3.751   0.215   4.125
  112PMPE   H5Y 9238   3.598   0.205   4.225
  112PMPE   C36 9239   3.772   0.292   4.321
  112PMPE   H6X 9240   3.874   0.324   4.291
  112PMPE   H6Y 9241   3.782   0.198   4.378
  112PMPE   C37 9242   3.711   0.396   4.413
  112PMPE   H7X 9243   3.614   0.359   4.452
  112PMPE   H7Y 9244   3.686   0.483   4.349
  112PMPE   C38 9245   3.806   0.448   4.523
  112PMPE   H8X 9246   3.743   0.516   4.584
  112PMPE   H8Y 9247   3.893   0.503   4.482
  112PMPE   C39 9248   3.849   0.366   4.638
  112PMPE   H9X 9249   3.897   0.276   4.595
  112PMPE   H9Y 9250   3.751   0.343   4.680
  112PMPE  C310 9251   3.924   0.442   4.751
  112PMPE  H10X 9252   4.027   0.466   4.716
  112PMPE  H10Y 9253   3.937   0.370   4.834
  112PMPE  C311 9254   3.860   0.571   4.808
  112PMPE  H11X 9255   3.761   0.550   4.855
  112PMPE  H11Y 9256   3.841   0.644   4.727
  112PMPE  C312 9257   3.946   0.644   4.913
  112PMPE  H12X 9258   3.901   0.744   4.934
  112PMPE  H12Y 9259   4.050   0.662   4.875
  112PMPE  C313 9260   3.960   0.571   5.046
  112PMPE  H13X 9261   4.020   0.480   5.032
  112PMPE  H13Y 9262   3.858   0.542   5.081
  112PMPE  C314 9263   4.021   0.663   5.152
  112PMPE  H14X 9264   3.936   0.722   5.193
  112PMPE  H14Y 9265   4.096   0.732   5.109
  112PMPE  C315 9266   4.099   0.594   5.262
  112PMPE  H15X 9267   4.140   0.667   5.336
  112PMPE  H15Y 9268   4.180   0.530   5.220
  112PMPE  C316 9269   4.006   0.509   5.336
  112PMPE  H16X 9270   3.974   0.430   5.263
  112PMPE  H16Y 9271   3.919   0.569   5.371
  112PMPE  H16Z 9272   4.048   0.462   5.426
  113PMPE     N 9273   3.209   7.347   3.355
  113PMPE   HN1 9274   3.247   7.325   3.450
  113PMPE   HN2 9275   3.273   7.309   3.282
  113PMPE   HN3 9276   3.207   7.451   3.344
  113PMPE   C12 9277   3.069   7.293   3.349
  113PMPE  H12A 9278   3.073   7.194   3.300
  113PMPE  H12B 9279   3.008   7.364   3.290
  113PMPE   C11 9280   3.006   7.279   3.489
  113PMPE  H11A 9281   3.039   7.183   3.536
  113PMPE  H11B 9282   2.895   7.273   3.476
  113PMPE     P 9283   2.964   7.417   3.703
  113PMPE   O13 9284   3.055   7.368   3.807
  113PMPE   O14 9285   2.825   7.371   3.693
  113PMPE   O11 9286   2.954   7.576   3.695
  113PMPE   O12 9287   3.042   7.391   3.567
  113PMPE    C1 9288   3.064   7.661   3.682
  113PMPE    HA 9289   3.047   7.725   3.591
  113PMPE    HB 9290   3.143   7.606   3.628
  113PMPE    C2 9291   3.094   7.754   3.825
  113PMPE    HS 9292   3.179   7.808   3.764
  113PMPE   O21 9293   3.114   7.749   3.977
  113PMPE   C21 9294   3.212   7.739   4.103
  113PMPE   O22 9295   3.255   7.846   4.133
  113PMPE   C22 9296   3.251   7.576   4.192
  113PMPE   H2R 9297   3.288   7.485   4.142
  113PMPE   H2S 9298   3.179   7.495   4.222
  113PMPE    C3 9299   3.012   7.845   3.876
  113PMPE    HX 9300   3.025   7.861   3.787
  113PMPE    HY 9301   3.051   7.946   3.911
  113PMPE   O31 9302   2.882   7.788   3.868
  113PMPE   C31 9303   2.835   7.824   3.978
  113PMPE   O32 9304   2.861   7.936   4.026
  113PMPE   C32 9305   2.735   7.709   4.024
  113PMPE   H2X 9306   2.692   7.688   3.924
  113PMPE   H2Y 9307   2.668   7.763   4.089
  113PMPE   C23 9308   3.345   7.588   4.285
  113PMPE   H3R 9309   3.371   7.678   4.241
  113PMPE   H3S 9310   3.431   7.519   4.277
  113PMPE   C24 9311   3.260   7.626   4.396
  113PMPE   H4R 9312   3.196   7.541   4.421
  113PMPE   H4S 9313   3.201   7.716   4.363
  113PMPE   C25 9314   3.360   7.658   4.494
  113PMPE   H5R 9315   3.429   7.723   4.441
  113PMPE   H5S 9316   3.420   7.566   4.511
  113PMPE   C26 9317   3.298   7.718   4.615
  113PMPE   H6R 9318   3.236   7.639   4.661
  113PMPE   H6S 9319   3.234   7.806   4.592
  113PMPE   C27 9320   3.413   7.754   4.704
  113PMPE   H7R 9321   3.464   7.840   4.657
  113PMPE   H7S 9322   3.482   7.667   4.705
  113PMPE   C28 9323   3.370   7.788   4.845
  113PMPE   H8R 9324   3.333   7.697   4.896
  113PMPE   H8S 9325   3.285   7.859   4.838
  113PMPE   C29 9326   3.486   7.849   4.921
  113PMPE   H9R 9327   3.547   7.926   4.869
  113PMPE  C217 9328   3.582   7.739   4.958
  113PMPE  H17R 9329   3.680   7.775   4.955
  113PMPE  H17S 9330   3.544   7.638   4.942
  113PMPE  C210 9331   3.517   7.816   5.066
  113PMPE  H10R 9332   3.576   7.896   5.115
  113PMPE  C211 9333   3.447   7.709   5.150
  113PMPE  H11R 9334   3.504   7.679   5.240
  113PMPE  H11S 9335   3.402   7.629   5.090
  113PMPE  C212 9336   3.330   7.782   5.191
  113PMPE  H12R 9337   3.279   7.812   5.095
  113PMPE  H12S 9338   3.389   7.862   5.243
  113PMPE  C213 9339   3.217   7.738   5.279
  113PMPE  H13R 9340   3.137   7.743   5.208
  113PMPE  H13S 9341   3.147   7.799   5.340
  113PMPE  C214 9342   3.260   7.632   5.363
  113PMPE  H14R 9343   3.344   7.672   5.425
  113PMPE  H14S 9344   3.289   7.550   5.295
  113PMPE  C215 9345   3.147   7.600   5.450
  113PMPE  H15R 9346   3.063   7.554   5.394
  113PMPE  H15S 9347   3.105   7.687   5.506
  113PMPE  C216 9348   3.196   7.499   5.543
  113PMPE  H16R 9349   3.304   7.497   5.561
  113PMPE  H16S 9350   3.155   7.519   5.644
  113PMPE  H16T 9351   3.153   7.402   5.506
  113PMPE   C33 9352   2.744   7.554   4.076
  113PMPE   H3X 9353   2.820   7.513   4.005
  113PMPE   H3Y 9354   2.654   7.497   4.057
  113PMPE   C34 9355   2.786   7.513   4.222
  113PMPE   H4X 9356   2.831   7.604   4.265
  113PMPE   H4Y 9357   2.864   7.434   4.234
  113PMPE   C35 9358   2.723   7.544   4.347
  113PMPE   H5X 9359   2.627   7.512   4.310
  113PMPE   H5Y 9360   2.681   7.638   4.366
  113PMPE   C36 9361   2.810   7.513   4.474
  113PMPE   H6X 9362   2.836   7.408   4.463
  113PMPE   H6Y 9363   2.742   7.527   4.558
  113PMPE   C37 9364   2.936   7.587   4.528
  113PMPE   H7X 9365   2.919   7.696   4.540
  113PMPE   H7Y 9366   3.026   7.580   4.470
  113PMPE   C38 9367   2.968   7.566   4.672
  113PMPE   H8X 9368   2.868   7.549   4.720
  113PMPE   H8Y 9369   3.023   7.655   4.712
  113PMPE   C39 9370   3.030   7.439   4.700
  113PMPE   H9X 9371   3.127   7.453   4.649
  113PMPE   H9Y 9372   2.958   7.371   4.648
  113PMPE  C310 9373   3.031   7.411   4.848
  113PMPE  H10X 9374   2.930   7.389   4.889
  113PMPE  H10Y 9375   3.070   7.501   4.901
  113PMPE  C311 9376   3.125   7.304   4.882
  113PMPE  H11X 9377   3.107   7.225   4.807
  113PMPE  H11Y 9378   3.100   7.268   4.985
  113PMPE  C312 9379   3.263   7.366   4.873
  113PMPE  H12X 9380   3.261   7.475   4.900
  113PMPE  H12Y 9381   3.298   7.357   4.769
  113PMPE  C313 9382   3.355   7.298   4.967
  113PMPE  H13X 9383   3.463   7.312   4.943
  113PMPE  H13Y 9384   3.328   7.190   4.969
  113PMPE  C314 9385   3.340   7.348   5.104
  113PMPE  H14X 9386   3.235   7.360   5.140
  113PMPE  H14Y 9387   3.386   7.448   5.123
  113PMPE  C315 9388   3.424   7.253   5.184
  113PMPE  H15X 9389   3.383   7.303   5.270
  113PMPE  H15Y 9390   3.525   7.282   5.190
  113PMPE  C316 9391   3.433   7.096   5.176
  113PMPE  H16X 9392   3.487   7.070   5.089
  113PMPE  H16Y 9393   3.342   7.036   5.156
  113PMPE  H16Z 9394   3.468   7.051   5.272
  114PMPE     N 9395   6.220   7.291   3.471
  114PMPE   HN1 9396   6.226   7.256   3.569
  114PMPE   HN2 9397   6.309   7.272   3.419
  114PMPE   HN3 9398   6.211   7.394   3.479
  114PMPE   C12 9399   6.106   7.228   3.393
  114PMPE  H12A 9400   6.146   7.138   3.345
  114PMPE  H12B 9401   6.078   7.301   3.314
  114PMPE   C11 9402   5.983   7.185   3.474
  114PMPE  H11A 9403   6.011   7.103   3.545
  114PMPE  H11B 9404   5.904   7.142   3.408
  114PMPE     P 9405   5.862   7.298   3.680
  114PMPE   O13 9406   5.724   7.347   3.675
  114PMPE   O14 9407   5.963   7.359   3.767
  114PMPE   O11 9408   5.861   7.145   3.707
  114PMPE   O12 9409   5.925   7.300   3.534
  114PMPE    C1 9410   5.759   7.097   3.794
  114PMPE    HA 9411   5.716   7.015   3.738
  114PMPE    HB 9412   5.671   7.162   3.814
  114PMPE    C2 9413   5.828   7.069   3.926
  114PMPE    HS 9414   5.761   6.999   3.986
  114PMPE   O21 9415   5.857   7.179   4.005
  114PMPE   C21 9416   5.775   7.230   4.080
  114PMPE   O22 9417   5.657   7.203   4.096
  114PMPE   C22 9418   5.863   7.330   4.153
  114PMPE   H2R 9419   5.906   7.400   4.079
  114PMPE   H2S 9420   5.947   7.278   4.204
  114PMPE    C3 9421   5.965   7.012   3.903
  114PMPE    HX 9422   6.018   6.998   3.807
  114PMPE    HY 9423   5.910   6.924   3.913
  114PMPE   O31 9424   6.041   7.019   4.021
  114PMPE   C31 9425   6.144   7.084   4.056
  114PMPE   O32 9426   6.201   7.165   3.986
  114PMPE   C32 9427   6.198   7.040   4.198
  114PMPE   H2X 9428   6.302   7.006   4.186
  114PMPE   H2Y 9429   6.146   6.960   4.243
  114PMPE   C23 9430   5.774   7.403   4.249
  114PMPE   H3R 9431   5.735   7.332   4.326
  114PMPE   H3S 9432   5.690   7.445   4.189
  114PMPE   C24 9433   5.848   7.514   4.320
  114PMPE   H4R 9434   5.784   7.583   4.376
  114PMPE   H4S 9435   5.890   7.578   4.241
  114PMPE   C25 9436   5.952   7.455   4.413
  114PMPE   H5R 9437   6.027   7.401   4.350
  114PMPE   H5S 9438   5.912   7.390   4.494
  114PMPE   C26 9439   6.030   7.560   4.482
  114PMPE   H6R 9440   5.976   7.619   4.559
  114PMPE   H6S 9441   6.037   7.626   4.393
  114PMPE   C27 9442   6.168   7.508   4.529
  114PMPE   H7R 9443   6.254   7.576   4.538
  114PMPE   H7S 9444   6.214   7.445   4.453
  114PMPE   C28 9445   6.167   7.469   4.674
  114PMPE   H8R 9446   6.099   7.383   4.679
  114PMPE   H8S 9447   6.132   7.548   4.744
  114PMPE   C29 9448   6.308   7.434   4.707
  114PMPE   H9R 9449   6.392   7.502   4.685
  114PMPE  C217 9450   6.329   7.289   4.668
  114PMPE  H17R 9451   6.422   7.274   4.622
  114PMPE  H17S 9452   6.243   7.238   4.632
  114PMPE  C210 9453   6.328   7.332   4.814
  114PMPE  H10R 9454   6.419   7.361   4.865
  114PMPE  C211 9455   6.210   7.288   4.898
  114PMPE  H11R 9456   6.233   7.191   4.947
  114PMPE  H11S 9457   6.123   7.267   4.833
  114PMPE  C212 9458   6.165   7.394   5.000
  114PMPE  H12R 9459   6.080   7.352   5.057
  114PMPE  H12S 9460   6.136   7.488   4.949
  114PMPE  C213 9461   6.263   7.426   5.108
  114PMPE  H13R 9462   6.219   7.492   5.186
  114PMPE  H13S 9463   6.350   7.485   5.067
  114PMPE  C214 9464   6.294   7.298   5.184
  114PMPE  H14R 9465   6.237   7.206   5.166
  114PMPE  H14S 9466   6.312   7.315   5.293
  114PMPE  C215 9467   6.412   7.236   5.129
  114PMPE  H15R 9468   6.461   7.337   5.128
  114PMPE  H15S 9469   6.429   7.232   5.023
  114PMPE  C216 9470   6.452   7.110   5.223
  114PMPE  H16R 9471   6.443   7.128   5.332
  114PMPE  H16S 9472   6.501   7.023   5.177
  114PMPE  H16T 9473   6.555   7.107   5.256
  114PMPE   C33 9474   6.157   7.099   4.337
  114PMPE   H3X 9475   6.166   7.206   4.326
  114PMPE   H3Y 9476   6.234   7.055   4.407
  114PMPE   C34 9477   6.015   7.062   4.394
  114PMPE   H4X 9478   5.986   6.960   4.384
  114PMPE   H4Y 9479   5.935   7.110   4.335
  114PMPE   C35 9480   5.995   7.072   4.547
  114PMPE   H5X 9481   6.034   7.171   4.577
  114PMPE   H5Y 9482   6.052   6.993   4.602
  114PMPE   C36 9483   5.845   7.056   4.583
  114PMPE   H6X 9484   5.810   6.953   4.559
  114PMPE   H6Y 9485   5.789   7.128   4.519
  114PMPE   C37 9486   5.804   7.089   4.727
  114PMPE   H7X 9487   5.693   7.089   4.729
  114PMPE   H7Y 9488   5.837   7.191   4.754
  114PMPE   C38 9489   5.857   6.987   4.828
  114PMPE   H8X 9490   5.897   6.898   4.775
  114PMPE   H8Y 9491   5.771   6.951   4.890
  114PMPE   C39 9492   5.969   7.049   4.912
  114PMPE   H9X 9493   5.940   7.151   4.946
  114PMPE   H9Y 9494   6.058   7.058   4.847
  114PMPE  C310 9495   6.010   6.970   5.035
  114PMPE  H10X 9496   6.099   7.007   5.089
  114PMPE  H10Y 9497   6.043   6.874   4.990
  114PMPE  C311 9498   5.894   6.970   5.135
  114PMPE  H11X 9499   5.900   6.895   5.214
  114PMPE  H11Y 9500   5.795   6.950   5.090
  114PMPE  C312 9501   5.894   7.094   5.219
  114PMPE  H12X 9502   5.990   7.116   5.272
  114PMPE  H12Y 9503   5.814   7.068   5.290
  114PMPE  C313 9504   5.826   7.213   5.161
  114PMPE  H13X 9505   5.745   7.174   5.094
  114PMPE  H13Y 9506   5.896   7.276   5.107
  114PMPE  C314 9507   5.763   7.291   5.272
  114PMPE  H14X 9508   5.693   7.221   5.322
  114PMPE  H14Y 9509   5.704   7.371   5.226
  114PMPE  C315 9510   5.860   7.356   5.374
  114PMPE  H15X 9511   5.911   7.432   5.312
  114PMPE  H15Y 9512   5.930   7.278   5.411
  114PMPE  C316 9513   5.807   7.425   5.500
  114PMPE  H16X 9514   5.759   7.524   5.480
  114PMPE  H16Y 9515   5.873   7.425   5.588
  114PMPE  H16Z 9516   5.728   7.364   5.543
  115PMPE     N 9517   1.017   5.985   3.445
  115PMPE   HN1 9518   1.094   6.027   3.389
  115PMPE   HN2 9519   1.059   5.958   3.537
  115PMPE   HN3 9520   0.976   5.900   3.400
  115PMPE   C12 9521   0.900   6.080   3.463
  115PMPE  H12A 9522   0.844   6.078   3.369
  115PMPE  H12B 9523   0.937   6.183   3.480
  115PMPE   C11 9524   0.811   6.037   3.580
  115PMPE  H11A 9525   0.869   6.059   3.673
  115PMPE  H11B 9526   0.790   5.927   3.574
  115PMPE     P 9527   0.650   6.243   3.645
  115PMPE   O13 9528   0.508   6.273   3.619
  115PMPE   O14 9529   0.753   6.340   3.603
  115PMPE   O11 9530   0.674   6.212   3.798
  115PMPE   O12 9531   0.686   6.103   3.578
  115PMPE    C1 9532   0.614   6.094   3.852
  115PMPE    HA 9533   0.679   6.007   3.831
  115PMPE    HB 9534   0.515   6.074   3.805
  115PMPE    C2 9535   0.596   6.103   4.005
  115PMPE    HS 9536   0.528   6.021   4.040
  115PMPE   O21 9537   0.551   6.233   4.050
  115PMPE   C21 9538   0.422   6.240   4.073
  115PMPE   O22 9539   0.342   6.150   4.059
  115PMPE   C22 9540   0.389   6.374   4.137
  115PMPE   H2R 9541   0.349   6.444   4.061
  115PMPE   H2S 9542   0.477   6.420   4.186
  115PMPE    C3 9543   0.730   6.070   4.074
  115PMPE    HX 9544   0.808   6.138   4.032
  115PMPE    HY 9545   0.757   5.965   4.049
  115PMPE   O31 9546   0.708   6.089   4.216
  115PMPE   C31 9547   0.806   6.050   4.294
  115PMPE   O32 9548   0.911   6.005   4.255
  115PMPE   C32 9549   0.766   6.063   4.440
  115PMPE   H2X 9550   0.688   5.988   4.461
  115PMPE   H2Y 9551   0.725   6.165   4.456
  115PMPE   C23 9552   0.277   6.358   4.240
  115PMPE   H3R 9553   0.182   6.329   4.192
  115PMPE   H3S 9554   0.273   6.464   4.262
  115PMPE   C24 9555   0.303   6.273   4.366
  115PMPE   H4R 9556   0.404   6.295   4.404
  115PMPE   H4S 9557   0.296   6.168   4.330
  115PMPE   C25 9558   0.203   6.283   4.484
  115PMPE   H5R 9559   0.101   6.255   4.449
  115PMPE   H5S 9560   0.188   6.380   4.529
  115PMPE   C26 9561   0.252   6.220   4.616
  115PMPE   H6R 9562   0.276   6.115   4.591
  115PMPE   H6S 9563   0.166   6.227   4.687
  115PMPE   C27 9564   0.378   6.283   4.683
  115PMPE   H7R 9565   0.370   6.391   4.702
  115PMPE   H7S 9566   0.463   6.277   4.613
  115PMPE   C28 9567   0.411   6.228   4.824
  115PMPE   H8R 9568   0.326   6.254   4.890
  115PMPE   H8S 9569   0.498   6.281   4.865
  115PMPE   C29 9570   0.441   6.078   4.829
  115PMPE   H9R 9571   0.507   6.035   4.752
  115PMPE  C217 9572   0.327   5.990   4.875
  115PMPE  H17R 9573   0.326   5.890   4.835
  115PMPE  H17S 9574   0.239   6.047   4.903
  115PMPE  C210 9575   0.449   6.009   4.965
  115PMPE  H10R 9576   0.507   5.916   4.970
  115PMPE  C211 9577   0.407   6.076   5.096
  115PMPE  H11R 9578   0.298   6.062   5.111
  115PMPE  H11S 9579   0.427   6.185   5.085
  115PMPE  C212 9580   0.476   6.028   5.224
  115PMPE  H12R 9581   0.470   5.919   5.246
  115PMPE  H12S 9582   0.426   6.078   5.311
  115PMPE  C213 9583   0.618   6.073   5.230
  115PMPE  H13R 9584   0.632   6.173   5.195
  115PMPE  H13S 9585   0.684   6.037   5.151
  115PMPE  C214 9586   0.666   6.070   5.370
  115PMPE  H14R 9587   0.672   5.979   5.429
  115PMPE  H14S 9588   0.592   6.128   5.430
  115PMPE  C215 9589   0.795   6.138   5.374
  115PMPE  H15R 9590   0.805   6.231   5.315
  115PMPE  H15S 9591   0.893   6.082   5.370
  115PMPE  C216 9592   0.779   6.179   5.509
  115PMPE  H16R 9593   0.783   6.088   5.573
  115PMPE  H16S 9594   0.865   6.249   5.494
  115PMPE  H16T 9595   0.700   6.231   5.562
  115PMPE   C33 9596   0.886   6.035   4.533
  115PMPE   H3X 9597   0.967   6.105   4.510
  115PMPE   H3Y 9598   0.931   5.936   4.513
  115PMPE   C34 9599   0.850   6.045   4.681
  115PMPE   H4X 9600   0.939   6.018   4.743
  115PMPE   H4Y 9601   0.768   5.975   4.707
  115PMPE   C35 9602   0.806   6.186   4.720
  115PMPE   H5X 9603   0.699   6.207   4.704
  115PMPE   H5Y 9604   0.864   6.256   4.657
  115PMPE   C36 9605   0.838   6.210   4.864
  115PMPE   H6X 9606   0.948   6.198   4.865
  115PMPE   H6Y 9607   0.802   6.132   4.935
  115PMPE   C37 9608   0.777   6.340   4.915
  115PMPE   H7X 9609   0.670   6.352   4.898
  115PMPE   H7Y 9610   0.826   6.435   4.878
  115PMPE   C38 9611   0.786   6.338   5.063
  115PMPE   H8X 9612   0.879   6.377   5.074
  115PMPE   H8Y 9613   0.795   6.250   5.126
  115PMPE   C39 9614   0.721   6.452   5.116
  115PMPE   H9X 9615   0.706   6.527   5.036
  115PMPE   H9Y 9616   0.783   6.491   5.199
  115PMPE  C310 9617   0.596   6.415   5.169
  115PMPE  H10X 9618   0.603   6.336   5.247
  115PMPE  H10Y 9619   0.522   6.395   5.088
  115PMPE  C311 9620   0.570   6.524   5.256
  115PMPE  H11X 9621   0.566   6.632   5.223
  115PMPE  H11Y 9622   0.635   6.510   5.340
  115PMPE  C312 9623   0.447   6.481   5.300
  115PMPE  H12X 9624   0.392   6.502   5.203
  115PMPE  H12Y 9625   0.391   6.573   5.264
  115PMPE  C313 9626   0.404   6.353   5.425
  115PMPE  H13X 9627   0.389   6.246   5.408
  115PMPE  H13Y 9628   0.290   6.331   5.449
  115PMPE  C314 9629   0.370   6.370   5.557
  115PMPE  H14X 9630   0.305   6.455   5.586
  115PMPE  H14Y 9631   0.470   6.395   5.513
  115PMPE  C315 9632   0.368   6.255   5.644
  115PMPE  H15X 9633   0.418   6.284   5.739
  115PMPE  H15Y 9634   0.425   6.174   5.594
  115PMPE  C316 9635   0.221   6.230   5.660
  115PMPE  H16X 9636   0.214   6.160   5.743
  115PMPE  H16Y 9637   0.176   6.192   5.565
  115PMPE  H16Z 9638   0.167   6.325   5.685
  116PMPE     N 9639   5.038   0.493   3.626
  116PMPE   HN1 9640   5.008   0.423   3.697
  116PMPE   HN2 9641   4.952   0.538   3.588
  116PMPE   HN3 9642   5.094   0.445   3.551
  116PMPE   C12 9643   5.135   0.595   3.681
  116PMPE  H12A 9644   5.181   0.558   3.775
  116PMPE  H12B 9645   5.077   0.688   3.700
  116PMPE   C11 9646   5.244   0.621   3.577
  116PMPE  H11A 9647   5.321   0.694   3.611
  116PMPE  H11B 9648   5.185   0.671   3.499
  116PMPE     P 9649   5.439   0.441   3.570
  116PMPE   O13 9650   5.551   0.502   3.496
  116PMPE   O14 9651   5.416   0.296   3.568
  116PMPE   O11 9652   5.437   0.491   3.719
  116PMPE   O12 9653   5.300   0.502   3.521
  116PMPE    C1 9654   5.559   0.486   3.791
  116PMPE    HA 9655   5.549   0.563   3.870
  116PMPE    HB 9656   5.648   0.515   3.730
  116PMPE    C2 9657   5.585   0.348   3.856
  116PMPE    HS 9658   5.627   0.281   3.776
  116PMPE   O21 9659   5.467   0.297   3.916
  116PMPE   C21 9660   5.467   0.167   3.923
  116PMPE   O22 9661   5.548   0.088   3.878
  116PMPE   C22 9662   5.344   0.132   3.995
  116PMPE   H2R 9663   5.270   0.102   3.917
  116PMPE   H2S 9664   5.305   0.218   4.053
  116PMPE    C3 9665   5.687   0.355   3.968
  116PMPE    HX 9666   5.771   0.391   3.915
  116PMPE    HY 9667   5.722   0.258   4.002
  116PMPE   O31 9668   5.650   0.446   4.073
  116PMPE   C31 9669   5.647   0.401   4.195
  116PMPE   O32 9670   5.671   0.288   4.233
  116PMPE   C32 9671   5.618   0.520   4.285
  116PMPE   H2X 9672   5.659   0.612   4.238
  116PMPE   H2Y 9673   5.668   0.503   4.382
  116PMPE   C23 9674   5.382   0.023   4.094
  116PMPE   H3R 9675   5.446   0.051   4.178
  116PMPE   H3S 9676   5.416  -0.071   4.044
  116PMPE   C24 9677   5.261  -0.009   4.164
  116PMPE   H4R 9678   5.264  -0.102   4.226
  116PMPE   H4S 9679   5.210  -0.033   4.065
  116PMPE   C25 9680   5.168   0.100   4.220
  116PMPE   H5R 9681   5.077   0.064   4.273
  116PMPE   H5S 9682   5.123   0.162   4.142
  116PMPE   C26 9683   5.215   0.165   4.340
  116PMPE   H6R 9684   5.130   0.237   4.348
  116PMPE   H6S 9685   5.307   0.212   4.305
  116PMPE   C27 9686   5.234   0.060   4.448
  116PMPE   H7R 9687   5.306  -0.020   4.425
  116PMPE   H7S 9688   5.144  -0.008   4.450
  116PMPE   C28 9689   5.267   0.134   4.579
  116PMPE   H8R 9690   5.259   0.067   4.667
  116PMPE   H8S 9691   5.198   0.218   4.604
  116PMPE   C29 9692   5.389   0.209   4.562
  116PMPE   H9R 9693   5.391   0.288   4.486
  116PMPE  C217 9694   5.505   0.118   4.585
  116PMPE  H17R 9695   5.583   0.138   4.515
  116PMPE  H17S 9696   5.469   0.019   4.614
  116PMPE  C210 9697   5.473   0.232   4.682
  116PMPE  H10R 9698   5.533   0.324   4.670
  116PMPE  C211 9699   5.431   0.188   4.824
  116PMPE  H11R 9700   5.453   0.080   4.836
  116PMPE  H11S 9701   5.322   0.205   4.842
  116PMPE  C212 9702   5.514   0.264   4.930
  116PMPE  H12R 9703   5.484   0.370   4.933
  116PMPE  H12S 9704   5.620   0.258   4.893
  116PMPE  C213 9705   5.508   0.203   5.072
  116PMPE  H13R 9706   5.538   0.096   5.063
  116PMPE  H13S 9707   5.404   0.204   5.111
  116PMPE  C214 9708   5.606   0.266   5.174
  116PMPE  H14R 9709   5.706   0.270   5.127
  116PMPE  H14S 9710   5.609   0.199   5.264
  116PMPE  C215 9711   5.578   0.409   5.226
  116PMPE  H15R 9712   5.573   0.478   5.139
  116PMPE  H15S 9713   5.664   0.441   5.290
  116PMPE  C216 9714   5.450   0.418   5.308
  116PMPE  H16R 9715   5.442   0.327   5.371
  116PMPE  H16S 9716   5.448   0.507   5.374
  116PMPE  H16T 9717   5.364   0.420   5.239
  116PMPE   C33 9718   5.467   0.532   4.305
  116PMPE   H3X 9719   5.423   0.430   4.318
  116PMPE   H3Y 9720   5.421   0.575   4.213
  116PMPE   C34 9721   5.430   0.614   4.430
  116PMPE   H4X 9722   5.467   0.718   4.419
  116PMPE   H4Y 9723   5.482   0.568   4.517
  116PMPE   C35 9724   5.279   0.617   4.447
  116PMPE   H5X 9725   5.237   0.516   4.467
  116PMPE   H5Y 9726   5.238   0.647   4.347
  116PMPE   C36 9727   5.221   0.721   4.544
  116PMPE   H6X 9728   5.113   0.700   4.526
  116PMPE   H6Y 9729   5.240   0.824   4.508
  116PMPE   C37 9730   5.250   0.708   4.695
  116PMPE   H7X 9731   5.194   0.786   4.752
  116PMPE   H7Y 9732   5.355   0.730   4.721
  116PMPE   C38 9733   5.211   0.569   4.747
  116PMPE   H8X 9734   5.299   0.502   4.741
  116PMPE   H8Y 9735   5.134   0.527   4.678
  116PMPE   C39 9736   5.148   0.564   4.887
  116PMPE   H9X 9737   5.048   0.605   4.885
  116PMPE   H9Y 9738   5.201   0.630   4.958
  116PMPE  C310 9739   5.138   0.421   4.943
  116PMPE  H10X 9740   5.244   0.396   4.966
  116PMPE  H10Y 9741   5.101   0.347   4.868
  116PMPE  C311 9742   5.056   0.414   5.073
  116PMPE  H11X 9743   4.950   0.439   5.056
  116PMPE  H11Y 9744   5.097   0.494   5.139
  116PMPE  C312 9745   5.069   0.280   5.147
  116PMPE  H12X 9746   5.178   0.262   5.163
  116PMPE  H12Y 9747   5.031   0.196   5.083
  116PMPE  C313 9748   4.997   0.280   5.283
  116PMPE  H13X 9749   4.891   0.301   5.264
  116PMPE  H13Y 9750   5.019   0.367   5.345
  116PMPE  C314 9751   5.023   0.152   5.367
  116PMPE  H14X 9752   5.004   0.056   5.313
  116PMPE  H14Y 9753   4.957   0.150   5.457
  116PMPE  C315 9754   5.166   0.146   5.415
  116PMPE  H15X 9755   5.233   0.137   5.326
  116PMPE  H15Y 9756   5.171   0.055   5.480
  116PMPE  C316 9757   5.216   0.261   5.497
  116PMPE  H16X 9758   5.167   0.258   5.595
  116PMPE  H16Y 9759   5.195   0.357   5.445
  116PMPE  H16Z 9760   5.325   0.253   5.517
  117PMPE     N 9761   5.060   7.685   3.449
  117PMPE   HN1 9762   4.965   7.684   3.406
  117PMPE   HN2 9763   5.120   7.612   3.406
  117PMPE   HN3 9764   5.062   7.665   3.551
  117PMPE   C12 9765   5.122   7.818   3.418
  117PMPE  H12A 9766   5.058   7.899   3.459
  117PMPE  H12B 9767   5.127   7.826   3.307
  117PMPE   C11 9768   5.266   7.831   3.469
  117PMPE  H11A 9769   5.301   7.934   3.443
  117PMPE  H11B 9770   5.330   7.761   3.414
  117PMPE     P 9771   5.339   7.679   3.671
  117PMPE   O13 9772   5.485   7.678   3.664
  117PMPE   O14 9773   5.256   7.572   3.609
  117PMPE   O11 9774   5.294   7.694   3.817
  117PMPE   O12 9775   5.277   7.813   3.609
  117PMPE    C1 9776   5.268   7.819   3.872
  117PMPE    HA 9777   5.201   7.879   3.810
  117PMPE    HB 9778   5.358   7.884   3.883
  117PMPE    C2 9779   5.206   7.782   4.004
  117PMPE    HS 9780   5.221   7.870   4.065
  117PMPE   O21 9781   5.261   7.676   4.078
  117PMPE   C21 9782   5.385   7.693   4.104
  117PMPE   O22 9783   5.456   7.790   4.086
  117PMPE   C22 9784   5.424   7.573   4.183
  117PMPE   H2R 9785   5.492   7.519   4.113
  117PMPE   H2S 9786   5.336   7.510   4.206
  117PMPE    C3 9787   5.062   7.747   3.998
  117PMPE    HX 9788   5.007   7.667   3.947
  117PMPE    HY 9789   5.027   7.820   3.928
  117PMPE   O31 9790   5.022   7.757   4.133
  117PMPE   C31 9791   5.041   7.870   4.196
  117PMPE   O32 9792   5.042   7.980   4.151
  117PMPE   C32 9793   4.966   7.846   4.307
  117PMPE   H2X 9794   4.871   7.795   4.282
  117PMPE   H2Y 9795   4.944   7.952   4.308
  117PMPE   C23 9796   5.492   7.627   4.310
  117PMPE   H3R 9797   5.425   7.696   4.366
  117PMPE   H3S 9798   5.581   7.685   4.274
  117PMPE   C24 9799   5.539   7.516   4.404
  117PMPE   H4R 9800   5.624   7.552   4.466
  117PMPE   H4S 9801   5.564   7.431   4.339
  117PMPE   C25 9802   5.445   7.451   4.502
  117PMPE   H5R 9803   5.486   7.349   4.526
  117PMPE   H5S 9804   5.347   7.438   4.452
  117PMPE   C26 9805   5.432   7.532   4.631
  117PMPE   H6R 9806   5.341   7.497   4.682
  117PMPE   H6S 9807   5.419   7.638   4.603
  117PMPE   C27 9808   5.549   7.516   4.730
  117PMPE   H7R 9809   5.645   7.548   4.684
  117PMPE   H7S 9810   5.557   7.409   4.759
  117PMPE   C28 9811   5.523   7.596   4.859
  117PMPE   H8R 9812   5.582   7.556   4.943
  117PMPE   H8S 9813   5.416   7.579   4.884
  117PMPE   C29 9814   5.548   7.746   4.838
  117PMPE   H9R 9815   5.513   7.790   4.743
  117PMPE  C217 9816   5.692   7.789   4.868
  117PMPE  H17R 9817   5.726   7.868   4.802
  117PMPE  H17S 9818   5.751   7.709   4.907
  117PMPE  C210 9819   5.577   7.838   4.955
  117PMPE  H10R 9820   5.561   7.946   4.942
  117PMPE  C211 9821   5.573   7.783   5.098
  117PMPE  H11R 9822   5.615   7.858   5.168
  117PMPE  H11S 9823   5.638   7.694   5.106
  117PMPE  C212 9824   5.430   7.741   5.136
  117PMPE  H12R 9825   5.427   7.708   5.242
  117PMPE  H12S 9826   5.405   7.651   5.077
  117PMPE  C213 9827   5.318   7.842   5.106
  117PMPE  H13R 9828   5.219   7.800   5.137
  117PMPE  H13S 9829   5.314   7.860   4.997
  117PMPE  C214 9830   5.339   7.976   5.177
  117PMPE  H14R 9831   5.262   8.048   5.142
  117PMPE  H14S 9832   5.438   8.019   5.150
  117PMPE  C215 9833   5.330   7.957   5.328
  117PMPE  H15R 9834   5.288   7.858   5.356
  117PMPE  H15S 9835   5.251   8.023   5.360
  117PMPE  C216 9836   5.457   7.981   5.409
  117PMPE  H16R 9837   5.541   7.924   5.365
  117PMPE  H16S 9838   5.487   8.088   5.416
  117PMPE  H16T 9839   5.438   7.943   5.512
  117PMPE   C33 9840   5.017   7.784   4.426
  117PMPE   H3X 9841   4.965   7.813   4.519
  117PMPE   H3Y 9842   5.121   7.820   4.431
  117PMPE   C34 9843   4.965   7.642   4.399
  117PMPE   H4X 9844   5.044   7.601   4.336
  117PMPE   H4Y 9845   4.870   7.629   4.340
  117PMPE   C35 9846   4.926   7.568   4.524
  117PMPE   H5X 9847   4.928   7.462   4.492
  117PMPE   H5Y 9848   4.821   7.589   4.557
  117PMPE   C36 9849   5.028   7.599   4.632
  117PMPE   H6X 9850   5.009   7.699   4.677
  117PMPE   H6Y 9851   5.129   7.596   4.587
  117PMPE   C37 9852   5.016   7.503   4.747
  117PMPE   H7X 9853   5.034   7.401   4.722
  117PMPE   H7Y 9854   4.911   7.511   4.775
  117PMPE   C38 9855   5.109   7.524   4.864
  117PMPE   H8X 9856   5.097   7.630   4.895
  117PMPE   H8Y 9857   5.214   7.502   4.836
  117PMPE   C39 9858   5.064   7.432   4.975
  117PMPE   H9X 9859   5.066   7.324   4.946
  117PMPE   H9Y 9860   4.961   7.470   4.981
  117PMPE  C310 9861   5.121   7.455   5.112
  117PMPE  H10X 9862   5.056   7.413   5.193
  117PMPE  H10Y 9863   5.128   7.564   5.131
  117PMPE  C311 9864   5.259   7.395   5.124
  117PMPE  H11X 9865   5.329   7.443   5.052
  117PMPE  H11Y 9866   5.263   7.285   5.109
  117PMPE  C312 9867   5.310   7.430   5.260
  117PMPE  H12X 9868   5.244   7.383   5.335
  117PMPE  H12Y 9869   5.302   7.537   5.287
  117PMPE  C313 9870   5.456   7.394   5.259
  117PMPE  H13X 9871   5.519   7.460   5.196
  117PMPE  H13Y 9872   5.472   7.293   5.214
  117PMPE  C314 9873   5.515   7.414   5.395
  117PMPE  H14X 9874   5.609   7.376   5.402
  117PMPE  H14Y 9875   5.503   7.334   5.456
  117PMPE  C315 9876   5.467   7.515   5.494
  117PMPE  H15X 9877   5.356   7.503   5.505
  117PMPE  H15Y 9878   5.496   7.608   5.446
  117PMPE  C316 9879   5.529   7.495   5.632
  117PMPE  H16X 9880   5.513   7.392   5.666
  117PMPE  H16Y 9881   5.480   7.562   5.703
  117PMPE  H16Z 9882   5.636   7.507   5.646
  118PMPE     N 9883   6.667   6.690   3.292
  118PMPE   HN1 9884   6.631   6.604   3.247
  118PMPE   HN2 9885   6.690   6.755   3.214
  118PMPE   HN3 9886   6.753   6.667   3.347
  118PMPE   C12 9887   6.563   6.759   3.377
  118PMPE  H12A 9888   6.472   6.772   3.319
  118PMPE  H12B 9889   6.602   6.860   3.399
  118PMPE   C11 9890   6.527   6.685   3.506
  118PMPE  H11A 9891   6.492   6.582   3.487
  118PMPE  H11B 9892   6.440   6.739   3.551
  118PMPE     P 9893   6.653   6.783   3.714
  118PMPE   O13 9894   6.615   6.918   3.665
  118PMPE   O14 9895   6.783   6.760   3.779
  118PMPE   O11 9896   6.538   6.729   3.806
  118PMPE   O12 9897   6.642   6.683   3.589
  118PMPE    C1 9898   6.544   6.592   3.845
  118PMPE    HA 9899   6.646   6.564   3.885
  118PMPE    HB 9900   6.516   6.526   3.761
  118PMPE    C2 9901   6.455   6.569   3.965
  118PMPE    HS 9902   6.347   6.580   3.938
  118PMPE   O21 9903   6.501   6.677   4.052
  118PMPE   C21 9904   6.444   6.678   4.167
  118PMPE   O22 9905   6.366   6.592   4.201
  118PMPE   C22 9906   6.496   6.793   4.256
  118PMPE   H2R 9907   6.443   6.888   4.241
  118PMPE   H2S 9908   6.603   6.806   4.231
  118PMPE    C3 9909   6.476   6.423   4.015
  118PMPE    HX 9910   6.486   6.353   3.930
  118PMPE    HY 9911   6.393   6.384   4.079
  118PMPE   O31 9912   6.603   6.425   4.076
  118PMPE   C31 9913   6.610   6.413   4.203
  118PMPE   O32 9914   6.525   6.371   4.278
  118PMPE   C32 9915   6.757   6.418   4.229
  118PMPE   H2X 9916   6.815   6.385   4.142
  118PMPE   H2Y 9917   6.780   6.327   4.272
  118PMPE   C23 9918   6.486   6.767   4.405
  118PMPE   H3R 9919   6.475   6.658   4.426
  118PMPE   H3S 9920   6.397   6.818   4.447
  118PMPE   C24 9921   6.587   6.835   4.490
  118PMPE   H4R 9922   6.593   6.943   4.464
  118PMPE   H4S 9923   6.687   6.794   4.475
  118PMPE   C25 9924   6.539   6.830   4.632
  118PMPE   H5R 9925   6.509   6.733   4.670
  118PMPE   H5S 9926   6.451   6.896   4.647
  118PMPE   C26 9927   6.647   6.876   4.716
  118PMPE   H6R 9928   6.700   6.960   4.665
  118PMPE   H6S 9929   6.726   6.802   4.741
  118PMPE   C27 9930   6.582   6.914   4.840
  118PMPE   H7R 9931   6.534   6.836   4.905
  118PMPE   H7S 9932   6.501   6.992   4.835
  118PMPE   C28 9933   6.709   6.942   4.910
  118PMPE   H8R 9934   6.749   6.890   4.996
  118PMPE   H8S 9935   6.631   6.982   4.969
  118PMPE   C29 9936   6.820   7.036   4.863
  118PMPE   H9R 9937   6.828   7.138   4.812
  118PMPE  C217 9938   6.947   6.973   4.845
  118PMPE  H17R 9939   6.972   7.016   4.749
  118PMPE  H17S 9940   6.945   6.871   4.872
  118PMPE  C210 9941   6.919   7.061   4.972
  118PMPE  H10R 9942   6.917   7.168   4.974
  118PMPE  C211 9943   6.974   6.997   5.100
  118PMPE  H11R 9944   7.085   6.999   5.098
  118PMPE  H11S 9945   6.928   6.898   5.106
  118PMPE  C212 9946   6.965   7.063   5.238
  118PMPE  H12R 9947   6.924   7.158   5.244
  118PMPE  H12S 9948   7.038   7.128   5.293
  118PMPE  C213 9949   6.877   6.989   5.319
  118PMPE  H13R 9950   6.784   6.941   5.281
  118PMPE  H13S 9951   6.853   7.072   5.377
  118PMPE  C214 9952   6.975   6.934   5.402
  118PMPE  H14R 9953   7.070   6.993   5.413
  118PMPE  H14S 9954   6.991   6.854   5.330
  118PMPE  C215 9955   6.925   6.919   5.537
  118PMPE  H15R 9956   6.834   6.853   5.545
  118PMPE  H15S 9957   6.920   7.007   5.597
  118PMPE  C216 9958   7.032   6.867   5.609
  118PMPE  H16R 9959   7.107   6.836   5.535
  118PMPE  H16S 9960   7.127   6.891   5.636
  118PMPE  H16T 9961   7.000   6.811   5.693
  118PMPE   C33 9962   6.814   6.523   4.325
  118PMPE   H3X 9963   6.803   6.613   4.262
  118PMPE   H3Y 9964   6.919   6.494   4.346
  118PMPE   C34 9965   6.748   6.576   4.452
  118PMPE   H4X 9966   6.642   6.596   4.446
  118PMPE   H4Y 9967   6.817   6.643   4.511
  118PMPE   C35 9968   6.727   6.493   4.564
  118PMPE   H5X 9969   6.830   6.453   4.551
  118PMPE   H5Y 9970   6.635   6.431   4.536
  118PMPE   C36 9971   6.697   6.548   4.702
  118PMPE   H6X 9972   6.629   6.466   4.706
  118PMPE   H6Y 9973   6.606   6.596   4.727
  118PMPE   C37 9974   6.801   6.546   4.819
  118PMPE   H7X 9975   6.877   6.613   4.779
  118PMPE   H7Y 9976   6.854   6.452   4.844
  118PMPE   C38 9977   6.750   6.602   4.954
  118PMPE   H8X 9978   6.689   6.691   4.932
  118PMPE   H8Y 9979   6.835   6.617   5.024
  118PMPE   C39 9980   6.659   6.525   5.044
  118PMPE   H9X 9981   6.700   6.425   5.069
  118PMPE   H9Y 9982   6.571   6.512   4.980
  118PMPE  C310 9983   6.613   6.607   5.167
  118PMPE  H10X 9984   6.542   6.565   5.241
  118PMPE  H10Y 9985   6.540   6.683   5.138
  118PMPE  C311 9986   6.709   6.593   5.278
  118PMPE  H11X 9987   6.776   6.676   5.255
  118PMPE  H11Y 9988   6.758   6.493   5.265
  118PMPE  C312 9989   6.636   6.598   5.414
  118PMPE  H12X 9990   6.719   6.612   5.484
  118PMPE  H12Y 9991   6.587   6.500   5.436
  118PMPE  C313 9992   6.525   6.706   5.423
  118PMPE  H13X 9993   6.428   6.673   5.377
  118PMPE  H13Y 9994   6.557   6.795   5.363
  118PMPE  C314 9995   6.499   6.750   5.566
  118PMPE  H14X 9996   6.409   6.815   5.574
  118PMPE  H14Y 9997   6.587   6.812   5.586
  118PMPE  C315 9998   6.499   6.641   5.675
  118PMPE  H15X 9999   6.502   6.699   5.771
  118PMPE  H15Y10000   6.591   6.580   5.671
  118PMPE  C31610001   6.379   6.548   5.678
  118PMPE  H16X10002   6.357   6.510   5.780
  118PMPE  H16Y10003   6.381   6.465   5.605
  118PMPE  H16Z10004   6.295   6.602   5.641
  119PMPE     N10005   2.686   0.670   3.554
  119PMPE   HN110006   2.730   0.715   3.470
  119PMPE   HN210007   2.745   0.684   3.638
  119PMPE   HN310008   2.666   0.569   3.535
  119PMPE   C1210009   2.553   0.734   3.581
  119PMPE  H12A10010   2.562   0.840   3.553
  119PMPE  H12B10011   2.529   0.720   3.688
  119PMPE   C1110012   2.439   0.674   3.501
  119PMPE  H11A10013   2.446   0.700   3.393
  119PMPE  H11B10014   2.345   0.721   3.540
  119PMPE     P10015   2.354   0.452   3.616
  119PMPE   O1310016   2.323   0.321   3.556
  119PMPE   O1410017   2.243   0.538   3.664
  119PMPE   O1110018   2.457   0.436   3.734
  119PMPE   O1210019   2.442   0.533   3.513
  119PMPE    C110020   2.566   0.343   3.724
  119PMPE    HA10021   2.646   0.386   3.662
  119PMPE    HB10022   2.532   0.245   3.681
  119PMPE    C210023   2.627   0.307   3.862
  119PMPE    HS10024   2.683   0.211   3.848
  119PMPE   O2110025   2.524   0.302   3.960
  119PMPE   C2110026   2.471   0.186   3.967
  119PMPE   O2210027   2.514   0.084   3.914
  119PMPE   C2210028   2.364   0.202   4.075
  119PMPE   H2R10029   2.269   0.158   4.036
  119PMPE   H2S10030   2.350   0.305   4.111
  119PMPE    C310031   2.728   0.408   3.918
  119PMPE    HX10032   2.820   0.404   3.858
  119PMPE    HY10033   2.752   0.373   4.022
  119PMPE   O3110034   2.671   0.541   3.917
  119PMPE   C3110035   2.729   0.626   3.999
  119PMPE   O3210036   2.835   0.606   4.056
  119PMPE   C3210037   2.648   0.755   4.004
  119PMPE   H2X10038   2.588   0.764   3.910
  119PMPE   H2Y10039   2.719   0.840   4.007
  119PMPE   C2310040   2.409   0.138   4.203
  119PMPE   H3R10041   2.518   0.126   4.226
  119PMPE   H3S10042   2.375   0.050   4.155
  119PMPE   C2410043   2.322   0.147   4.326
  119PMPE   H4R10044   2.217   0.110   4.310
  119PMPE   H4S10045   2.335   0.241   4.380
  119PMPE   C2510046   2.376   0.063   4.431
  119PMPE   H5R10047   2.486   0.056   4.440
  119PMPE   H5S10048   2.322  -0.036   4.412
  119PMPE   C2610049   2.314   0.077   4.564
  119PMPE   H6R10050   2.346  -0.020   4.609
  119PMPE   H6S10051   2.208   0.085   4.535
  119PMPE   C2710052   2.350   0.165   4.680
  119PMPE   H7R10053   2.350   0.255   4.619
  119PMPE   H7S10054   2.449   0.119   4.710
  119PMPE   C2810055   2.256   0.191   4.807
  119PMPE   H8R10056   2.312   0.236   4.888
  119PMPE   H8S10057   2.260   0.114   4.879
  119PMPE   C2910058   2.095   0.195   4.797
  119PMPE   H9R10059   2.025   0.117   4.760
  119PMPE  C21710060   2.059   0.331   4.758
  119PMPE  H17R10061   1.999   0.316   4.669
  119PMPE  H17S10062   2.153   0.384   4.764
  119PMPE  C21010063   2.009   0.270   4.889
  119PMPE  H10R10064   1.904   0.234   4.889
  119PMPE  C21110065   2.085   0.267   5.016
  119PMPE  H11R10066   2.183   0.318   5.004
  119PMPE  H11S10067   2.104   0.165   5.055
  119PMPE  C21210068   2.005   0.345   5.114
  119PMPE  H12R10069   2.085   0.367   5.182
  119PMPE  H12S10070   1.926   0.281   5.158
  119PMPE  C21310071   1.963   0.483   5.068
  119PMPE  H13R10072   1.891   0.529   5.139
  119PMPE  H13S10073   1.910   0.470   4.971
  119PMPE  C21410074   2.081   0.577   5.033
  119PMPE  H14R10075   2.038   0.672   4.994
  119PMPE  H14S10076   2.142   0.531   4.955
  119PMPE  C21510077   2.186   0.613   5.138
  119PMPE  H15R10078   2.264   0.680   5.100
  119PMPE  H15S10079   2.221   0.530   5.205
  119PMPE  C21610080   2.128   0.703   5.228
  119PMPE  H16R10081   2.138   0.813   5.230
  119PMPE  H16S10082   2.025   0.691   5.205
  119PMPE  H16T10083   2.146   0.658   5.330
  119PMPE   C3310084   2.553   0.763   4.127
  119PMPE   H3X10085   2.464   0.699   4.107
  119PMPE   H3Y10086   2.518   0.868   4.132
  119PMPE   C3410087   2.621   0.723   4.260
  119PMPE   H4X10088   2.711   0.787   4.271
  119PMPE   H4Y10089   2.656   0.618   4.255
  119PMPE   C3510090   2.535   0.740   4.388
  119PMPE   H5X10091   2.500   0.845   4.395
  119PMPE   H5Y10092   2.599   0.724   4.478
  119PMPE   C3610093   2.417   0.643   4.399
  119PMPE   H6X10094   2.359   0.649   4.304
  119PMPE   H6Y10095   2.349   0.677   4.481
  119PMPE   C3710096   2.457   0.496   4.427
  119PMPE   H7X10097   2.520   0.461   4.342
  119PMPE   H7Y10098   2.365   0.436   4.424
  119PMPE   C3810099   2.531   0.464   4.561
  119PMPE   H8X10100   2.623   0.524   4.571
  119PMPE   H8Y10101   2.563   0.358   4.558
  119PMPE   C3910102   2.448   0.485   4.689
  119PMPE   H9X10103   2.343   0.449   4.674
  119PMPE   H9Y10104   2.444   0.594   4.708
  119PMPE  C31010105   2.508   0.415   4.813
  119PMPE  H10X10106   2.616   0.439   4.819
  119PMPE  H10Y10107   2.501   0.305   4.805
  119PMPE  C31110108   2.445   0.449   4.948
  119PMPE  H11X10109   2.334   0.438   4.946
  119PMPE  H11Y10110   2.465   0.555   4.973
  119PMPE  C31210111   2.502   0.352   5.053
  119PMPE  H12X10112   2.612   0.367   5.061
  119PMPE  H12Y10113   2.481   0.247   5.021
  119PMPE  C31310114   2.436   0.363   5.188
  119PMPE  H13X10115   2.332   0.324   5.176
  119PMPE  H13Y10116   2.426   0.468   5.211
  119PMPE  C31410117   2.511   0.293   5.302
  119PMPE  H14X10118   2.617   0.323   5.316
  119PMPE  H14Y10119   2.489   0.185   5.298
  119PMPE  C31510120   2.457   0.328   5.433
  119PMPE  H15X10121   2.452   0.246   5.509
  119PMPE  H15Y10122   2.359   0.339   5.397
  119PMPE  C31610123   2.485   0.460   5.491
  119PMPE  H16X10124   2.585   0.495   5.513
  119PMPE  H16Y10125   2.447   0.421   5.588
  119PMPE  H16Z10126   2.422   0.547   5.461
  120PMPE     N10127   8.005   3.268   3.370
  120PMPE   HN110128   8.052   3.300   3.283
  120PMPE   HN210129   8.031   3.323   3.454
  120PMPE   HN310130   8.028   3.168   3.387
  120PMPE   C1210131   7.857   3.285   3.350
  120PMPE  H12A10132   7.836   3.249   3.247
  120PMPE  H12B10133   7.835   3.394   3.358
  120PMPE   C1110134   7.779   3.208   3.458
  120PMPE  H11A10135   7.805   3.099   3.455
  120PMPE  H11B10136   7.671   3.217   3.435
  120PMPE     P10137   7.707   3.249   3.708
  120PMPE   O1310138   7.608   3.143   3.678
  120PMPE   O1410139   7.655   3.384   3.738
  120PMPE   O1110140   7.807   3.201   3.820
  120PMPE   O1210141   7.809   3.263   3.585
  120PMPE    C110142   7.947   3.193   3.790
  120PMPE    HA10143   7.983   3.276   3.725
  120PMPE    HB10144   7.968   3.096   3.740
  120PMPE    C210145   8.030   3.205   3.918
  120PMPE    HS10146   8.132   3.166   3.900
  120PMPE   O2110147   7.971   3.135   4.022
  120PMPE   C2110148   7.998   3.010   4.023
  120PMPE   O2210149   8.058   2.949   3.937
  120PMPE   C2210150   7.942   2.952   4.147
  120PMPE   H2R10151   8.001   2.924   4.234
  120PMPE   H2S10152   7.908   2.850   4.114
  120PMPE    C310153   8.042   3.349   3.970
  120PMPE    HX10154   7.953   3.406   3.938
  120PMPE    HY10155   8.134   3.392   3.925
  120PMPE   O3110156   8.043   3.355   4.114
  120PMPE   C3110157   8.159   3.326   4.165
  120PMPE   O3210158   8.264   3.312   4.105
  120PMPE   C3210159   8.143   3.330   4.315
  120PMPE   H2X10160   8.051   3.374   4.351
  120PMPE   H2Y10161   8.212   3.415   4.335
  120PMPE   C2310162   7.838   3.057   4.189
  120PMPE   H3R10163   7.807   2.962   4.229
  120PMPE   H3S10164   7.773   3.106   4.113
  120PMPE   C2410165   7.834   3.141   4.313
  120PMPE   H4R10166   7.892   3.229   4.278
  120PMPE   H4S10167   7.886   3.078   4.388
  120PMPE   C2510168   7.698   3.191   4.373
  120PMPE   H5R10169   7.620   3.118   4.403
  120PMPE   H5S10170   7.644   3.260   4.304
  120PMPE   C2610171   7.730   3.246   4.509
  120PMPE   H6R10172   7.805   3.177   4.555
  120PMPE   H6S10173   7.641   3.250   4.575
  120PMPE   C2710174   7.787   3.384   4.494
  120PMPE   H7R10175   7.716   3.446   4.435
  120PMPE   H7S10176   7.881   3.380   4.436
  120PMPE   C2810177   7.813   3.442   4.632
  120PMPE   H8R10178   7.901   3.390   4.675
  120PMPE   H8S10179   7.726   3.420   4.698
  120PMPE   C2910180   7.830   3.592   4.619
  120PMPE   H9R10181   7.748   3.648   4.571
  120PMPE  C21710182   7.969   3.633   4.571
  120PMPE  H17R10183   7.970   3.724   4.512
  120PMPE  H17S10184   8.039   3.551   4.564
  120PMPE  C21010185   7.923   3.667   4.711
  120PMPE  H10R10186   7.895   3.773   4.724
  120PMPE  C21110187   7.973   3.595   4.835
  120PMPE  H11R10188   8.067   3.640   4.873
  120PMPE  H11S10189   7.993   3.486   4.823
  120PMPE  C21210190   7.860   3.615   4.935
  120PMPE  H12R10191   7.770   3.557   4.903
  120PMPE  H12S10192   7.833   3.722   4.944
  120PMPE  C21310193   7.900   3.567   5.071
  120PMPE  H13R10194   7.983   3.629   5.113
  120PMPE  H13S10195   7.929   3.459   5.071
  120PMPE  C21410196   7.788   3.571   5.166
  120PMPE  H14R10197   7.699   3.508   5.144
  120PMPE  H14S10198   7.749   3.676   5.172
  120PMPE  C21510199   7.857   3.510   5.288
  120PMPE  H15R10200   7.861   3.402   5.300
  120PMPE  H15S10201   7.771   3.512   5.346
  120PMPE  C21610202   7.975   3.582   5.356
  120PMPE  H16R10203   8.070   3.534   5.328
  120PMPE  H16S10204   7.979   3.692   5.349
  120PMPE  H16T10205   7.963   3.571   5.464
  120PMPE   C3310206   8.167   3.191   4.383
  120PMPE   H3X10207   8.265   3.147   4.354
  120PMPE   H3Y10208   8.094   3.119   4.343
  120PMPE   C3410209   8.159   3.195   4.538
  120PMPE   H4X10210   8.065   3.242   4.569
  120PMPE   H4Y10211   8.235   3.261   4.583
  120PMPE   C3510212   8.169   3.056   4.602
  120PMPE   H5X10213   8.252   2.994   4.561
  120PMPE   H5Y10214   8.077   3.006   4.571
  120PMPE   C3610215   8.181   3.059   4.756
  120PMPE   H6X10216   8.286   3.080   4.781
  120PMPE   H6Y10217   8.171   2.958   4.795
  120PMPE   C3710218   8.092   3.159   4.835
  120PMPE   H7X10219   8.108   3.261   4.798
  120PMPE   H7Y10220   8.123   3.157   4.942
  120PMPE   C3810221   7.938   3.146   4.827
  120PMPE   H8X10222   7.906   3.118   4.724
  120PMPE   H8Y10223   7.887   3.235   4.867
  120PMPE   C3910224   7.885   3.043   4.919
  120PMPE   H9X10225   7.965   2.989   4.868
  120PMPE   H9Y10226   7.795   2.983   4.889
  120PMPE  C31010227   7.919   3.051   5.071
  120PMPE  H10X10228   8.023   3.079   5.088
  120PMPE  H10Y10229   7.927   2.966   5.143
  120PMPE  C31110230   7.811   3.132   5.127
  120PMPE  H11X10231   7.713   3.081   5.107
  120PMPE  H11Y10232   7.825   3.225   5.069
  120PMPE  C31210233   7.830   3.148   5.273
  120PMPE  H12X10234   7.788   3.048   5.299
  120PMPE  H12Y10235   7.762   3.222   5.315
  120PMPE  C31310236   7.977   3.177   5.319
  120PMPE  H13X10237   8.013   3.271   5.274
  120PMPE  H13Y10238   8.050   3.099   5.287
  120PMPE  C31410239   7.992   3.197   5.470
  120PMPE  H14X10240   7.973   3.137   5.563
  120PMPE  H14Y10241   7.893   3.235   5.496
  120PMPE  C31510242   8.135   3.209   5.516
  120PMPE  H15X10243   8.131   3.305   5.463
  120PMPE  H15Y10244   8.214   3.163   5.457
  120PMPE  C31610245   8.165   3.193   5.672
  120PMPE  H16X10246   8.172   3.094   5.716
  120PMPE  H16Y10247   8.096   3.222   5.752
  120PMPE  H16Z10248   8.229   3.277   5.704
  121PMPE     N10249   7.633   4.100   3.401
  121PMPE   HN110250   7.564   4.151   3.462
  121PMPE   HN210251   7.715   4.162   3.386
  121PMPE   HN310252   7.591   4.071   3.310
  121PMPE   C1210253   7.695   3.981   3.468
  121PMPE  H12A10254   7.763   3.933   3.393
  121PMPE  H12B10255   7.616   3.910   3.499
  121PMPE   C1110256   7.777   4.026   3.587
  121PMPE  H11A10257   7.806   3.934   3.644
  121PMPE  H11B10258   7.714   4.090   3.652
  121PMPE     P10259   8.002   4.129   3.652
  121PMPE   O1310260   8.120   4.191   3.589
  121PMPE   O1410261   8.017   4.010   3.738
  121PMPE   O1110262   7.921   4.239   3.731
  121PMPE   O1210263   7.891   4.099   3.539
  121PMPE    C110264   7.920   4.374   3.685
  121PMPE    HA10265   7.891   4.378   3.578
  121PMPE    HB10266   8.020   4.421   3.696
  121PMPE    C210267   7.813   4.460   3.757
  121PMPE    HS10268   7.792   4.547   3.690
  121PMPE   O2110269   7.867   4.503   3.883
  121PMPE   C2110270   7.807   4.609   3.932
  121PMPE   O2210271   7.711   4.667   3.884
  121PMPE   C2210272   7.869   4.646   4.062
  121PMPE   H2R10273   7.960   4.705   4.034
  121PMPE   H2S10274   7.908   4.559   4.118
  121PMPE    C310275   7.678   4.381   3.773
  121PMPE    HX10276   7.658   4.334   3.675
  121PMPE    HY10277   7.594   4.451   3.793
  121PMPE   O3110278   7.682   4.273   3.866
  121PMPE   C3110279   7.631   4.288   3.986
  121PMPE   O3210280   7.567   4.383   4.028
  121PMPE   C3210281   7.665   4.161   4.062
  121PMPE   H2X10282   7.674   4.079   3.988
  121PMPE   H2Y10283   7.582   4.138   4.132
  121PMPE   C2310284   7.762   4.720   4.145
  121PMPE   H3R10285   7.656   4.709   4.122
  121PMPE   H3S10286   7.771   4.828   4.112
  121PMPE   C2410287   7.788   4.695   4.296
  121PMPE   H4R10288   7.749   4.779   4.349
  121PMPE   H4S10289   7.893   4.683   4.329
  121PMPE   C2510290   7.700   4.614   4.385
  121PMPE   H5R10291   7.763   4.523   4.391
  121PMPE   H5S10292   7.605   4.604   4.329
  121PMPE   C2610293   7.676   4.672   4.529
  121PMPE   H6R10294   7.593   4.613   4.571
  121PMPE   H6S10295   7.643   4.780   4.530
  121PMPE   C2710296   7.791   4.640   4.626
  121PMPE   H7R10297   7.854   4.721   4.634
  121PMPE   H7S10298   7.866   4.571   4.585
  121PMPE   C2810299   7.772   4.654   4.777
  121PMPE   H8R10300   7.874   4.660   4.823
  121PMPE   H8S10301   7.729   4.558   4.805
  121PMPE   C2910302   7.681   4.777   4.808
  121PMPE   H9R10303   7.591   4.790   4.748
  121PMPE  C21710304   7.742   4.909   4.850
  121PMPE  H17R10305   7.691   4.998   4.816
  121PMPE  H17S10306   7.845   4.905   4.876
  121PMPE  C21010307   7.666   4.824   4.948
  121PMPE  H10R10308   7.584   4.883   4.987
  121PMPE  C21110309   7.754   4.758   5.045
  121PMPE  H11R10310   7.760   4.821   5.133
  121PMPE  H11S10311   7.848   4.746   4.990
  121PMPE  C21210312   7.707   4.633   5.116
  121PMPE  H12R10313   7.701   4.562   5.032
  121PMPE  H12S10314   7.619   4.669   5.174
  121PMPE  C21310315   7.796   4.560   5.212
  121PMPE  H13R10316   7.883   4.599   5.154
  121PMPE  H13S10317   7.822   4.455   5.205
  121PMPE  C21410318   7.779   4.589   5.366
  121PMPE  H14R10319   7.790   4.697   5.370
  121PMPE  H14S10320   7.870   4.564   5.428
  121PMPE  C21510321   7.702   4.492   5.452
  121PMPE  H15R10322   7.759   4.398   5.433
  121PMPE  H15S10323   7.611   4.503   5.394
  121PMPE  C21610324   7.679   4.502   5.605
  121PMPE  H16R10325   7.644   4.601   5.634
  121PMPE  H16S10326   7.593   4.448   5.643
  121PMPE  H16T10327   7.770   4.490   5.669
  121PMPE   C3310328   7.799   4.178   4.137
  121PMPE   H3X10329   7.784   4.248   4.222
  121PMPE   H3Y10330   7.876   4.222   4.070
  121PMPE   C3410331   7.857   4.047   4.191
  121PMPE   H4X10332   7.919   4.001   4.110
  121PMPE   H4Y10333   7.777   3.973   4.217
  121PMPE   C3510334   7.942   4.074   4.316
  121PMPE   H5X10335   7.989   4.174   4.306
  121PMPE   H5Y10336   8.022   3.997   4.323
  121PMPE   C3610337   7.857   4.071   4.444
  121PMPE   H6X10338   7.866   3.969   4.488
  121PMPE   H6Y10339   7.751   4.088   4.416
  121PMPE   C3710340   7.894   4.179   4.548
  121PMPE   H7X10341   7.834   4.164   4.641
  121PMPE   H7Y10342   7.873   4.281   4.508
  121PMPE   C3810343   8.040   4.176   4.587
  121PMPE   H8X10344   8.102   4.194   4.497
  121PMPE   H8Y10345   8.063   4.074   4.626
  121PMPE   C3910346   8.077   4.280   4.693
  121PMPE   H9X10347   8.082   4.383   4.651
  121PMPE   H9Y10348   8.177   4.245   4.721
  121PMPE  C31010349   7.995   4.286   4.821
  121PMPE  H10X10350   7.891   4.318   4.796
  121PMPE  H10Y10351   8.036   4.365   4.887
  121PMPE  C31110352   7.989   4.151   4.896
  121PMPE  H11X10353   7.947   4.074   4.830
  121PMPE  H11Y10354   7.914   4.164   4.978
  121PMPE  C31210355   8.122   4.089   4.945
  121PMPE  H12X10356   8.194   4.069   4.863
  121PMPE  H12Y10357   8.098   4.000   5.007
  121PMPE  C31310358   8.198   4.172   5.037
  121PMPE  H13X10359   8.255   4.244   4.977
  121PMPE  H13Y10360   8.285   4.128   5.092
  121PMPE  C31410361   8.089   4.224   5.125
  121PMPE  H14X10362   8.037   4.155   5.194
  121PMPE  H14Y10363   8.012   4.297   5.085
  121PMPE  C31510364   8.163   4.304   5.205
  121PMPE  H15X10365   8.267   4.263   5.229
  121PMPE  H15Y10366   8.111   4.302   5.299
  121PMPE  C31610367   8.155   4.427   5.115
  121PMPE  H16X10368   8.149   4.536   5.099
  121PMPE  H16Y10369   8.251   4.388   5.090
  121PMPE  H16Z10370   8.198   4.515   5.165
  122PMPE     N10371   0.897   1.419   3.838
  122PMPE   HN110372   1.000   1.416   3.822
  122PMPE   HN210373   0.875   1.514   3.874
  122PMPE   HN310374   0.866   1.344   3.904
  122PMPE   C1210375   0.835   1.396   3.704
  122PMPE  H12A10376   0.725   1.406   3.715
  122PMPE  H12B10377   0.860   1.292   3.673
  122PMPE   C1110378   0.886   1.502   3.606
  122PMPE  H11A10379   0.842   1.600   3.633
  122PMPE  H11B10380   0.852   1.482   3.502
  122PMPE     P10381   1.125   1.454   3.505
  122PMPE   O1310382   1.175   1.562   3.418
  122PMPE   O1410383   1.065   1.339   3.436
  122PMPE   O1110384   1.234   1.400   3.603
  122PMPE   O1210385   1.026   1.514   3.613
  122PMPE    C110386   1.342   1.480   3.649
  122PMPE    HA10387   1.363   1.569   3.585
  122PMPE    HB10388   1.435   1.419   3.642
  122PMPE    C210389   1.325   1.518   3.798
  122PMPE    HS10390   1.423   1.535   3.841
  122PMPE   O2110391   1.261   1.415   3.875
  122PMPE   C2110392   1.321   1.297   3.874
  122PMPE   O2210393   1.431   1.268   3.832
  122PMPE   C2210394   1.235   1.210   3.962
  122PMPE   H2R10395   1.232   1.107   3.919
  122PMPE   H2S10396   1.132   1.248   3.973
  122PMPE    C310397   1.245   1.650   3.822
  122PMPE    HX10398   1.144   1.635   3.777
  122PMPE    HY10399   1.292   1.733   3.766
  122PMPE   O3110400   1.245   1.681   3.964
  122PMPE   C3110401   1.132   1.662   4.032
  122PMPE   O3210402   1.024   1.634   3.981
  122PMPE   C3210403   1.157   1.669   4.182
  122PMPE   H2X10404   1.186   1.772   4.213
  122PMPE   H2Y10405   1.243   1.604   4.206
  122PMPE   C2310406   1.299   1.201   4.100
  122PMPE   H3R10407   1.410   1.192   4.093
  122PMPE   H3S10408   1.249   1.109   4.135
  122PMPE   C2410409   1.255   1.300   4.206
  122PMPE   H4R10410   1.147   1.283   4.227
  122PMPE   H4S10411   1.272   1.403   4.170
  122PMPE   C2510412   1.333   1.278   4.336
  122PMPE   H5R10413   1.343   1.170   4.359
  122PMPE   H5S10414   1.280   1.327   4.421
  122PMPE   C2610415   1.467   1.344   4.325
  122PMPE   H6R10416   1.456   1.453   4.304
  122PMPE   H6S10417   1.536   1.299   4.248
  122PMPE   C2710418   1.543   1.336   4.453
  122PMPE   H7R10419   1.630   1.398   4.423
  122PMPE   H7S10420   1.564   1.228   4.466
  122PMPE   C2810421   1.486   1.389   4.584
  122PMPE   H8R10422   1.568   1.392   4.656
  122PMPE   H8S10423   1.411   1.321   4.626
  122PMPE   C2910424   1.432   1.527   4.574
  122PMPE   H9R10425   1.376   1.557   4.483
  122PMPE  C21710426   1.550   1.616   4.595
  122PMPE  H17R10427   1.543   1.674   4.505
  122PMPE  H17S10428   1.641   1.587   4.647
  122PMPE  C21010429   1.433   1.624   4.688
  122PMPE  H10R10430   1.378   1.719   4.678
  122PMPE  C21110431   1.450   1.566   4.827
  122PMPE  H11R10432   1.481   1.649   4.894
  122PMPE  H11S10433   1.529   1.488   4.831
  122PMPE  C21210434   1.317   1.510   4.876
  122PMPE  H12R10435   1.287   1.419   4.819
  122PMPE  H12S10436   1.239   1.587   4.857
  122PMPE  C21310437   1.323   1.488   5.027
  122PMPE  H13R10438   1.365   1.582   5.071
  122PMPE  H13S10439   1.389   1.403   5.055
  122PMPE  C21410440   1.190   1.464   5.093
  122PMPE  H14R10441   1.143   1.371   5.053
  122PMPE  H14S10442   1.118   1.549   5.077
  122PMPE  C21510443   1.203   1.442   5.240
  122PMPE  H15R10444   1.225   1.540   5.290
  122PMPE  H15S10445   1.279   1.370   5.276
  122PMPE  C21610446   1.068   1.392   5.278
  122PMPE  H16R10447   1.004   1.479   5.248
  122PMPE  H16S10448   1.009   1.318   5.233
  122PMPE  H16T10449   1.071   1.364   5.385
  122PMPE   C3310450   1.029   1.629   4.260
  122PMPE   H3X10451   0.986   1.535   4.220
  122PMPE   H3Y10452   0.953   1.709   4.248
  122PMPE   C3410453   1.055   1.612   4.409
  122PMPE   H4X10454   1.103   1.707   4.445
  122PMPE   H4Y10455   1.127   1.529   4.422
  122PMPE   C3510456   0.925   1.592   4.489
  122PMPE   H5X10457   0.865   1.508   4.446
  122PMPE   H5Y10458   0.865   1.685   4.478
  122PMPE   C3610459   0.940   1.567   4.640
  122PMPE   H6X10460   0.841   1.588   4.688
  122PMPE   H6Y10461   1.012   1.637   4.686
  122PMPE   C3710462   0.979   1.424   4.675
  122PMPE   H7X10463   1.084   1.401   4.644
  122PMPE   H7Y10464   0.912   1.352   4.622
  122PMPE   C3810465   0.963   1.403   4.825
  122PMPE   H8X10466   0.861   1.439   4.852
  122PMPE   H8Y10467   1.038   1.460   4.882
  122PMPE   C3910468   0.972   1.257   4.865
  122PMPE   H9X10469   1.075   1.217   4.870
  122PMPE   H9Y10470   0.924   1.205   4.785
  122PMPE  C31010471   0.887   1.230   4.987
  122PMPE  H10X10472   0.784   1.266   4.974
  122PMPE  H10Y10473   0.932   1.277   5.073
  122PMPE  C31110474   0.876   1.086   5.018
  122PMPE  H11X10475   0.843   1.036   4.928
  122PMPE  H11Y10476   0.816   1.067   5.112
  122PMPE  C31210477   0.999   1.012   5.023
  122PMPE  H12X10478   1.069   1.016   4.937
  122PMPE  H12Y10479   0.954   0.908   5.014
  122PMPE  C31310480   1.059   1.061   5.153
  122PMPE  H13X10481   0.985   1.021   5.228
  122PMPE  H13Y10482   1.045   1.159   5.184
  122PMPE  C31410483   1.210   1.039   5.172
  122PMPE  H14X10484   1.289   1.057   5.099
  122PMPE  H14Y10485   1.217   0.960   5.094
  122PMPE  C31510486   1.248   1.005   5.326
  122PMPE  H15X10487   1.343   0.947   5.347
  122PMPE  H15Y10488   1.175   0.940   5.384
  122PMPE  C31610489   1.264   1.120   5.404
  122PMPE  H16X10490   1.362   1.148   5.358
  122PMPE  H16Y10491   1.264   1.080   5.508
  122PMPE  H16Z10492   1.170   1.167   5.368
  123PMPE     N10493   2.638   7.869   3.409
  123PMPE   HN110494   2.713   7.830   3.347
  123PMPE   HN210495   2.594   7.953   3.365
  123PMPE   HN310496   2.679   7.904   3.498
  123PMPE   C1210497   2.536   7.764   3.445
  123PMPE  H12A10498   2.590   7.679   3.491
  123PMPE  H12B10499   2.489   7.729   3.350
  123PMPE   C1110500   2.433   7.825   3.541
  123PMPE  H11A10501   2.396   7.921   3.497
  123PMPE  H11B10502   2.483   7.850   3.638
  123PMPE     P10503   2.202   7.794   3.656
  123PMPE   O1310504   2.074   7.750   3.595
  123PMPE   O1410505   2.221   7.939   3.678
  123PMPE   O1110506   2.229   7.720   3.794
  123PMPE   O1210507   2.322   7.738   3.563
  123PMPE    C110508   2.239   7.577   3.791
  123PMPE    HA10509   2.319   7.545   3.722
  123PMPE    HB10510   2.141   7.532   3.763
  123PMPE    C210511   2.272   7.518   3.928
  123PMPE    HS10512   2.294   7.409   3.915
  123PMPE   O2110513   2.153   7.541   4.006
  123PMPE   C2110514   2.156   7.480   4.120
  123PMPE   O2210515   2.246   7.409   4.162
  123PMPE   C2210516   2.039   7.526   4.202
  123PMPE   H2R10517   2.028   7.462   4.288
  123PMPE   H2S10518   1.943   7.520   4.147
  123PMPE    C310519   2.400   7.582   3.991
  123PMPE    HX10520   2.478   7.588   3.912
  123PMPE    HY10521   2.440   7.518   4.073
  123PMPE   O3110522   2.366   7.707   4.048
  123PMPE   C3110523   2.426   7.813   4.004
  123PMPE   O3210524   2.520   7.826   3.928
  123PMPE   C3210525   2.372   7.924   4.075
  123PMPE   H2X10526   2.263   7.931   4.085
  123PMPE   H2Y10527   2.402   8.008   4.009
  123PMPE   C2310528   2.078   7.658   4.261
  123PMPE   H3R10529   2.081   7.736   4.181
  123PMPE   H3S10530   2.176   7.653   4.312
  123PMPE   C2410531   1.984   7.700   4.366
  123PMPE   H4R10532   1.915   7.622   4.407
  123PMPE   H4S10533   1.933   7.777   4.304
  123PMPE   C2510534   2.047   7.785   4.469
  123PMPE   H5R10535   2.153   7.772   4.469
  123PMPE   H5S10536   2.019   7.745   4.569
  123PMPE   C2610537   2.009   7.936   4.452
  123PMPE   H6R10538   1.907   7.963   4.420
  123PMPE   H6S10539   2.070   7.984   4.374
  123PMPE   C2710540   2.023   7.995   4.591
  123PMPE   H7R10541   1.977   7.954   4.682
  123PMPE   H7S10542   1.988   8.101   4.589
  123PMPE   C2810543   2.154   7.940   4.637
  123PMPE   H8R10544   2.200   7.969   4.540
  123PMPE   H8S10545   2.191   7.842   4.645
  123PMPE   C2910546   2.194   8.009   4.758
  123PMPE   H9R10547   2.166   8.097   4.717
  123PMPE  C21710548   2.316   7.978   4.844
  123PMPE  H17R10549   2.378   8.056   4.886
  123PMPE  H17S10550   2.355   7.881   4.827
  123PMPE  C21010551   2.172   7.987   4.900
  123PMPE  H10R10552   2.144   8.073   4.963
  123PMPE  C21110553   2.099   7.865   4.920
  123PMPE  H11R10554   2.145   7.787   4.857
  123PMPE  H11S10555   1.994   7.885   4.888
  123PMPE  C21210556   2.111   7.841   5.068
  123PMPE  H12R10557   2.025   7.777   5.095
  123PMPE  H12S10558   2.102   7.938   5.123
  123PMPE  C21310559   2.249   7.784   5.101
  123PMPE  H13R10560   2.316   7.870   5.126
  123PMPE  H13S10561   2.291   7.725   5.018
  123PMPE  C21410562   2.254   7.692   5.217
  123PMPE  H14R10563   2.360   7.675   5.248
  123PMPE  H14S10564   2.206   7.592   5.203
  123PMPE  C21510565   2.190   7.754   5.332
  123PMPE  H15R10566   2.081   7.775   5.327
  123PMPE  H15S10567   2.243   7.846   5.367
  123PMPE  C21610568   2.212   7.636   5.418
  123PMPE  H16R10569   2.151   7.554   5.437
  123PMPE  H16S10570   2.309   7.630   5.473
  123PMPE  H16T10571   2.131   7.678   5.477
  123PMPE   C3310572   2.451   7.932   4.204
  123PMPE   H3X10573   2.381   7.992   4.257
  123PMPE   H3Y10574   2.536   8.000   4.183
  123PMPE   C3410575   2.441   7.832   4.318
  123PMPE   H4X10576   2.509   7.754   4.281
  123PMPE   H4Y10577   2.336   7.798   4.324
  123PMPE   C3510578   2.473   7.883   4.462
  123PMPE   H5X10579   2.451   7.966   4.514
  123PMPE   H5Y10580   2.553   7.953   4.462
  123PMPE   C3610581   2.465   7.813   4.592
  123PMPE   H6X10582   2.359   7.809   4.599
  123PMPE   H6Y10583   2.503   7.876   4.676
  123PMPE   C3710584   2.531   7.686   4.601
  123PMPE   H7X10585   2.530   7.647   4.703
  123PMPE   H7Y10586   2.632   7.678   4.578
  123PMPE   C3810587   2.481   7.603   4.499
  123PMPE   H8X10588   2.554   7.523   4.503
  123PMPE   H8Y10589   2.482   7.608   4.388
  123PMPE   C3910590   2.347   7.592   4.564
  123PMPE   H9X10591   2.351   7.521   4.479
  123PMPE   H9Y10592   2.271   7.656   4.529
  123PMPE  C31010593   2.309   7.567   4.724
  123PMPE  H10X10594   2.386   7.575   4.801
  123PMPE  H10Y10595   2.340   7.474   4.770
  123PMPE  C31110596   2.167   7.531   4.764
  123PMPE  H11X10597   2.138   7.429   4.744
  123PMPE  H11Y10598   2.097   7.585   4.697
  123PMPE  C31210599   2.135   7.467   4.900
  123PMPE  H12X10600   2.172   7.539   4.973
  123PMPE  H12Y10601   2.160   7.359   4.921
  123PMPE  C31310602   1.988   7.456   4.901
  123PMPE  H13X10603   1.941   7.400   4.826
  123PMPE  H13Y10604   1.968   7.550   4.845
  123PMPE  C31410605   1.920   7.386   5.020
  123PMPE  H14X10606   1.939   7.277   5.017
  123PMPE  H14Y10607   1.811   7.374   5.027
  123PMPE  C31510608   1.945   7.472   5.137
  123PMPE  H15X10609   1.931   7.575   5.095
  123PMPE  H15Y10610   2.050   7.475   5.163
  123PMPE  C31610611   1.863   7.431   5.260
  123PMPE  H16X10612   1.873   7.510   5.336
  123PMPE  H16Y10613   1.887   7.328   5.288
  123PMPE  H16Z10614   1.755   7.416   5.251
  124PMPE     N10615   7.706   1.656   3.306
  124PMPE   HN110616   7.705   1.687   3.207
  124PMPE   HN210617   7.700   1.739   3.369
  124PMPE   HN310618   7.795   1.607   3.327
  124PMPE   C1210619   7.596   1.558   3.336
  124PMPE  H12A10620   7.600   1.480   3.257
  124PMPE  H12B10621   7.498   1.610   3.332
  124PMPE   C1110622   7.615   1.497   3.477
  124PMPE  H11A10623   7.717   1.452   3.481
  124PMPE  H11B10624   7.541   1.414   3.492
  124PMPE     P10625   7.631   1.562   3.732
  124PMPE   O1310626   7.549   1.657   3.812
  124PMPE   O1410627   7.779   1.563   3.747
  124PMPE   O1110628   7.579   1.414   3.742
  124PMPE   O1210629   7.601   1.597   3.578
  124PMPE    C110630   7.452   1.377   3.793
  124PMPE    HA10631   7.434   1.270   3.768
  124PMPE    HB10632   7.367   1.436   3.749
  124PMPE    C210633   7.450   1.388   3.945
  124PMPE    HS10634   7.422   1.494   3.972
  124PMPE   O2110635   7.573   1.344   4.005
  124PMPE   C2110636   7.612   1.416   4.108
  124PMPE   O2210637   7.564   1.520   4.148
  124PMPE   C2210638   7.723   1.342   4.183
  124PMPE   H2R10639   7.717   1.373   4.290
  124PMPE   H2S10640   7.818   1.382   4.143
  124PMPE    C310641   7.343   1.299   4.000
  124PMPE    HX10642   7.348   1.192   3.977
  124PMPE    HY10643   7.251   1.332   3.939
  124PMPE   O3110644   7.362   1.312   4.145
  124PMPE   C3110645   7.252   1.351   4.190
  124PMPE   O3210646   7.153   1.351   4.118
  124PMPE   C3210647   7.271   1.383   4.347
  124PMPE   H2X10648   7.377   1.404   4.368
  124PMPE   H2Y10649   7.226   1.301   4.406
  124PMPE   C2310650   7.714   1.188   4.169
  124PMPE   H3R10651   7.723   1.159   4.061
  124PMPE   H3S10652   7.625   1.143   4.215
  124PMPE   C2410653   7.830   1.120   4.233
  124PMPE   H4R10654   7.898   1.167   4.158
  124PMPE   H4S10655   7.839   1.010   4.215
  124PMPE   C2510656   7.857   1.152   4.383
  124PMPE   H5R10657   7.895   1.252   4.405
  124PMPE   H5S10658   7.929   1.079   4.422
  124PMPE   C2610659   7.747   1.114   4.475
  124PMPE   H6R10660   7.750   1.012   4.444
  124PMPE   H6S10661   7.653   1.159   4.442
  124PMPE   C2710662   7.774   1.114   4.625
  124PMPE   H7R10663   7.798   1.219   4.650
  124PMPE   H7S10664   7.864   1.052   4.652
  124PMPE   C2810665   7.653   1.063   4.705
  124PMPE   H8R10666   7.685   1.051   4.809
  124PMPE   H8S10667   7.615   0.963   4.677
  124PMPE   C2910668   7.536   1.157   4.681
  124PMPE   H9R10669   7.486   1.159   4.583
  124PMPE  C21710670   7.550   1.290   4.752
  124PMPE  H17R10671   7.518   1.368   4.686
  124PMPE  H17S10672   7.643   1.291   4.810
  124PMPE  C21010673   7.444   1.185   4.792
  124PMPE  H10R10674   7.342   1.224   4.780
  124PMPE  C21110675   7.475   1.116   4.919
  124PMPE  H11R10676   7.415   1.187   4.972
  124PMPE  H11S10677   7.582   1.127   4.948
  124PMPE  C21210678   7.393   1.001   4.978
  124PMPE  H12R10679   7.434   0.912   4.927
  124PMPE  H12S10680   7.288   1.024   4.951
  124PMPE  C21310681   7.391   0.976   5.131
  124PMPE  H13R10682   7.316   0.900   5.158
  124PMPE  H13S10683   7.360   1.061   5.195
  124PMPE  C21410684   7.522   0.934   5.193
  124PMPE  H14R10685   7.610   1.000   5.194
  124PMPE  H14S10686   7.581   0.863   5.135
  124PMPE  C21510687   7.491   0.932   5.339
  124PMPE  H15R10688   7.471   0.826   5.369
  124PMPE  H15S10689   7.423   1.006   5.387
  124PMPE  C21610690   7.608   0.977   5.406
  124PMPE  H16R10691   7.667   0.897   5.359
  124PMPE  H16S10692   7.695   1.043   5.383
  124PMPE  H16T10693   7.591   0.953   5.514
  124PMPE   C3310694   7.231   1.507   4.430
  124PMPE   H3X10695   7.235   1.481   4.537
  124PMPE   H3Y10696   7.122   1.501   4.422
  124PMPE   C3410697   7.284   1.650   4.385
  124PMPE   H4X10698   7.223   1.739   4.413
  124PMPE   H4Y10699   7.296   1.665   4.276
  124PMPE   C3510700   7.406   1.708   4.437
  124PMPE   H5X10701   7.413   1.809   4.390
  124PMPE   H5Y10702   7.474   1.634   4.392
  124PMPE   C3610703   7.395   1.718   4.586
  124PMPE   H6X10704   7.351   1.623   4.623
  124PMPE   H6Y10705   7.330   1.800   4.623
  124PMPE   C3710706   7.531   1.745   4.639
  124PMPE   H7X10707   7.561   1.848   4.610
  124PMPE   H7Y10708   7.598   1.674   4.584
  124PMPE   C3810709   7.530   1.721   4.788
  124PMPE   H8X10710   7.633   1.710   4.822
  124PMPE   H8Y10711   7.476   1.624   4.804
  124PMPE   C3910712   7.470   1.835   4.871
  124PMPE   H9X10713   7.367   1.852   4.827
  124PMPE   H9Y10714   7.513   1.933   4.851
  124PMPE  C31010715   7.496   1.830   5.030
  124PMPE  H10X10716   7.473   1.925   5.079
  124PMPE  H10Y10717   7.573   1.762   5.073
  124PMPE  C31110718   7.388   1.760   5.089
  124PMPE  H11X10719   7.420   1.672   5.027
  124PMPE  H11Y10720   7.320   1.812   5.007
  124PMPE  C31210721   7.323   1.707   5.244
  124PMPE  H12X10722   7.211   1.672   5.250
  124PMPE  H12Y10723   7.305   1.798   5.294
  124PMPE  C31310724   7.379   1.579   5.328
  124PMPE  H13X10725   7.406   1.490   5.270
  124PMPE  H13Y10726   7.334   1.486   5.376
  124PMPE  C31410727   7.517   1.605   5.327
  124PMPE  H14X10728   7.501   1.699   5.382
  124PMPE  H14Y10729   7.564   1.622   5.227
  124PMPE  C31510730   7.577   1.491   5.392
  124PMPE  H15X10731   7.597   1.402   5.331
  124PMPE  H15Y10732   7.514   1.443   5.471
  124PMPE  C31610733   7.704   1.550   5.428
  124PMPE  H16X10734   7.767   1.465   5.410
  124PMPE  H16Y10735   7.702   1.577   5.536
  124PMPE  H16Z10736   7.774   1.592   5.355
  125PMPE     N10737   6.640   0.126   3.431
  125PMPE   HN110738   6.693   0.090   3.514
  125PMPE   HN210739   6.542   0.137   3.463
  125PMPE   HN310740   6.644   0.057   3.353
  125PMPE   C1210741   6.687   0.261   3.385
  125PMPE  H12A10742   6.615   0.297   3.308
  125PMPE  H12B10743   6.788   0.252   3.339
  125PMPE   C1110744   6.689   0.356   3.504
  125PMPE  H11A10745   6.588   0.364   3.550
  125PMPE  H11B10746   6.713   0.457   3.468
  125PMPE     P10747   6.851   0.433   3.689
  125PMPE   O1310748   6.950   0.499   3.601
  125PMPE   O1410749   6.890   0.380   3.821
  125PMPE   O1110750   6.724   0.526   3.700
  125PMPE   O1210751   6.788   0.315   3.598
  125PMPE    C110752   6.621   0.506   3.796
  125PMPE    HA10753   6.624   0.405   3.843
  125PMPE    HB10754   6.524   0.516   3.743
  125PMPE    C210755   6.618   0.616   3.907
  125PMPE    HS10756   6.544   0.691   3.870
  125PMPE   O2110757   6.747   0.675   3.932
  125PMPE   C2110758   6.777   0.776   3.854
  125PMPE   O2210759   6.698   0.835   3.781
  125PMPE   C2210760   6.927   0.805   3.869
  125PMPE   H2R10761   6.960   0.842   3.770
  125PMPE   H2S10762   6.981   0.710   3.885
  125PMPE    C310763   6.567   0.562   4.042
  125PMPE    HX10764   6.468   0.513   4.029
  125PMPE    HY10765   6.553   0.652   4.106
  125PMPE   O3110766   6.662   0.467   4.096
  125PMPE   C3110767   6.676   0.472   4.227
  125PMPE   O3210768   6.614   0.544   4.303
  125PMPE   C3210769   6.770   0.359   4.271
  125PMPE   H2X10770   6.752   0.351   4.381
  125PMPE   H2Y10771   6.876   0.387   4.255
  125PMPE   C2310772   6.957   0.910   3.981
  125PMPE   H3R10773   6.881   0.991   3.981
  125PMPE   H3S10774   7.054   0.958   3.954
  125PMPE   C2410775   6.976   0.852   4.122
  125PMPE   H4R10776   6.879   0.817   4.165
  125PMPE   H4S10777   7.016   0.933   4.187
  125PMPE   C2510778   7.072   0.732   4.123
  125PMPE   H5R10779   7.155   0.755   4.053
  125PMPE   H5S10780   7.016   0.646   4.080
  125PMPE   C2610781   7.125   0.691   4.261
  125PMPE   H6R10782   7.193   0.769   4.300
  125PMPE   H6S10783   7.180   0.594   4.251
  125PMPE   C2710784   7.019   0.675   4.369
  125PMPE   H7R10785   6.940   0.611   4.326
  125PMPE   H7S10786   6.974   0.774   4.393
  125PMPE   C2810787   7.071   0.612   4.500
  125PMPE   H8R10788   7.129   0.687   4.559
  125PMPE   H8S10789   7.140   0.527   4.482
  125PMPE   C2910790   6.946   0.559   4.568
  125PMPE   H9R10791   6.887   0.485   4.512
  125PMPE  C21710792   6.863   0.667   4.638
  125PMPE  H17R10793   6.756   0.655   4.631
  125PMPE  H17S10794   6.915   0.759   4.663
  125PMPE  C21010795   6.923   0.551   4.716
  125PMPE  H10R10796   6.845   0.483   4.754
  125PMPE  C21110797   7.026   0.599   4.812
  125PMPE  H11R10798   6.976   0.661   4.890
  125PMPE  H11S10799   7.107   0.661   4.769
  125PMPE  C21210800   7.086   0.479   4.877
  125PMPE  H12R10801   7.147   0.419   4.805
  125PMPE  H12S10802   7.009   0.408   4.918
  125PMPE  C21310803   7.169   0.542   4.988
  125PMPE  H13R10804   7.232   0.625   4.954
  125PMPE  H13S10805   7.256   0.484   5.005
  125PMPE  C21410806   7.092   0.553   5.120
  125PMPE  H14R10807   7.048   0.458   5.157
  125PMPE  H14S10808   7.004   0.615   5.096
  125PMPE  C21510809   7.174   0.615   5.234
  125PMPE  H15R10810   7.111   0.638   5.320
  125PMPE  H15S10811   7.219   0.707   5.192
  125PMPE  C21610812   7.286   0.531   5.292
  125PMPE  H16R10813   7.260   0.430   5.329
  125PMPE  H16S10814   7.344   0.517   5.201
  125PMPE  H16T10815   7.355   0.582   5.363
  125PMPE   C3310816   6.747   0.225   4.198
  125PMPE   H3X10817   6.819   0.195   4.121
  125PMPE   H3Y10818   6.656   0.231   4.137
  125PMPE   C3410819   6.743   0.111   4.295
  125PMPE   H4X10820   6.698   0.016   4.256
  125PMPE   H4Y10821   6.685   0.131   4.386
  125PMPE   C3510822   6.869   0.086   4.349
  125PMPE   H5X10823   6.915   0.172   4.403
  125PMPE   H5Y10824   6.937   0.046   4.269
  125PMPE   C3610825   6.822  -0.024   4.437
  125PMPE   H6X10826   6.929  -0.019   4.450
  125PMPE   H6Y10827   6.815  -0.121   4.388
  125PMPE   C3710828   6.730  -0.015   4.568
  125PMPE   H7X10829   6.763  -0.088   4.646
  125PMPE   H7Y10830   6.630  -0.053   4.552
  125PMPE   C3810831   6.731   0.121   4.639
  125PMPE   H8X10832   6.696   0.206   4.584
  125PMPE   H8Y10833   6.830   0.152   4.601
  125PMPE   C3910834   6.701   0.132   4.796
  125PMPE   H9X10835   6.761   0.207   4.853
  125PMPE   H9Y10836   6.708   0.050   4.870
  125PMPE  C31010837   6.575   0.182   4.834
  125PMPE  H10X10838   6.512   0.098   4.796
  125PMPE  H10Y10839   6.577   0.277   4.778
  125PMPE  C31110840   6.579   0.203   4.986
  125PMPE  H11X10841   6.616   0.114   5.042
  125PMPE  H11Y10842   6.475   0.215   5.012
  125PMPE  C31210843   6.649   0.330   5.033
  125PMPE  H12X10844   6.615   0.412   4.965
  125PMPE  H12Y10845   6.760   0.324   5.028
  125PMPE  C31310846   6.610   0.365   5.177
  125PMPE  H13X10847   6.646   0.287   5.247
  125PMPE  H13Y10848   6.500   0.363   5.182
  125PMPE  C31410849   6.682   0.495   5.217
  125PMPE  H14X10850   6.703   0.557   5.127
  125PMPE  H14Y10851   6.773   0.466   5.265
  125PMPE  C31510852   6.618   0.588   5.317
  125PMPE  H15X10853   6.557   0.538   5.395
  125PMPE  H15Y10854   6.557   0.639   5.245
  125PMPE  C31610855   6.679   0.717   5.362
  125PMPE  H16X10856   6.766   0.693   5.421
  125PMPE  H16Y10857   6.605   0.776   5.424
  125PMPE  H16Z10858   6.710   0.777   5.275
  126PMPE     N10859   0.197   1.220   3.306
  126PMPE   HN110860   0.260   1.288   3.354
  126PMPE   HN210861   0.249   1.137   3.272
  126PMPE   HN310862   0.148   1.264   3.224
  126PMPE   C1210863   0.086   1.189   3.404
  126PMPE  H12A10864   0.008   1.132   3.349
  126PMPE  H12B10865   0.046   1.287   3.438
  126PMPE   C1110866   0.127   1.107   3.523
  126PMPE  H11A10867   0.140   1.003   3.482
  126PMPE  H11B10868   0.036   1.110   3.591
  126PMPE     P10869   0.303   1.072   3.705
  126PMPE   O1310870   0.394   0.977   3.638
  126PMPE   O1410871   0.188   1.019   3.779
  126PMPE   O1110872   0.377   1.172   3.799
  126PMPE   O1210873   0.245   1.161   3.585
  126PMPE    C110874   0.453   1.283   3.760
  126PMPE    HA10875   0.397   1.343   3.685
  126PMPE    HB10876   0.546   1.246   3.709
  126PMPE    C210877   0.481   1.373   3.885
  126PMPE    HS10878   0.557   1.448   3.855
  126PMPE   O2110879   0.526   1.311   4.006
  126PMPE   C2110880   0.625   1.229   3.998
  126PMPE   O2210881   0.694   1.214   3.898
  126PMPE   C2210882   0.652   1.180   4.141
  126PMPE   H2R10883   0.646   1.264   4.213
  126PMPE   H2S10884   0.754   1.142   4.151
  126PMPE    C310885   0.353   1.447   3.932
  126PMPE    HX10886   0.317   1.513   3.851
  126PMPE    HY10887   0.383   1.509   4.019
  126PMPE   O3110888   0.253   1.356   3.978
  126PMPE   C3110889   0.132   1.360   3.926
  126PMPE   O3210890   0.094   1.440   3.842
  126PMPE   C3210891   0.043   1.265   4.005
  126PMPE   H2X10892   0.024   1.177   3.940
  126PMPE   H2Y10893  -0.055   1.318   4.016
  126PMPE   C2310894   0.551   1.073   4.184
  126PMPE   H3R10895   0.575   0.980   4.127
  126PMPE   H3S10896   0.446   1.100   4.164
  126PMPE   C2410897   0.569   1.057   4.333
  126PMPE   H4R10898   0.547   1.143   4.397
  126PMPE   H4S10899   0.674   1.018   4.331
  126PMPE   C2510900   0.485   0.957   4.397
  126PMPE   H5R10901   0.568   0.885   4.416
  126PMPE   H5S10902   0.406   0.940   4.321
  126PMPE   C2610903   0.415   0.961   4.528
  126PMPE   H6R10904   0.367   1.055   4.549
  126PMPE   H6S10905   0.496   0.938   4.595
  126PMPE   C2710906   0.326   0.846   4.560
  126PMPE   H7R10907   0.404   0.773   4.560
  126PMPE   H7S10908   0.244   0.806   4.499
  126PMPE   C2810909   0.296   0.844   4.701
  126PMPE   H8R10910   0.245   0.936   4.733
  126PMPE   H8S10911   0.385   0.826   4.758
  126PMPE   C2910912   0.217   0.730   4.727
  126PMPE   H9R10913   0.214   0.622   4.700
  126PMPE  C21710914   0.091   0.773   4.767
  126PMPE  H17R10915   0.032   0.693   4.757
  126PMPE  H17S10916   0.059   0.870   4.744
  126PMPE  C21010917   0.199   0.735   4.870
  126PMPE  H10R10918   0.193   0.638   4.905
  126PMPE  C21110919   0.220   0.841   4.972
  126PMPE  H11R10920   0.117   0.876   4.990
  126PMPE  H11S10921   0.246   0.936   4.929
  126PMPE  C21210922   0.306   0.787   5.100
  126PMPE  H12R10923   0.347   0.872   5.152
  126PMPE  H12S10924   0.387   0.747   5.045
  126PMPE  C21310925   0.298   0.657   5.198
  126PMPE  H13R10926   0.280   0.563   5.147
  126PMPE  H13S10927   0.209   0.610   5.231
  126PMPE  C21410928   0.318   0.669   5.347
  126PMPE  H14R10929   0.324   0.776   5.367
  126PMPE  H14S10930   0.418   0.640   5.365
  126PMPE  C21510931   0.226   0.574   5.434
  126PMPE  H15R10932   0.246   0.468   5.411
  126PMPE  H15S10933   0.117   0.578   5.422
  126PMPE  C21610934   0.233   0.598   5.579
  126PMPE  H16R10935   0.169   0.530   5.637
  126PMPE  H16S10936   0.339   0.578   5.601
  126PMPE  H16T10937   0.203   0.704   5.599
  126PMPE   C3310938   0.114   1.225   4.139
  126PMPE   H3X10939   0.149   1.314   4.196
  126PMPE   H3Y10940   0.197   1.156   4.117
  126PMPE   C3410941   0.023   1.155   4.235
  126PMPE   H4X10942  -0.024   1.075   4.173
  126PMPE   H4Y10943  -0.043   1.241   4.263
  126PMPE   C3510944   0.072   1.071   4.353
  126PMPE   H5X10945   0.144   1.000   4.310
  126PMPE   H5Y10946  -0.001   0.997   4.391
  126PMPE   C3610947   0.122   1.153   4.471
  126PMPE   H6X10948   0.209   1.208   4.429
  126PMPE   H6Y10949   0.154   1.080   4.548
  126PMPE   C3710950   0.029   1.256   4.538
  126PMPE   H7X10951  -0.052   1.207   4.597
  126PMPE   H7Y10952  -0.019   1.321   4.462
  126PMPE   C3810953   0.110   1.355   4.622
  126PMPE   H8X10954   0.053   1.451   4.631
  126PMPE   H8Y10955   0.203   1.377   4.564
  126PMPE   C3910956   0.141   1.303   4.762
  126PMPE   H9X10957   0.190   1.203   4.756
  126PMPE   H9Y10958   0.044   1.293   4.816
  126PMPE  C31010959   0.227   1.398   4.845
  126PMPE  H10X10960   0.191   1.500   4.822
  126PMPE  H10Y10961   0.334   1.388   4.817
  126PMPE  C31110962   0.204   1.376   4.995
  126PMPE  H11X10963   0.096   1.393   5.018
  126PMPE  H11Y10964   0.260   1.452   5.054
  126PMPE  C31210965   0.241   1.234   5.035
  126PMPE  H12X10966   0.347   1.213   5.009
  126PMPE  H12Y10967   0.175   1.160   4.985
  126PMPE  C31310968   0.224   1.212   5.181
  126PMPE  H13X10969   0.233   1.105   5.211
  126PMPE  H13Y10970   0.125   1.249   5.214
  126PMPE  C31410971   0.337   1.283   5.245
  126PMPE  H14X10972   0.335   1.395   5.243
  126PMPE  H14Y10973   0.438   1.250   5.208
  126PMPE  C31510974   0.318   1.249   5.387
  126PMPE  H15X10975   0.417   1.296   5.397
  126PMPE  H15Y10976   0.341   1.145   5.418
  126PMPE  C31610977   0.185   1.317   5.442
  126PMPE  H16X10978   0.173   1.323   5.551
  126PMPE  H16Y10979   0.092   1.262   5.421
  126PMPE  H16Z10980   0.185   1.428   5.434
  127PMPE     N10981   1.015   8.111   3.486
  127PMPE   HN110982   0.968   8.056   3.410
  127PMPE   HN210983   1.038   8.206   3.449
  127PMPE   HN310984   1.095   8.055   3.520
  127PMPE   C1210985   0.909   8.132   3.585
  127PMPE  H12A10986   0.813   8.146   3.531
  127PMPE  H12B10987   0.935   8.225   3.640
  127PMPE   C1110988   0.915   8.007   3.671
  127PMPE  H11A10989   0.844   8.021   3.755
  127PMPE  H11B10990   1.018   8.001   3.715
  127PMPE     P10991   0.752   7.809   3.596
  127PMPE   O1310992   0.778   7.669   3.557
  127PMPE   O1410993   0.649   7.887   3.527
  127PMPE   O1110994   0.728   7.812   3.752
  127PMPE   O1210995   0.891   7.890   3.592
  127PMPE    C110996   0.622   7.888   3.810
  127PMPE    HA10997   0.523   7.846   3.781
  127PMPE    HB10998   0.625   7.994   3.775
  127PMPE    C210999   0.636   7.889   3.964
  127PMPE    HS11000   0.552   7.948   4.007
  127PMPE   O2111001   0.766   7.942   3.995
  127PMPE   C2111002   0.773   8.041   4.078
  127PMPE   O2211003   0.686   8.088   4.148
  127PMPE   C2211004   0.915   8.092   4.069
  127PMPE   H2R11005   0.942   8.120   3.966
  127PMPE   H2S11006   0.980   8.011   4.103
  127PMPE    C311007   0.624   7.745   4.018
  127PMPE    HX11008   0.714   7.684   4.000
  127PMPE    HY11009   0.547   7.698   3.954
  127PMPE   O3111010   0.581   7.741   4.155
  127PMPE   C3111011   0.677   7.729   4.245
  127PMPE   O3211012   0.797   7.733   4.224
  127PMPE   C3211013   0.614   7.707   4.381
  127PMPE   H2X11014   0.658   7.618   4.429
  127PMPE   H2Y11015   0.505   7.687   4.367
  127PMPE   C2311016   0.941   8.205   4.163
  127PMPE   H3R11017   0.862   8.282   4.152
  127PMPE   H3S11018   1.037   8.256   4.140
  127PMPE   C2411019   0.953   8.143   4.301
  127PMPE   H4R11020   1.034   8.069   4.306
  127PMPE   H4S11021   0.857   8.097   4.334
  127PMPE   C2511022   0.991   8.249   4.395
  127PMPE   H5R11023   0.923   8.320   4.358
  127PMPE   H5S11024   1.094   8.285   4.372
  127PMPE   C2611025   0.954   8.219   4.539
  127PMPE   H6R11026   0.867   8.154   4.556
  127PMPE   H6S11027   0.939   8.298   4.612
  127PMPE   C2711028   1.071   8.158   4.596
  127PMPE   H7R11029   1.156   8.229   4.608
  127PMPE   H7S11030   1.105   8.089   4.516
  127PMPE   C2811031   1.024   8.091   4.722
  127PMPE   H8R11032   0.997   8.161   4.801
  127PMPE   H8S11033   1.090   8.050   4.795
  127PMPE   C2911034   0.973   7.953   4.690
  127PMPE   H9R11035   1.014   7.894   4.606
  127PMPE  C21711036   0.833   7.934   4.732
  127PMPE  H17R11037   0.789   7.875   4.654
  127PMPE  H17S11038   0.804   8.033   4.766
  127PMPE  C21011039   0.944   7.868   4.810
  127PMPE  H10R11040   0.957   7.759   4.797
  127PMPE  C21111041   0.953   7.933   4.947
  127PMPE  H11R11042   0.949   8.043   4.944
  127PMPE  H11S11043   1.046   7.900   4.997
  127PMPE  C21211044   0.839   7.901   5.037
  127PMPE  H12R11045   0.737   7.911   4.993
  127PMPE  H12S11046   0.853   7.938   5.141
  127PMPE  C21311047   0.862   7.767   5.073
  127PMPE  H13R11048   0.969   7.742   5.076
  127PMPE  H13S11049   0.850   7.722   4.976
  127PMPE  C21411050   0.774   7.738   5.196
  127PMPE  H14R11051   0.806   7.651   5.248
  127PMPE  H14S11052   0.669   7.725   5.165
  127PMPE  C21511053   0.815   7.734   5.342
  127PMPE  H15R11054   0.763   7.656   5.414
  127PMPE  H15S11055   0.773   7.835   5.349
  127PMPE  C21611056   0.960   7.722   5.376
  127PMPE  H16R11057   0.965   7.739   5.485
  127PMPE  H16S11058   1.008   7.623   5.358
  127PMPE  H16T11059   1.011   7.799   5.315
  127PMPE   C3311060   0.639   7.834   4.464
  127PMPE   H3X11061   0.743   7.871   4.458
  127PMPE   H3Y11062   0.612   7.814   4.571
  127PMPE   C3411063   0.548   7.941   4.410
  127PMPE   H4X11064   0.455   7.893   4.449
  127PMPE   H4Y11065   0.539   7.951   4.301
  127PMPE   C3511066   0.565   8.082   4.465
  127PMPE   H5X11067   0.495   8.153   4.412
  127PMPE   H5Y11068   0.665   8.126   4.449
  127PMPE   C3611069   0.524   8.074   4.609
  127PMPE   H6X11070   0.601   8.024   4.671
  127PMPE   H6Y11071   0.428   8.024   4.624
  127PMPE   C3711072   0.495   8.206   4.658
  127PMPE   H7X11073   0.436   8.272   4.591
  127PMPE   H7Y11074   0.597   8.243   4.671
  127PMPE   C3811075   0.458   8.210   4.795
  127PMPE   H8X11076   0.382   8.142   4.833
  127PMPE   H8Y11077   0.432   8.318   4.809
  127PMPE   C3911078   0.571   8.156   4.867
  127PMPE   H9X11079   0.657   8.214   4.838
  127PMPE   H9Y11080   0.580   8.051   4.893
  127PMPE  C31011081   0.543   8.180   4.994
  127PMPE  H10X11082   0.447   8.237   5.002
  127PMPE  H10Y11083   0.531   8.293   4.973
  127PMPE  C31111084   0.648   8.101   5.121
  127PMPE  H11X11085   0.615   7.997   5.122
  127PMPE  H11Y11086   0.615   8.120   5.224
  127PMPE  C31211087   0.793   8.154   5.210
  127PMPE  H12X11088   0.846   8.147   5.113
  127PMPE  H12Y11089   0.788   8.087   5.296
  127PMPE  C31311090   0.840   8.304   5.276
  127PMPE  H13X11091   0.767   8.372   5.322
  127PMPE  H13Y11092   0.867   8.379   5.202
  127PMPE  C31411093   0.918   8.350   5.380
  127PMPE  H14X11094   0.885   8.308   5.471
  127PMPE  H14Y11095   0.908   8.460   5.406
  127PMPE  C31511096   1.031   8.314   5.298
  127PMPE  H15X11097   1.049   8.360   5.199
  127PMPE  H15Y11098   1.027   8.213   5.251
  127PMPE  C31611099   1.124   8.354   5.402
  127PMPE  H16X11100   1.220   8.344   5.352
  127PMPE  H16Y11101   1.092   8.285   5.480
  127PMPE  H16Z11102   1.129   8.457   5.437
  128PMPE     N11103  -0.205   7.510   3.631
  128PMPE   HN111104  -0.252   7.430   3.680
  128PMPE   HN211105  -0.134   7.553   3.694
  128PMPE   HN311106  -0.274   7.582   3.599
  128PMPE   C1211107  -0.133   7.456   3.511
  128PMPE  H12A11108  -0.198   7.482   3.429
  128PMPE  H12B11109  -0.128   7.346   3.514
  128PMPE   C1111110   0.005   7.519   3.493
  128PMPE  H11A11111  -0.001   7.631   3.488
  128PMPE  H11B11112   0.051   7.484   3.398
  128PMPE     P11113   0.234   7.529   3.616
  128PMPE   O1311114   0.251   7.618   3.500
  128PMPE   O1411115   0.325   7.416   3.641
  128PMPE   O1111116   0.219   7.615   3.747
  128PMPE   O1211117   0.083   7.478   3.604
  128PMPE    C111118   0.120   7.716   3.761
  128PMPE    HA11119   0.019   7.673   3.742
  128PMPE    HB11120   0.138   7.799   3.689
  128PMPE    C211121   0.119   7.772   3.905
  128PMPE    HS11122   0.211   7.837   3.912
  128PMPE   O2111123   0.116   7.668   4.007
  128PMPE   C2111124   0.232   7.623   4.050
  128PMPE   O2211125   0.341   7.659   4.012
  128PMPE   C2211126   0.216   7.521   4.162
  128PMPE   H2R11127   0.317   7.496   4.200
  128PMPE   H2S11128   0.174   7.432   4.113
  128PMPE    C311129  -0.009   7.856   3.931
  128PMPE    HX11130  -0.095   7.789   3.920
  128PMPE    HY11131  -0.023   7.938   3.855
  128PMPE   O3111132  -0.020   7.897   4.069
  128PMPE   C3111133   0.062   7.993   4.079
  128PMPE   O3211134   0.122   8.043   3.988
  128PMPE   C3211135   0.078   8.032   4.219
  128PMPE   H2X11136  -0.001   7.999   4.289
  128PMPE   H2Y11137   0.061   8.138   4.200
  128PMPE   C2311138   0.132   7.571   4.283
  128PMPE   H3R11139   0.025   7.582   4.252
  128PMPE   H3S11140   0.169   7.667   4.321
  128PMPE   C2411141   0.132   7.473   4.400
  128PMPE   H4R11142   0.145   7.376   4.348
  128PMPE   H4S11143   0.037   7.485   4.458
  128PMPE   C2511144   0.245   7.472   4.499
  128PMPE   H5R11145   0.257   7.572   4.542
  128PMPE   H5S11146   0.337   7.438   4.445
  128PMPE   C2611147   0.216   7.378   4.616
  128PMPE   H6R11148   0.303   7.381   4.686
  128PMPE   H6S11149   0.196   7.275   4.581
  128PMPE   C2711150   0.109   7.419   4.713
  128PMPE   H7R11151   0.011   7.411   4.662
  128PMPE   H7S11152   0.131   7.523   4.740
  128PMPE   C2811153   0.119   7.352   4.849
  128PMPE   H8R11154   0.060   7.413   4.918
  128PMPE   H8S11155   0.219   7.330   4.891
  128PMPE   C2911156   0.049   7.229   4.840
  128PMPE   H9R11157   0.078   7.148   4.768
  128PMPE  C21711158  -0.096   7.278   4.821
  128PMPE  H17R11159  -0.111   7.239   4.724
  128PMPE  H17S11160  -0.179   7.304   4.882
  128PMPE  C21011161  -0.048   7.199   4.939
  128PMPE  H10R11162  -0.035   7.094   4.924
  128PMPE  C21111163  -0.069   7.268   5.078
  128PMPE  H11R11164  -0.039   7.372   5.074
  128PMPE  H11S11165   0.005   7.235   5.153
  128PMPE  C21211166  -0.213   7.251   5.141
  128PMPE  H12R11167  -0.255   7.157   5.188
  128PMPE  H12S11168  -0.292   7.274   5.069
  128PMPE  C21311169  -0.220   7.311   5.272
  128PMPE  H13R11170  -0.331   7.322   5.284
  128PMPE  H13S11171  -0.166   7.404   5.262
  128PMPE  C21411172  -0.146   7.233   5.379
  128PMPE  H14R11173  -0.122   7.130   5.387
  128PMPE  H14S11174  -0.236   7.204   5.410
  128PMPE  C21511175  -0.135   7.303   5.505
  128PMPE  H15R11176  -0.060   7.372   5.460
  128PMPE  H15S11177  -0.110   7.251   5.600
  128PMPE  C21611178  -0.257   7.370   5.540
  128PMPE  H16R11179  -0.197   7.462   5.531
  128PMPE  H16S11180  -0.340   7.392   5.472
  128PMPE  H16T11181  -0.292   7.348   5.645
  128PMPE   C3311182   0.220   7.984   4.257
  128PMPE   H3X11183   0.294   8.049   4.203
  128PMPE   H3Y11184   0.236   7.879   4.232
  128PMPE   C3411185   0.248   7.991   4.406
  128PMPE   H4X11186   0.211   8.086   4.420
  128PMPE   H4Y11187   0.341   8.033   4.431
  128PMPE   C3511188   0.185   7.896   4.510
  128PMPE   H5X11189   0.191   7.795   4.467
  128PMPE   H5Y11190   0.079   7.930   4.520
  128PMPE   C3611191   0.237   7.883   4.657
  128PMPE   H6X11192   0.247   7.977   4.707
  128PMPE   H6Y11193   0.339   7.843   4.667
  128PMPE   C3711194   0.137   7.809   4.747
  128PMPE   H7X11195   0.134   7.709   4.702
  128PMPE   H7Y11196   0.037   7.857   4.738
  128PMPE   C3811197   0.178   7.793   4.895
  128PMPE   H8X11198   0.207   7.889   4.943
  128PMPE   H8Y11199   0.264   7.723   4.898
  128PMPE   C3911200   0.070   7.734   4.983
  128PMPE   H9X11201   0.115   7.669   5.062
  128PMPE   H9Y11202   0.001   7.670   4.923
  128PMPE  C31011203  -0.008   7.847   5.049
  128PMPE  H10X11204  -0.047   7.913   4.969
  128PMPE  H10Y11205   0.052   7.909   5.119
  128PMPE  C31111206  -0.129   7.792   5.116
  128PMPE  H11X11207  -0.163   7.696   5.072
  128PMPE  H11Y11208  -0.212   7.867   5.110
  128PMPE  C31211209  -0.104   7.764   5.260
  128PMPE  H12X11210  -0.214   7.762   5.276
  128PMPE  H12Y11211  -0.057   7.847   5.318
  128PMPE  C31311212  -0.061   7.623   5.300
  128PMPE  H13X11213  -0.036   7.567   5.208
  128PMPE  H13Y11214  -0.144   7.571   5.354
  128PMPE  C31411215   0.062   7.615   5.387
  128PMPE  H14X11216   0.148   7.652   5.326
  128PMPE  H14Y11217   0.076   7.508   5.401
  128PMPE  C31511218   0.056   7.694   5.517
  128PMPE  H15X11219  -0.034   7.670   5.577
  128PMPE  H15Y11220   0.052   7.801   5.487
  128PMPE  C31611221   0.178   7.678   5.606
  128PMPE  H16X11222   0.269   7.710   5.550
  128PMPE  H16Y11223   0.191   7.575   5.643
  128PMPE  H16Z11224   0.166   7.746   5.694
  129OYPE     N11225   4.898   5.440   7.496
  129OYPE   HN111226   4.916   5.377   7.577
  129OYPE   HN211227   4.833   5.399   7.426
  129OYPE   HN311228   4.991   5.464   7.453
  129OYPE   C1211229   4.833   5.568   7.541
  129OYPE  H12A11230   4.908   5.625   7.600
  129OYPE  H12B11231   4.745   5.544   7.604
  129OYPE   C1111232   4.796   5.654   7.420
  129OYPE  H11A11233   4.893   5.681   7.372
  129OYPE  H11B11234   4.749   5.750   7.447
  129OYPE     P11235   4.559   5.564   7.337
  129OYPE   O1311236   4.493   5.670   7.260
  129OYPE   O1411237   4.534   5.550   7.482
  129OYPE   O1111238   4.541   5.421   7.270
  129OYPE   O1211239   4.716   5.582   7.327
  129OYPE    C111240   4.635   5.315   7.271
  129OYPE    HA11241   4.581   5.218   7.263
  129OYPE    HB11242   4.697   5.316   7.364
  129OYPE    C211243   4.728   5.315   7.149
  129OYPE    HS11244   4.810   5.243   7.180
  129OYPE   O2111245   4.759   5.449   7.115
  129OYPE   C2111246   4.883   5.470   7.119
  129OYPE   O2211247   4.960   5.385   7.166
  129OYPE   C2211248   4.901   5.624   7.080
  129OYPE   H2R11249   4.934   5.660   7.180
  129OYPE   H2S11250   4.807   5.679   7.073
  129OYPE    C311251   4.674   5.256   7.020
  129OYPE    HX11252   4.643   5.153   7.043
  129OYPE    HY11253   4.754   5.255   6.942
  129OYPE   O3111254   4.560   5.329   6.977
  129OYPE   C3111255   4.582   5.436   6.905
  129OYPE   O3211256   4.687   5.473   6.854
  129OYPE   C3211257   4.444   5.492   6.882
  129OYPE   H2X11258   4.385   5.423   6.818
  129OYPE   H2Y11259   4.395   5.516   6.978
  129OYPE   C2311260   4.998   5.682   6.970
  129OYPE   H3R11261   5.076   5.618   6.934
  129OYPE   H3S11262   5.050   5.774   7.001
  129OYPE   C2411263   4.940   5.708   6.837
  129OYPE   H4R11264   4.848   5.766   6.853
  129OYPE   H4S11265   4.918   5.607   6.794
  129OYPE   C2511266   5.028   5.795   6.748
  129OYPE   H5R11267   5.133   5.772   6.729
  129OYPE   H5S11268   5.063   5.891   6.788
  129OYPE   C2611269   4.944   5.804   6.623
  129OYPE   H6R11270   4.862   5.873   6.639
  129OYPE   H6S11271   4.898   5.706   6.593
  129OYPE   C2711272   5.024   5.857   6.512
  129OYPE   H7R11273   5.068   5.768   6.482
  129OYPE   H7S11274   5.119   5.905   6.544
  129OYPE   C2811275   4.949   5.880   6.379
  129OYPE   H8R11276   5.022   5.917   6.311
  129OYPE   H8S11277   4.893   5.974   6.397
  129OYPE   C2911278   4.888   5.757   6.305
  129OYPE   H9R11279   4.791   5.744   6.346
  129OYPE  C21011280   4.926   5.659   6.211
  129OYPE  H10R11281   4.861   5.572   6.200
  129OYPE  C21111282   5.048   5.617   6.126
  129OYPE  H11R11283   5.098   5.521   6.153
  129OYPE  H11S11284   5.138   5.658   6.151
  129OYPE  C21211285   5.057   5.670   5.983
  129OYPE  H12R11286   5.000   5.598   5.925
  129OYPE  H12S11287   5.161   5.664   5.941
  129OYPE  C21311288   5.004   5.812   5.960
  129OYPE  H13R11289   5.058   5.896   6.000
  129OYPE  H13S11290   4.916   5.847   6.016
  129OYPE  C21411291   5.007   5.832   5.812
  129OYPE  H14R11292   4.958   5.744   5.768
  129OYPE  H14S11293   5.107   5.835   5.766
  129OYPE  C21511294   4.938   5.958   5.780
  129OYPE  H15R11295   4.988   6.046   5.826
  129OYPE  H15S11296   4.847   5.932   5.836
  129OYPE  C21611297   4.919   5.967   5.631
  129OYPE  H16R11298   4.864   5.874   5.604
  129OYPE  H16S11299   5.019   5.975   5.585
  129OYPE  H16T11300   4.862   6.052   5.590
  129OYPE   C3311301   4.446   5.615   6.801
  129OYPE   H3X11302   4.508   5.600   6.711
  129OYPE   H3Y11303   4.502   5.687   6.856
  129OYPE   C3411304   4.299   5.652   6.784
  129OYPE   H4X11305   4.244   5.579   6.722
  129OYPE   H4Y11306   4.249   5.677   6.882
  129OYPE   C3511307   4.280   5.764   6.693
  129OYPE   H5X11308   4.276   5.834   6.775
  129OYPE   H5Y11309   4.178   5.800   6.671
  129OYPE   C3611310   4.397   5.766   6.589
  129OYPE   H6X11311   4.454   5.858   6.569
  129OYPE   H6Y11312   4.502   5.752   6.616
  129OYPE   C3711313   4.345   5.703   6.465
  129OYPE   H7X11314   4.323   5.602   6.503
  129OYPE   H7Y11315   4.247   5.749   6.438
  129OYPE   C3811316   4.445   5.707   6.350
  129OYPE   H8X11317   4.402   5.640   6.274
  129OYPE   H8Y11318   4.456   5.808   6.303
  129OYPE   C3911319   4.579   5.663   6.400
  129OYPE   H9X11320   4.637   5.743   6.451
  129OYPE  C31011321   4.632   5.540   6.398
  129OYPE  H10X11322   4.730   5.526   6.446
  129OYPE  C31111323   4.566   5.416   6.344
  129OYPE  H11X11324   4.574   5.337   6.421
  129OYPE  H11Y11325   4.458   5.433   6.324
  129OYPE  C31211326   4.623   5.363   6.211
  129OYPE  H12X11327   4.593   5.256   6.200
  129OYPE  H12Y11328   4.734   5.366   6.212
  129OYPE  C31311329   4.565   5.438   6.090
  129OYPE  H13X11330   4.454   5.434   6.095
  129OYPE  H13Y11331   4.596   5.545   6.090
  129OYPE  C31411332   4.610   5.375   5.959
  129OYPE  H14X11333   4.555   5.421   5.874
  129OYPE  H14Y11334   4.588   5.266   5.959
  129OYPE  C31511335   4.758   5.399   5.931
  129OYPE  H15X11336   4.820   5.379   6.021
  129OYPE  H15Y11337   4.770   5.506   5.902
  129OYPE  C31611338   4.805   5.311   5.818
  129OYPE  H16X11339   4.745   5.331   5.727
  129OYPE  H16Y11340   4.791   5.203   5.845
  129OYPE  C31711341   4.951   5.337   5.787
  129OYPE  H17X11342   5.014   5.291   5.868
  129OYPE  H17Y11343   4.974   5.445   5.776
  129OYPE  C31811344   4.982   5.270   5.660
  129OYPE  H18X11345   4.941   5.167   5.675
  129OYPE  H18Y11346   4.935   5.309   5.567
  129OYPE  H18Z11347   5.091   5.265   5.640
  130OYPE     N11348   2.637   6.748   7.584
  130OYPE   HN111349   2.545   6.778   7.618
  130OYPE   HN211350   2.644   6.645   7.562
  130OYPE   HN311351   2.711   6.771   7.652
  130OYPE   C1211352   2.679   6.826   7.464
  130OYPE  H12A11353   2.649   6.932   7.474
  130OYPE  H12B11354   2.631   6.780   7.376
  130OYPE   C1111355   2.826   6.805   7.451
  130OYPE  H11A11356   2.890   6.849   7.531
  130OYPE  H11B11357   2.857   6.863   7.360
  130OYPE     P11358   2.952   6.615   7.343
  130OYPE   O1311359   3.006   6.484   7.381
  130OYPE   O1411360   3.031   6.737   7.348
  130OYPE   O1111361   2.869   6.607   7.209
  130OYPE   O1211362   2.843   6.661   7.445
  130OYPE    C111363   2.748   6.534   7.221
  130OYPE    HA11364   2.688   6.571   7.307
  130OYPE    HB11365   2.768   6.426   7.237
  130OYPE    C211366   2.656   6.558   7.099
  130OYPE    HS11367   2.574   6.485   7.101
  130OYPE   O2111368   2.723   6.552   6.972
  130OYPE   C2111369   2.780   6.437   6.956
  130OYPE   O2211370   2.781   6.343   7.033
  130OYPE   C2211371   2.839   6.432   6.822
  130OYPE   H2R11372   2.841   6.528   6.765
  130OYPE   H2S11373   2.800   6.355   6.751
  130OYPE    C311374   2.597   6.697   7.118
  130OYPE    HX11375   2.543   6.706   7.213
  130OYPE    HY11376   2.522   6.735   7.052
  130OYPE   O3111377   2.702   6.784   7.111
  130OYPE   C3111378   2.661   6.901   7.140
  130OYPE   O3211379   2.546   6.941   7.150
  130OYPE   C3211380   2.781   6.973   7.157
  130OYPE   H2X11381   2.766   7.072   7.209
  130OYPE   H2Y11382   2.878   6.921   7.174
  130OYPE   C2311383   2.974   6.389   6.859
  130OYPE   H3R11384   3.000   6.293   6.911
  130OYPE   H3S11385   3.020   6.471   6.920
  130OYPE   C2411386   3.010   6.379   6.717
  130OYPE   H4R11387   3.098   6.328   6.749
  130OYPE   H4S11388   3.032   6.479   6.676
  130OYPE   C2511389   3.024   6.257   6.636
  130OYPE   H5R11390   2.945   6.256   6.562
  130OYPE   H5S11391   2.967   6.171   6.676
  130OYPE   C2611392   3.158   6.282   6.555
  130OYPE   H6R11393   3.262   6.258   6.579
  130OYPE   H6S11394   3.165   6.385   6.522
  130OYPE   C2711395   3.136   6.268   6.417
  130OYPE   H7R11396   3.040   6.333   6.401
  130OYPE   H7S11397   3.077   6.185   6.446
  130OYPE   C2811398   3.262   6.214   6.334
  130OYPE   H8R11399   3.300   6.126   6.273
  130OYPE   H8S11400   3.354   6.211   6.390
  130OYPE   C2911401   3.237   6.281   6.219
  130OYPE   H9R11402   3.258   6.374   6.265
  130OYPE  C21011403   3.248   6.257   6.090
  130OYPE  H10R11404   3.190   6.339   6.050
  130OYPE  C21111405   3.288   6.160   5.980
  130OYPE  H11R11406   3.297   6.054   6.019
  130OYPE  H11S11407   3.371   6.167   5.905
  130OYPE  C21211408   3.192   6.230   5.871
  130OYPE  H12R11409   3.102   6.245   5.919
  130OYPE  H12S11410   3.177   6.175   5.782
  130OYPE  C21311411   3.135   6.379   5.841
  130OYPE  H13R11412   3.094   6.447   5.921
  130OYPE  H13S11413   3.051   6.361   5.781
  130OYPE  C21411414   3.195   6.451   5.729
  130OYPE  H14R11415   3.299   6.411   5.738
  130OYPE  H14S11416   3.178   6.560   5.717
  130OYPE  C21511417   3.218   6.390   5.607
  130OYPE  H15R11418   3.242   6.280   5.611
  130OYPE  H15S11419   3.296   6.440   5.554
  130OYPE  C21611420   3.141   6.452   5.508
  130OYPE  H16R11421   3.075   6.383   5.528
  130OYPE  H16S11422   3.158   6.416   5.409
  130OYPE  H16T11423   3.087   6.546   5.515
  130OYPE   C3311424   2.791   6.997   7.016
  130OYPE   H3X11425   2.904   7.023   7.018
  130OYPE   H3Y11426   2.713   7.080   7.010
  130OYPE   C3411427   2.786   6.915   6.891
  130OYPE   H4X11428   2.870   6.948   6.831
  130OYPE   H4Y11429   2.840   6.823   6.907
  130OYPE   C3511430   2.667   6.936   6.794
  130OYPE   H5X11431   2.642   7.039   6.757
  130OYPE   H5Y11432   2.576   6.905   6.849
  130OYPE   C3611433   2.702   6.853   6.672
  130OYPE   H6X11434   2.765   6.897   6.593
  130OYPE   H6Y11435   2.751   6.761   6.709
  130OYPE   C3711436   2.590   6.823   6.583
  130OYPE   H7X11437   2.516   6.789   6.657
  130OYPE   H7Y11438   2.545   6.906   6.532
  130OYPE   C3811439   2.644   6.746   6.461
  130OYPE   H8X11440   2.572   6.698   6.404
  130OYPE   H8Y11441   2.673   6.820   6.384
  130OYPE   C3911442   2.716   6.618   6.479
  130OYPE   H9X11443   2.667   6.535   6.531
  130OYPE  C31011444   2.830   6.589   6.428
  130OYPE  H10X11445   2.876   6.503   6.475
  130OYPE  C31111446   2.906   6.683   6.345
  130OYPE  H11X11447   2.918   6.778   6.400
  130OYPE  H11Y11448   3.004   6.634   6.331
  130OYPE  C31211449   2.849   6.717   6.208
  130OYPE  H12X11450   2.913   6.796   6.163
  130OYPE  H12Y11451   2.746   6.759   6.209
  130OYPE  C31311452   2.857   6.597   6.117
  130OYPE  H13X11453   2.964   6.573   6.097
  130OYPE  H13Y11454   2.811   6.506   6.162
  130OYPE  C31411455   2.789   6.633   5.986
  130OYPE  H14X11456   2.684   6.663   6.002
  130OYPE  H14Y11457   2.782   6.538   5.940
  130OYPE  C31511458   2.874   6.727   5.897
  130OYPE  H15X11459   2.971   6.675   5.879
  130OYPE  H15Y11460   2.885   6.822   5.950
  130OYPE  C31611461   2.819   6.782   5.764
  130OYPE  H16X11462   2.885   6.852   5.710
  130OYPE  H16Y11463   2.711   6.808   5.765
  130OYPE  C31711464   2.820   6.688   5.658
  130OYPE  H17X11465   2.771   6.619   5.730
  130OYPE  H17Y11466   2.917   6.637   5.635
  130OYPE  C31811467   2.729   6.739   5.541
  130OYPE  H18X11468   2.777   6.797   5.464
  130OYPE  H18Y11469   2.705   6.651   5.478
  130OYPE  H18Z11470   2.622   6.757   5.558
  131OYPE     N11471   4.658   1.057   7.699
  131OYPE   HN111472   4.762   1.052   7.686
  131OYPE   HN211473   4.630   1.123   7.774
  131OYPE   HN311474   4.619   0.962   7.716
  131OYPE   C1211475   4.608   1.102   7.566
  131OYPE  H12A11476   4.613   1.213   7.564
  131OYPE  H12B11477   4.502   1.071   7.555
  131OYPE   C1111478   4.696   1.033   7.460
  131OYPE  H11A11479   4.669   0.928   7.447
  131OYPE  H11B11480   4.805   1.031   7.485
  131OYPE     P11481   4.752   1.215   7.287
  131OYPE   O1311482   4.761   1.312   7.398
  131OYPE   O1411483   4.694   1.253   7.157
  131OYPE   O1111484   4.895   1.155   7.266
  131OYPE   O1211485   4.672   1.088   7.334
  131OYPE    C111486   4.908   1.057   7.165
  131OYPE    HA11487   4.822   1.045   7.094
  131OYPE    HB11488   4.933   0.958   7.210
  131OYPE    C211489   5.026   1.089   7.080
  131OYPE    HS11490   5.120   1.088   7.141
  131OYPE   O2111491   5.013   1.212   7.006
  131OYPE   C2111492   5.112   1.292   6.992
  131OYPE   O2211493   5.224   1.288   7.039
  131OYPE   C2211494   5.073   1.404   6.899
  131OYPE   H2R11495   5.175   1.435   6.880
  131OYPE   H2S11496   5.021   1.476   6.964
  131OYPE    C311497   5.017   0.969   6.989
  131OYPE    HX11498   5.028   0.867   7.030
  131OYPE    HY11499   5.115   0.991   6.953
  131OYPE   O3111500   4.907   0.986   6.894
  131OYPE   C3111501   4.862   0.875   6.834
  131OYPE   O3211502   4.906   0.764   6.856
  131OYPE   C3211503   4.769   0.909   6.712
  131OYPE   H2X11504   4.759   0.811   6.658
  131OYPE   H2Y11505   4.682   0.958   6.751
  131OYPE   C2311506   4.993   1.376   6.768
  131OYPE   H3R11507   4.903   1.316   6.793
  131OYPE   H3S11508   5.055   1.318   6.696
  131OYPE   C2411509   4.934   1.506   6.709
  131OYPE   H4R11510   5.012   1.570   6.678
  131OYPE   H4S11511   4.885   1.564   6.789
  131OYPE   C2511512   4.849   1.494   6.583
  131OYPE   H5R11513   4.797   1.592   6.567
  131OYPE   H5S11514   4.771   1.418   6.603
  131OYPE   C2611515   4.929   1.450   6.460
  131OYPE   H6R11516   4.986   1.360   6.489
  131OYPE   H6S11517   5.007   1.516   6.420
  131OYPE   C2711518   4.842   1.419   6.339
  131OYPE   H7R11519   4.792   1.512   6.301
  131OYPE   H7S11520   4.764   1.349   6.373
  131OYPE   C2811521   4.926   1.356   6.230
  131OYPE   H8R11522   4.861   1.297   6.162
  131OYPE   H8S11523   4.998   1.284   6.277
  131OYPE   C2911524   4.995   1.460   6.147
  131OYPE   H9R11525   4.972   1.565   6.164
  131OYPE  C21011526   5.090   1.423   6.063
  131OYPE  H10R11527   5.140   1.494   5.994
  131OYPE  C21111528   5.127   1.279   6.054
  131OYPE  H11R11529   5.113   1.216   6.142
  131OYPE  H11S11530   5.232   1.256   6.049
  131OYPE  C21211531   5.062   1.224   5.936
  131OYPE  H12R11532   5.088   1.275   5.840
  131OYPE  H12S11533   4.954   1.211   5.952
  131OYPE  C21311534   5.121   1.091   5.928
  131OYPE  H13R11535   5.142   1.033   6.019
  131OYPE  H13S11536   5.210   1.116   5.883
  131OYPE  C21411537   5.058   1.019   5.822
  131OYPE  H14R11538   4.956   1.011   5.867
  131OYPE  H14S11539   5.104   0.918   5.835
  131OYPE  C21511540   5.051   1.083   5.678
  131OYPE  H15R11541   5.008   1.183   5.685
  131OYPE  H15S11542   4.972   1.050   5.611
  131OYPE  C21611543   5.158   1.066   5.571
  131OYPE  H16R11544   5.229   1.136   5.603
  131OYPE  H16S11545   5.120   1.095   5.470
  131OYPE  H16T11546   5.203   0.964   5.559
  131OYPE   C3311547   4.795   1.024   6.610
  131OYPE   H3X11548   4.841   0.941   6.552
  131OYPE   H3Y11549   4.853   1.114   6.639
  131OYPE   C3411550   4.740   1.073   6.480
  131OYPE   H4X11551   4.665   1.142   6.517
  131OYPE   H4Y11552   4.818   1.133   6.423
  131OYPE   C3511553   4.689   0.959   6.398
  131OYPE   H5X11554   4.643   0.883   6.462
  131OYPE   H5Y11555   4.761   0.894   6.355
  131OYPE   C3611556   4.618   1.018   6.281
  131OYPE   H6X11557   4.532   1.071   6.324
  131OYPE   H6Y11558   4.685   1.093   6.232
  131OYPE   C3711559   4.579   0.909   6.183
  131OYPE   H7X11560   4.647   0.825   6.182
  131OYPE   H7Y11561   4.493   0.856   6.229
  131OYPE   C3811562   4.566   0.961   6.038
  131OYPE   H8X11563   4.661   0.998   6.000
  131OYPE   H8Y11564   4.528   0.874   5.978
  131OYPE   C3911565   4.466   1.070   6.028
  131OYPE   H9X11566   4.377   1.022   6.017
  131OYPE  C31011567   4.451   1.199   6.023
  131OYPE  H10X11568   4.351   1.245   6.039
  131OYPE  C31111569   4.569   1.282   6.025
  131OYPE  H11X11570   4.552   1.363   6.098
  131OYPE  H11Y11571   4.660   1.223   6.051
  131OYPE  C31211572   4.577   1.326   5.880
  131OYPE  H12X11573   4.652   1.406   5.885
  131OYPE  H12Y11574   4.480   1.373   5.850
  131OYPE  C31311575   4.624   1.218   5.779
  131OYPE  H13X11576   4.717   1.168   5.813
  131OYPE  H13Y11577   4.545   1.140   5.762
  131OYPE  C31411578   4.663   1.276   5.644
  131OYPE  H14X11579   4.565   1.301   5.609
  131OYPE  H14Y11580   4.689   1.204   5.565
  131OYPE  C31511581   4.763   1.393   5.655
  131OYPE  H15X11582   4.860   1.346   5.682
  131OYPE  H15Y11583   4.741   1.471   5.729
  131OYPE  C31611584   4.791   1.465   5.527
  131OYPE  H16X11585   4.856   1.553   5.547
  131OYPE  H16Y11586   4.707   1.515   5.472
  131OYPE  C31711587   4.862   1.361   5.444
  131OYPE  H17X11588   4.794   1.294   5.396
  131OYPE  H17Y11589   4.941   1.299   5.487
  131OYPE  C31811590   4.933   1.433   5.347
  131OYPE  H18X11591   4.863   1.522   5.340
  131OYPE  H18Y11592   5.035   1.467   5.369
  131OYPE  H18Z11593   4.948   1.383   5.250
  132OYPE     N11594   4.337  -0.049   7.430
  132OYPE   HN111595   4.431  -0.011   7.460
  132OYPE   HN211596   4.287  -0.079   7.516
  132OYPE   HN311597   4.355  -0.130   7.366
  132OYPE   C1211598   4.274   0.065   7.364
  132OYPE  H12A11599   4.176   0.028   7.326
  132OYPE  H12B11600   4.343   0.089   7.279
  132OYPE   C1111601   4.262   0.176   7.468
  132OYPE  H11A11602   4.349   0.177   7.539
  132OYPE  H11B11603   4.173   0.157   7.534
  132OYPE     P11604   4.377   0.389   7.370
  132OYPE   O1311605   4.434   0.431   7.498
  132OYPE   O1411606   4.335   0.494   7.275
  132OYPE   O1111607   4.472   0.285   7.303
  132OYPE   O1211608   4.246   0.302   7.404
  132OYPE    C111609   4.583   0.337   7.228
  132OYPE    HA11610   4.674   0.348   7.293
  132OYPE    HB11611   4.565   0.434   7.177
  132OYPE    C211612   4.609   0.233   7.122
  132OYPE    HS11613   4.697   0.261   7.058
  132OYPE   O2111614   4.492   0.201   7.041
  132OYPE   C2111615   4.460   0.293   6.956
  132OYPE   O2211616   4.513   0.401   6.941
  132OYPE   C2211617   4.348   0.240   6.865
  132OYPE   H2R11618   4.262   0.216   6.930
  132OYPE   H2S11619   4.383   0.147   6.815
  132OYPE    C311620   4.647   0.105   7.189
  132OYPE    HX11621   4.574   0.066   7.263
  132OYPE    HY11622   4.745   0.120   7.242
  132OYPE   O3111623   4.651   0.025   7.072
  132OYPE   C3111624   4.580  -0.084   7.055
  132OYPE   O3211625   4.498  -0.126   7.136
  132OYPE   C3211626   4.631  -0.154   6.923
  132OYPE   H2X11627   4.740  -0.179   6.915
  132OYPE   H2Y11628   4.589  -0.254   6.905
  132OYPE   C2311629   4.315   0.345   6.758
  132OYPE   H3R11630   4.401   0.350   6.688
  132OYPE   H3S11631   4.307   0.446   6.805
  132OYPE   C2411632   4.184   0.321   6.681
  132OYPE   H4R11633   4.100   0.317   6.754
  132OYPE   H4S11634   4.188   0.223   6.628
  132OYPE   C2511635   4.153   0.431   6.577
  132OYPE   H5R11636   4.143   0.529   6.629
  132OYPE   H5S11637   4.054   0.411   6.531
  132OYPE   C2611638   4.261   0.445   6.468
  132OYPE   H6R11639   4.360   0.468   6.512
  132OYPE   H6S11640   4.234   0.535   6.408
  132OYPE   C2711641   4.277   0.324   6.374
  132OYPE   H7R11642   4.182   0.267   6.370
  132OYPE   H7S11643   4.354   0.255   6.417
  132OYPE   C2811644   4.321   0.364   6.231
  132OYPE   H8R11645   4.354   0.271   6.181
  132OYPE   H8S11646   4.412   0.427   6.237
  132OYPE   C2911647   4.215   0.441   6.154
  132OYPE   H9R11648   4.198   0.540   6.197
  132OYPE  C21011649   4.134   0.406   6.052
  132OYPE  H10R11650   4.052   0.473   6.027
  132OYPE  C21111651   4.119   0.273   5.981
  132OYPE  H11R11652   4.188   0.251   5.899
  132OYPE  H11S11653   4.011   0.260   5.948
  132OYPE  C21211654   4.140   0.155   6.070
  132OYPE  H12R11655   4.081   0.205   6.147
  132OYPE  H12S11656   4.228   0.132   6.130
  132OYPE  C21311657   4.084   0.027   6.005
  132OYPE  H13R11658   3.990   0.036   5.945
  132OYPE  H13S11659   4.042  -0.036   6.079
  132OYPE  C21411660   4.187  -0.052   5.944
  132OYPE  H14R11661   4.205  -0.147   5.997
  132OYPE  H14S11662   4.271   0.015   5.960
  132OYPE  C21511663   4.145  -0.060   5.801
  132OYPE  H15R11664   4.229  -0.104   5.747
  132OYPE  H15S11665   4.098   0.038   5.771
  132OYPE  C21611666   4.036  -0.149   5.777
  132OYPE  H16R11667   3.958  -0.117   5.705
  132OYPE  H16S11668   3.981  -0.141   5.870
  132OYPE  H16T11669   4.061  -0.255   5.776
  132OYPE   C3311670   4.607  -0.052   6.817
  132OYPE   H3X11671   4.679   0.030   6.841
  132OYPE   H3Y11672   4.512  -0.002   6.832
  132OYPE   C3411673   4.618  -0.114   6.678
  132OYPE   H4X11674   4.709  -0.172   6.660
  132OYPE   H4Y11675   4.542  -0.194   6.671
  132OYPE   C3511676   4.606  -0.008   6.568
  132OYPE   H5X11677   4.528   0.062   6.604
  132OYPE   H5Y11678   4.578  -0.060   6.475
  132OYPE   C3611679   4.724   0.080   6.530
  132OYPE   H6X11680   4.754   0.143   6.616
  132OYPE   H6Y11681   4.808   0.023   6.488
  132OYPE   C3711682   4.691   0.186   6.427
  132OYPE   H7X11683   4.582   0.199   6.428
  132OYPE   H7Y11684   4.735   0.283   6.461
  132OYPE   C3811685   4.741   0.149   6.286
  132OYPE   H8X11686   4.719   0.237   6.222
  132OYPE   H8Y11687   4.849   0.129   6.280
  132OYPE   C3911688   4.717   0.014   6.235
  132OYPE   H9X11689   4.746  -0.065   6.306
  132OYPE  C31011690   4.699  -0.018   6.108
  132OYPE  H10X11691   4.682  -0.124   6.089
  132OYPE  C31111692   4.697   0.075   5.988
  132OYPE  H11X11693   4.796   0.124   5.973
  132OYPE  H11Y11694   4.685   0.013   5.897
  132OYPE  C31211695   4.584   0.181   5.989
  132OYPE  H12X11696   4.622   0.274   6.036
  132OYPE  H12Y11697   4.501   0.145   6.055
  132OYPE  C31311698   4.516   0.215   5.854
  132OYPE  H13X11699   4.427   0.278   5.877
  132OYPE  H13Y11700   4.582   0.273   5.787
  132OYPE  C31411701   4.466   0.093   5.776
  132OYPE  H14X11702   4.423   0.021   5.848
  132OYPE  H14Y11703   4.549   0.042   5.723
  132OYPE  C31511704   4.358   0.125   5.672
  132OYPE  H15X11705   4.271   0.170   5.724
  132OYPE  H15Y11706   4.326   0.025   5.636
  132OYPE  C31611707   4.402   0.210   5.552
  132OYPE  H16X11708   4.498   0.171   5.512
  132OYPE  H16Y11709   4.414   0.317   5.580
  132OYPE  C31711710   4.300   0.217   5.440
  132OYPE  H17X11711   4.317   0.132   5.378
  132OYPE  H17Y11712   4.325   0.294   5.365
  132OYPE  C31811713   4.154   0.222   5.486
  132OYPE  H18X11714   4.101   0.288   5.417
  132OYPE  H18Y11715   4.099   0.128   5.479
  132OYPE  H18Z11716   4.140   0.260   5.588
  133OYPE     N11717   7.334   3.240   7.513
  133OYPE   HN111718   7.263   3.194   7.578
  133OYPE   HN211719   7.432   3.231   7.547
  133OYPE   HN311720   7.306   3.339   7.500
  133OYPE   C1211721   7.326   3.173   7.379
  133OYPE  H12A11722   7.370   3.072   7.391
  133OYPE  H12B11723   7.387   3.232   7.307
  133OYPE   C1111724   7.180   3.169   7.329
  133OYPE  H11A11725   7.176   3.144   7.220
  133OYPE  H11B11726   7.136   3.271   7.338
  133OYPE     P11727   7.102   2.925   7.393
  133OYPE   O1311728   6.969   2.863   7.405
  133OYPE   O1411729   7.213   2.875   7.479
  133OYPE   O1111730   7.145   2.915   7.247
  133OYPE   O1211731   7.101   3.082   7.408
  133OYPE    C111732   7.257   2.840   7.217
  133OYPE    HA11733   7.284   2.758   7.289
  133OYPE    HB11734   7.346   2.908   7.220
  133OYPE    C211735   7.235   2.787   7.076
  133OYPE    HS11736   7.329   2.784   7.047
  133OYPE   O2111737   7.155   2.869   6.990
  133OYPE   C2111738   7.229   2.952   6.917
  133OYPE   O2211739   7.347   2.956   6.911
  133OYPE   C2211740   7.162   3.056   6.844
  133OYPE   H2R11741   7.243   3.129   6.815
  133OYPE   H2S11742   7.096   3.097   6.922
  133OYPE    C311743   7.178   2.645   7.063
  133OYPE    HX11744   7.073   2.636   7.087
  133OYPE    HY11745   7.213   2.580   7.140
  133OYPE   O3111746   7.217   2.578   6.941
  133OYPE   C3111747   7.115   2.583   6.856
  133OYPE   O3211748   7.025   2.663   6.863
  133OYPE   C3211749   7.133   2.487   6.737
  133OYPE   H2X11750   7.192   2.402   6.756
  133OYPE   H2Y11751   7.064   2.500   6.651
  133OYPE   C2311752   7.104   2.992   6.720
  133OYPE   H3R11753   7.013   2.936   6.750
  133OYPE   H3S11754   7.175   2.926   6.665
  133OYPE   C2411755   7.076   3.094   6.614
  133OYPE   H4R11756   7.167   3.130   6.563
  133OYPE   H4S11757   7.033   3.179   6.672
  133OYPE   C2511758   6.974   3.036   6.516
  133OYPE   H5R11759   6.945   3.114   6.442
  133OYPE   H5S11760   6.889   3.005   6.583
  133OYPE   C2611761   6.993   2.915   6.432
  133OYPE   H6R11762   6.888   2.880   6.406
  133OYPE   H6S11763   7.044   2.836   6.489
  133OYPE   C2711764   7.057   2.954   6.301
  133OYPE   H7R11765   7.161   2.987   6.316
  133OYPE   H7S11766   7.001   3.041   6.256
  133OYPE   C2811767   7.032   2.850   6.196
  133OYPE   H8R11768   7.058   2.899   6.101
  133OYPE   H8S11769   6.926   2.822   6.195
  133OYPE   C2911770   7.068   2.710   6.195
  133OYPE   H9R11771   7.107   2.675   6.295
  133OYPE  C21011772   7.137   2.669   6.088
  133OYPE  H10R11773   7.164   2.566   6.110
  133OYPE  C21111774   7.198   2.732   5.957
  133OYPE  H11R11775   7.155   2.829   5.947
  133OYPE  H11S11776   7.175   2.654   5.883
  133OYPE  C21211777   7.345   2.771   5.889
  133OYPE  H12R11778   7.374   2.784   5.787
  133OYPE  H12S11779   7.396   2.682   5.896
  133OYPE  C21311780   7.447   2.858   5.951
  133OYPE  H13R11781   7.440   2.788   6.032
  133OYPE  H13S11782   7.401   2.948   5.991
  133OYPE  C21411783   7.600   2.842   5.943
  133OYPE  H14R11784   7.650   2.782   6.012
  133OYPE  H14S11785   7.664   2.884   6.022
  133OYPE  C21511786   7.672   2.873   5.824
  133OYPE  H15R11787   7.682   2.771   5.806
  133OYPE  H15S11788   7.770   2.917   5.852
  133OYPE  C21611789   7.611   2.934   5.704
  133OYPE  H16R11790   7.501   2.939   5.706
  133OYPE  H16S11791   7.656   2.902   5.611
  133OYPE  H16T11792   7.645   3.029   5.696
  133OYPE   C3311793   7.251   2.530   6.670
  133OYPE   H3X11794   7.317   2.531   6.754
  133OYPE   H3Y11795   7.203   2.635   6.658
  133OYPE   C3411796   7.374   2.461   6.574
  133OYPE   H4X11797   7.398   2.363   6.590
  133OYPE   H4Y11798   7.283   2.462   6.513
  133OYPE   C3511799   7.535   2.533   6.514
  133OYPE   H5X11800   7.539   2.460   6.452
  133OYPE   H5Y11801   7.629   2.529   6.570
  133OYPE   C3611802   7.563   2.699   6.456
  133OYPE   H6X11803   7.606   2.682   6.354
  133OYPE   H6Y11804   7.505   2.727   6.388
  133OYPE   C3711805   7.496   2.880   6.537
  133OYPE   H7X11806   7.431   2.895   6.612
  133OYPE   H7Y11807   7.574   2.940   6.540
  133OYPE   C3811808   7.445   3.039   6.510
  133OYPE   H8X11809   7.342   3.037   6.468
  133OYPE   H8Y11810   7.441   3.091   6.610
  133OYPE   C3911811   7.546   3.144   6.464
  133OYPE   H9X11812   7.641   3.092   6.457
  133OYPE  C31011813   7.523   3.233   6.371
  133OYPE  H10X11814   7.540   3.202   6.271
  133OYPE  C31111815   7.401   3.242   6.305
  133OYPE  H11X11816   7.346   3.237   6.396
  133OYPE  H11Y11817   7.435   3.340   6.277
  133OYPE  C31211818   7.345   3.165   6.175
  133OYPE  H12X11819   7.259   3.168   6.247
  133OYPE  H12Y11820   7.310   3.063   6.154
  133OYPE  C31311821   7.381   3.237   6.034
  133OYPE  H13X11822   7.414   3.345   6.021
  133OYPE  H13Y11823   7.407   3.157   5.971
  133OYPE  C31411824   7.304   3.235   5.905
  133OYPE  H14X11825   7.323   3.324   5.832
  133OYPE  H14Y11826   7.253   3.343   5.895
  133OYPE  C31511827   7.230   3.063   5.865
  133OYPE  H15X11828   7.226   3.010   5.962
  133OYPE  H15Y11829   7.284   3.010   5.786
  133OYPE  C31611830   7.066   3.004   5.801
  133OYPE  H16X11831   7.011   3.065   5.726
  133OYPE  H16Y11832   6.967   3.028   5.851
  133OYPE  C31711833   7.055   2.897   5.694
  133OYPE  H17X11834   7.068   2.821   5.768
  133OYPE  H17Y11835   7.136   2.937   5.626
  133OYPE  C31811836   6.921   2.874   5.620
  133OYPE  H18X11837   6.825   2.910   5.663
  133OYPE  H18Y11838   6.953   2.960   5.573
  133OYPE  H18Z11839   6.908   2.835   5.518
  134OYPE     N11840   2.432   0.936   7.222
  134OYPE   HN111841   2.453   1.001   7.145
  134OYPE   HN211842   2.364   0.973   7.293
  134OYPE   HN311843   2.519   0.907   7.270
  134OYPE   C1211844   2.373   0.806   7.172
  134OYPE  H12A11845   2.443   0.757   7.105
  134OYPE  H12B11846   2.282   0.825   7.113
  134OYPE   C1111847   2.348   0.711   7.288
  134OYPE  H11A11848   2.443   0.683   7.340
  134OYPE  H11B11849   2.305   0.617   7.246
  134OYPE     P11850   2.199   0.709   7.503
  134OYPE   O1311851   2.087   0.792   7.553
  134OYPE   O1411852   2.308   0.669   7.595
  134OYPE   O1111853   2.131   0.582   7.435
  134OYPE   O1211854   2.263   0.782   7.378
  134OYPE    C111855   2.046   0.597   7.320
  134OYPE    HA11856   2.097   0.654   7.239
  134OYPE    HB11857   1.953   0.650   7.347
  134OYPE    C211858   2.006   0.459   7.261
  134OYPE    HS11859   1.962   0.398   7.343
  134OYPE   O2111860   2.126   0.399   7.216
  134OYPE   C2111861   2.119   0.279   7.167
  134OYPE   O2211862   2.027   0.201   7.165
  134OYPE   C2211863   2.253   0.261   7.106
  134OYPE   H2R11864   2.260   0.162   7.071
  134OYPE   H2S11865   2.336   0.279   7.177
  134OYPE    C311866   1.905   0.472   7.145
  134OYPE    HX11867   1.820   0.533   7.181
  134OYPE    HY11868   1.865   0.371   7.116
  134OYPE   O3111869   1.971   0.538   7.037
  134OYPE   C3111870   1.908   0.535   6.924
  134OYPE   O3211871   1.793   0.499   6.904
  134OYPE   C3211872   2.006   0.590   6.825
  134OYPE   H2X11873   2.006   0.700   6.823
  134OYPE   H2Y11874   2.108   0.548   6.844
  134OYPE   C2311875   2.277   0.336   6.981
  134OYPE   H3R11876   2.326   0.429   7.015
  134OYPE   H3S11877   2.182   0.351   6.925
  134OYPE   C2411878   2.371   0.259   6.894
  134OYPE   H4R11879   2.357   0.154   6.873
  134OYPE   H4S11880   2.465   0.253   6.949
  134OYPE   C2511881   2.363   0.323   6.761
  134OYPE   H5R11882   2.396   0.428   6.774
  134OYPE   H5S11883   2.263   0.322   6.714
  134OYPE   C2611884   2.452   0.266   6.665
  134OYPE   H6R11885   2.447   0.173   6.612
  134OYPE   H6S11886   2.550   0.257   6.711
  134OYPE   C2711887   2.448   0.365   6.559
  134OYPE   H7R11888   2.532   0.308   6.545
  134OYPE   H7S11889   2.490   0.457   6.591
  134OYPE   C2811890   2.386   0.351   6.426
  134OYPE   H8R11891   2.348   0.409   6.349
  134OYPE   H8S11892   2.281   0.344   6.463
  134OYPE   C2911893   2.487   0.266   6.348
  134OYPE   H9R11894   2.504   0.173   6.416
  134OYPE  C21011895   2.495   0.249   6.223
  134OYPE  H10R11896   2.480   0.158   6.255
  134OYPE  C21111897   2.422   0.288   6.103
  134OYPE  H11R11898   2.522   0.305   6.066
  134OYPE  H11S11899   2.344   0.358   6.144
  134OYPE  C21211900   2.354   0.220   5.976
  134OYPE  H12R11901   2.407   0.147   5.914
  134OYPE  H12S11902   2.337   0.307   5.911
  134OYPE  C21311903   2.217   0.160   5.978
  134OYPE  H13R11904   2.148   0.206   6.050
  134OYPE  H13S11905   2.191   0.057   5.977
  134OYPE  C21411906   2.165   0.192   5.864
  134OYPE  H14R11907   2.154   0.301   5.895
  134OYPE  H14S11908   2.075   0.135   5.867
  134OYPE  C21511909   2.153   0.123   5.736
  134OYPE  H15R11910   2.219   0.048   5.715
  134OYPE  H15S11911   2.210   0.213   5.720
  134OYPE  C21611912   2.013   0.100   5.672
  134OYPE  H16R11913   1.935   0.026   5.693
  134OYPE  H16S11914   2.003   0.128   5.568
  134OYPE  H16T11915   1.928   0.125   5.738
  134OYPE   C3311916   1.968   0.545   6.690
  134OYPE   H3X11917   1.859   0.550   6.669
  134OYPE   H3Y11918   2.003   0.439   6.688
  134OYPE   C3411919   2.038   0.627   6.588
  134OYPE   H4X11920   2.062   0.542   6.521
  134OYPE   H4Y11921   1.970   0.704   6.544
  134OYPE   C3511922   2.178   0.679   6.613
  134OYPE   H5X11923   2.239   0.589   6.639
  134OYPE   H5Y11924   2.173   0.749   6.698
  134OYPE   C3611925   2.244   0.752   6.497
  134OYPE   H6X11926   2.200   0.849   6.470
  134OYPE   H6Y11927   2.352   0.768   6.525
  134OYPE   C3711928   2.256   0.676   6.370
  134OYPE   H7X11929   2.304   0.582   6.402
  134OYPE   H7Y11930   2.180   0.631   6.309
  134OYPE   C3811931   2.318   0.767   6.262
  134OYPE   H8X11932   2.426   0.778   6.294
  134OYPE   H8Y11933   2.303   0.697   6.178
  134OYPE   C3911934   2.266   0.888   6.193
  134OYPE   H9X11935   2.242   0.965   6.264
  134OYPE  C31011936   2.247   0.909   6.060
  134OYPE  H10X11937   2.208   1.001   6.019
  134OYPE  C31111938   2.271   0.821   5.944
  134OYPE  H11X11939   2.269   0.723   5.995
  134OYPE  H11Y11940   2.187   0.804   5.874
  134OYPE  C31211941   2.395   0.864   5.856
  134OYPE  H12X11942   2.442   0.802   5.777
  134OYPE  H12Y11943   2.486   0.876   5.917
  134OYPE  C31311944   2.359   0.957   5.744
  134OYPE  H13X11945   2.296   1.028   5.797
  134OYPE  H13Y11946   2.458   0.999   5.710
  134OYPE  C31411947   2.285   0.894   5.622
  134OYPE  H14X11948   2.207   0.968   5.592
  134OYPE  H14Y11949   2.225   0.803   5.642
  134OYPE  C31511950   2.383   0.875   5.505
  134OYPE  H15X11951   2.454   0.790   5.519
  134OYPE  H15Y11952   2.433   0.971   5.501
  134OYPE  C31611953   2.322   0.861   5.369
  134OYPE  H16X11954   2.246   0.939   5.348
  134OYPE  H16Y11955   2.280   0.762   5.392
  134OYPE  C31711956   2.413   0.846   5.246
  134OYPE  H17X11957   2.492   0.920   5.249
  134OYPE  H17Y11958   2.354   0.864   5.153
  134OYPE  C31811959   2.476   0.709   5.238
  134OYPE  H18X11960   2.519   0.689   5.138
  134OYPE  H18Y11961   2.547   0.689   5.319
  134OYPE  H18Z11962   2.393   0.639   5.256
  135OYPE     N11963   7.641   6.703   7.620
  135OYPE   HN111964   7.724   6.761   7.649
  135OYPE   HN211965   7.587   6.671   7.703
  135OYPE   HN311966   7.675   6.621   7.567
  135OYPE   C1211967   7.549   6.778   7.529
  135OYPE  H12A11968   7.609   6.818   7.444
  135OYPE  H12B11969   7.504   6.862   7.584
  135OYPE   C1111970   7.438   6.682   7.487
  135OYPE  H11A11971   7.386   6.650   7.581
  135OYPE  H11B11972   7.475   6.591   7.435
  135OYPE     P11973   7.248   6.677   7.306
  135OYPE   O1311974   7.140   6.770   7.265
  135OYPE   O1411975   7.212   6.548   7.368
  135OYPE   O1111976   7.345   6.640   7.185
  135OYPE   O1211977   7.347   6.754   7.406
  135OYPE    C111978   7.445   6.726   7.140
  135OYPE    HA11979   7.536   6.672   7.102
  135OYPE    HB11980   7.482   6.796   7.220
  135OYPE    C211981   7.391   6.802   7.020
  135OYPE    HS11982   7.307   6.870   7.052
  135OYPE   O2111983   7.365   6.725   6.905
  135OYPE   C2111984   7.294   6.783   6.811
  135OYPE   O2211985   7.222   6.880   6.817
  135OYPE   C2211986   7.304   6.697   6.693
  135OYPE   H2R11987   7.243   6.614   6.734
  135OYPE   H2S11988   7.408   6.663   6.674
  135OYPE    C311989   7.495   6.886   6.986
  135OYPE    HX11990   7.591   6.831   6.967
  135OYPE    HY11991   7.539   6.912   7.085
  135OYPE   O3111992   7.450   6.988   6.885
  135OYPE   C3111993   7.359   7.088   6.897
  135OYPE   O3211994   7.293   7.115   6.996
  135OYPE   C3211995   7.345   7.172   6.772
  135OYPE   H2X11996   7.235   7.177   6.761
  135OYPE   H2Y11997   7.380   7.276   6.782
  135OYPE   C2311998   7.242   6.767   6.572
  135OYPE   H3R11999   7.304   6.853   6.542
  135OYPE   H3S12000   7.136   6.797   6.588
  135OYPE   C2412001   7.254   6.680   6.454
  135OYPE   H4R12002   7.159   6.628   6.440
  135OYPE   H4S12003   7.341   6.611   6.469
  135OYPE   C2512004   7.249   6.741   6.318
  135OYPE   H5R12005   7.151   6.791   6.301
  135OYPE   H5S12006   7.265   6.652   6.253
  135OYPE   C2612007   7.366   6.803   6.261
  135OYPE   H6R12008   7.397   6.869   6.344
  135OYPE   H6S12009   7.337   6.859   6.169
  135OYPE   C2712010   7.471   6.697   6.221
  135OYPE   H7R12011   7.449   6.630   6.137
  135OYPE   H7S12012   7.502   6.640   6.312
  135OYPE   C2812013   7.581   6.778   6.165
  135OYPE   H8R12014   7.578   6.831   6.257
  135OYPE   H8S12015   7.551   6.860   6.095
  135OYPE   C2912016   7.717   6.722   6.148
  135OYPE   H9R12017   7.754   6.664   6.236
  135OYPE  C21012018   7.808   6.783   6.069
  135OYPE  H10R12019   7.912   6.753   6.063
  135OYPE  C21112020   7.801   6.907   5.987
  135OYPE  H11R12021   7.904   6.946   5.977
  135OYPE  H11S12022   7.736   6.991   6.015
  135OYPE  C21212023   7.743   6.883   5.857
  135OYPE  H12R12024   7.635   6.855   5.864
  135OYPE  H12S12025   7.791   6.795   5.816
  135OYPE  C21312026   7.776   7.013   5.782
  135OYPE  H13R12027   7.882   7.044   5.775
  135OYPE  H13S12028   7.700   7.092   5.803
  135OYPE  C21412029   7.767   6.972   5.647
  135OYPE  H14R12030   7.658   6.958   5.678
  135OYPE  H14S12031   7.825   6.879   5.620
  135OYPE  C21512032   7.764   7.041   5.517
  135OYPE  H15R12033   7.770   6.992   5.416
  135OYPE  H15S12034   7.871   7.053   5.522
  135OYPE  C21612035   7.653   7.142   5.495
  135OYPE  H16R12036   7.640   7.209   5.581
  135OYPE  H16S12037   7.566   7.098   5.454
  135OYPE  H16T12038   7.670   7.205   5.406
  135OYPE   C3312039   7.414   7.111   6.651
  135OYPE   H3X12040   7.412   6.999   6.658
  135OYPE   H3Y12041   7.520   7.142   6.654
  135OYPE   C3412042   7.340   7.159   6.526
  135OYPE   H4X12043   7.349   7.076   6.452
  135OYPE   H4Y12044   7.234   7.179   6.545
  135OYPE   C3512045   7.391   7.291   6.467
  135OYPE   H5X12046   7.497   7.287   6.501
  135OYPE   H5Y12047   7.377   7.381   6.525
  135OYPE   C3612048   7.358   7.296   6.307
  135OYPE   H6X12049   7.253   7.292   6.310
  135OYPE   H6Y12050   7.375   7.396   6.272
  135OYPE   C3712051   7.394   7.190   6.186
  135OYPE   H7X12052   7.501   7.179   6.162
  135OYPE   H7Y12053   7.367   7.085   6.207
  135OYPE   C3812054   7.435   7.221   6.043
  135OYPE   H8X12055   7.499   7.300   6.007
  135OYPE   H8Y12056   7.463   7.130   5.984
  135OYPE   C3912057   7.317   7.285   6.022
  135OYPE   H9X12058   7.266   7.345   6.098
  135OYPE  C31012059   7.266   7.250   5.915
  135OYPE  H10X12060   7.185   7.315   5.916
  135OYPE  C31112061   7.299   7.155   5.801
  135OYPE  H11X12062   7.322   7.213   5.711
  135OYPE  H11Y12063   7.388   7.094   5.818
  135OYPE  C31212064   7.197   7.051   5.757
  135OYPE  H12X12065   7.246   7.015   5.664
  135OYPE  H12Y12066   7.106   7.084   5.702
  135OYPE  C31312067   7.155   6.948   5.866
  135OYPE  H13X12068   7.122   6.998   5.958
  135OYPE  H13Y12069   7.062   6.890   5.846
  135OYPE  C31412070   7.267   6.848   5.897
  135OYPE  H14X12071   7.229   6.787   5.981
  135OYPE  H14Y12072   7.359   6.901   5.927
  135OYPE  C31512073   7.301   6.751   5.783
  135OYPE  H15X12074   7.325   6.805   5.688
  135OYPE  H15Y12075   7.212   6.688   5.778
  135OYPE  C31612076   7.404   6.644   5.818
  135OYPE  H16X12077   7.387   6.618   5.924
  135OYPE  H16Y12078   7.503   6.693   5.810
  135OYPE  C31712079   7.395   6.508   5.742
  135OYPE  H17X12080   7.309   6.448   5.777
  135OYPE  H17Y12081   7.491   6.455   5.764
  135OYPE  C31812082   7.375   6.499   5.593
  135OYPE  H18X12083   7.387   6.403   5.541
  135OYPE  H18Y12084   7.299   6.564   5.549
  135OYPE  H18Z12085   7.465   6.531   5.552
  136OYPE     N12086   8.172   4.998   7.629
  136OYPE   HN112087   8.250   5.050   7.674
  136OYPE   HN212088   8.177   4.909   7.683
  136OYPE   HN312089   8.202   4.985   7.529
  136OYPE   C1212090   8.067   5.109   7.632
  136OYPE  H12A12091   8.111   5.211   7.618
  136OYPE  H12B12092   8.020   5.110   7.732
  136OYPE   C1112093   7.978   5.095   7.510
  136OYPE  H11A12094   7.884   5.151   7.530
  136OYPE  H11B12095   7.959   4.987   7.494
  136OYPE     P12096   7.949   5.198   7.271
  136OYPE   O1312097   7.831   5.269   7.325
  136OYPE   O1412098   7.926   5.077   7.191
  136OYPE   O1112099   8.043   5.294   7.189
  136OYPE   O1212100   8.042   5.151   7.395
  136OYPE    C112101   8.183   5.271   7.170
  136OYPE    HA12102   8.215   5.176   7.219
  136OYPE    HB12103   8.241   5.353   7.218
  136OYPE    C212104   8.223   5.258   7.019
  136OYPE    HS12105   8.331   5.231   7.021
  136OYPE   O2112106   8.202   5.381   6.948
  136OYPE   C2112107   8.285   5.408   6.849
  136OYPE   O2212108   8.385   5.346   6.819
  136OYPE   C2212109   8.233   5.528   6.775
  136OYPE   H2R12110   8.283   5.619   6.819
  136OYPE   H2S12111   8.124   5.538   6.778
  136OYPE    C312112   8.142   5.146   6.949
  136OYPE    HX12113   8.034   5.171   6.960
  136OYPE    HY12114   8.162   5.051   7.004
  136OYPE   O3112115   8.180   5.131   6.810
  136OYPE   C3112116   8.090   5.062   6.738
  136OYPE   O3212117   7.985   5.020   6.781
  136OYPE   C3212118   8.140   5.039   6.595
  136OYPE   H2X12119   8.106   5.125   6.533
  136OYPE   H2Y12120   8.250   5.040   6.596
  136OYPE   C2312121   8.268   5.525   6.628
  136OYPE   H3R12122   8.378   5.504   6.632
  136OYPE   H3S12123   8.247   5.630   6.601
  136OYPE   C2412124   8.199   5.434   6.525
  136OYPE   H4R12125   8.090   5.440   6.540
  136OYPE   H4S12126   8.239   5.332   6.545
  136OYPE   C2512127   8.219   5.462   6.374
  136OYPE   H5R12128   8.322   5.450   6.342
  136OYPE   H5S12129   8.185   5.562   6.342
  136OYPE   C2612130   8.169   5.345   6.290
  136OYPE   H6R12131   8.205   5.253   6.341
  136OYPE   H6S12132   8.214   5.343   6.188
  136OYPE   C2712133   8.019   5.346   6.286
  136OYPE   H7R12134   7.979   5.443   6.322
  136OYPE   H7S12135   7.986   5.268   6.360
  136OYPE   C2812136   7.963   5.336   6.146
  136OYPE   H8R12137   8.024   5.387   6.068
  136OYPE   H8S12138   7.860   5.376   6.144
  136OYPE   C2912139   7.953   5.192   6.135
  136OYPE   H9R12140   8.053   5.138   6.133
  136OYPE  C21012141   7.856   5.137   6.065
  136OYPE  H10R12142   7.893   5.033   6.056
  136OYPE  C21112143   7.730   5.186   5.971
  136OYPE  H11R12144   7.712   5.294   5.990
  136OYPE  H11S12145   7.656   5.126   6.017
  136OYPE  C21212146   7.681   5.160   5.801
  136OYPE  H12R12147   7.743   5.231   5.749
  136OYPE  H12S12148   7.594   5.215   5.763
  136OYPE  C21312149   7.685   5.013   5.715
  136OYPE  H13R12150   7.665   4.929   5.778
  136OYPE  H13S12151   7.752   4.932   5.730
  136OYPE  C21412152   7.654   4.970   5.571
  136OYPE  H14R12153   7.722   4.989   5.491
  136OYPE  H14S12154   7.573   5.029   5.534
  136OYPE  C21512155   7.689   4.820   5.551
  136OYPE  H15R12156   7.678   4.812   5.441
  136OYPE  H15S12157   7.600   4.770   5.588
  136OYPE  C21612158   7.825   4.757   5.611
  136OYPE  H16R12159   7.821   4.734   5.719
  136OYPE  H16S12160   7.925   4.779   5.569
  136OYPE  H16T12161   7.837   4.658   5.581
  136OYPE   C3312162   8.091   4.902   6.541
  136OYPE   H3X12163   7.983   4.910   6.514
  136OYPE   H3Y12164   8.098   4.826   6.623
  136OYPE   C3412165   8.169   4.845   6.422
  136OYPE   H4X12166   8.155   4.913   6.335
  136OYPE   H4Y12167   8.278   4.845   6.446
  136OYPE   C3512168   8.128   4.700   6.390
  136OYPE   H5X12169   8.020   4.683   6.411
  136OYPE   H5Y12170   8.187   4.632   6.457
  136OYPE   C3612171   8.161   4.650   6.250
  136OYPE   H6X12172   8.264   4.685   6.224
  136OYPE   H6Y12173   8.164   4.539   6.253
  136OYPE   C3712174   8.062   4.699   6.143
  136OYPE   H7X12175   7.962   4.655   6.157
  136OYPE   H7Y12176   8.058   4.811   6.149
  136OYPE   C3812177   8.095   4.659   6.002
  136OYPE   H8X12178   8.113   4.552   5.996
  136OYPE   H8Y12179   8.033   4.695   5.920
  136OYPE   C3912180   8.223   4.715   5.981
  136OYPE   H9X12181   8.303   4.650   6.004
  136OYPE  C31012182   8.256   4.829   5.938
  136OYPE  H10X12183   8.357   4.827   5.937
  136OYPE  C31112184   8.197   4.951   5.891
  136OYPE  H11X12185   8.098   4.931   5.929
  136OYPE  H11Y12186   8.236   5.040   5.945
  136OYPE  C31212187   8.205   4.968   5.738
  136OYPE  H12X12188   8.156   5.060   5.742
  136OYPE  H12Y12189   8.136   4.903   5.685
  136OYPE  C31312190   8.319   5.041   5.661
  136OYPE  H13X12191   8.359   5.121   5.727
  136OYPE  H13Y12192   8.398   4.971   5.647
  136OYPE  C31412193   8.296   5.105   5.524
  136OYPE  H14X12194   8.234   5.055   5.449
  136OYPE  H14Y12195   8.388   5.136   5.473
  136OYPE  C31512196   8.195   5.201   5.517
  136OYPE  H15X12197   8.114   5.171   5.577
  136OYPE  H15Y12198   8.156   5.220   5.415
  136OYPE  C31612199   8.220   5.301   5.603
  136OYPE  H16X12200   8.315   5.327   5.548
  136OYPE  H16Y12201   8.235   5.279   5.710
  136OYPE  C31712202   8.093   5.379   5.588
  136OYPE  H17X12203   7.996   5.355   5.544
  136OYPE  H17Y12204   8.143   5.416   5.498
  136OYPE  C31812205   8.066   5.453   5.712
  136OYPE  H18X12206   8.000   5.540   5.704
  136OYPE  H18Y12207   8.091   5.422   5.815
  136OYPE  H18Z12208   8.163   5.489   5.697
  137OYPE     N12209   4.981   3.713   3.411
  137OYPE   HN112210   5.066   3.714   3.352
  137OYPE   HN212211   4.923   3.797   3.401
  137OYPE   HN312212   5.009   3.700   3.511
  137OYPE   C1212213   4.902   3.591   3.374
  137OYPE  H12A12214   4.915   3.569   3.267
  137OYPE  H12B12215   4.795   3.608   3.399
  137OYPE   C1112216   4.958   3.473   3.447
  137OYPE  H11A12217   5.065   3.458   3.447
  137OYPE  H11B12218   4.909   3.379   3.411
  137OYPE     P12219   4.945   3.364   3.666
  137OYPE   O1312220   4.974   3.237   3.597
  137OYPE   O1412221   4.821   3.417   3.678
  137OYPE   O1112222   5.001   3.395   3.800
  137OYPE   O1212223   4.951   3.496   3.581
  137OYPE    C112224   5.095   3.495   3.775
  137OYPE    HA12225   5.062   3.593   3.730
  137OYPE    HB12226   5.183   3.451   3.718
  137OYPE    C212227   5.142   3.534   3.907
  137OYPE    HS12228   5.241   3.539   3.872
  137OYPE   O2112229   5.121   3.441   4.019
  137OYPE   C2112230   5.167   3.317   3.985
  137OYPE   O2212231   5.217   3.290   3.880
  137OYPE   C2212232   5.147   3.209   4.085
  137OYPE   H2R12233   5.158   3.104   4.055
  137OYPE   H2S12234   5.044   3.205   4.069
  137OYPE    C312235   5.082   3.672   3.936
  137OYPE    HX12236   5.119   3.744   3.861
  137OYPE    HY12237   5.122   3.723   4.015
  137OYPE   O3112238   4.945   3.680   3.952
  137OYPE   C3112239   4.905   3.730   4.069
  137OYPE   O3212240   4.972   3.763   4.164
  137OYPE   C3212241   4.761   3.706   4.066
  137OYPE   H2X12242   4.695   3.743   4.144
  137OYPE   H2Y12243   4.727   3.713   3.959
  137OYPE   C2312244   5.184   3.255   4.226
  137OYPE   H3R12245   5.145   3.191   4.307
  137OYPE   H3S12246   5.159   3.360   4.244
  137OYPE   C2412247   5.309   3.213   4.272
  137OYPE   H4R12248   5.345   3.206   4.174
  137OYPE   H4S12249   5.300   3.114   4.325
  137OYPE   C2512250   5.389   3.308   4.349
  137OYPE   H5R12251   5.396   3.401   4.301
  137OYPE   H5S12252   5.495   3.283   4.367
  137OYPE   C2612253   5.334   3.305   4.482
  137OYPE   H6R12254   5.348   3.205   4.512
  137OYPE   H6S12255   5.232   3.319   4.498
  137OYPE   C2712256   5.401   3.409   4.555
  137OYPE   H7R12257   5.313   3.450   4.606
  137OYPE   H7S12258   5.480   3.469   4.506
  137OYPE   C2812259   5.413   3.407   4.691
  137OYPE   H8R12260   5.486   3.334   4.650
  137OYPE   H8S12261   5.339   3.351   4.747
  137OYPE   C2912262   5.458   3.517   4.778
  137OYPE   H9R12263   5.558   3.557   4.770
  137OYPE  C21012264   5.380   3.559   4.870
  137OYPE  H10R12265   5.426   3.621   4.933
  137OYPE  C21112266   5.247   3.525   4.911
  137OYPE  H11R12267   5.238   3.486   5.013
  137OYPE  H11S12268   5.232   3.447   4.847
  137OYPE  C21212269   5.161   3.643   4.881
  137OYPE  H12R12270   5.055   3.632   4.878
  137OYPE  H12S12271   5.180   3.711   4.803
  137OYPE  C21312272   5.197   3.752   4.961
  137OYPE  H13R12273   5.116   3.813   4.928
  137OYPE  H13S12274   5.224   3.854   4.930
  137OYPE  C21412275   5.217   3.698   5.099
  137OYPE  H14R12276   5.301   3.632   5.117
  137OYPE  H14S12277   5.116   3.660   5.127
  137OYPE  C21512278   5.254   3.797   5.190
  137OYPE  H15R12279   5.242   3.876   5.114
  137OYPE  H15S12280   5.334   3.857   5.220
  137OYPE  C21612281   5.210   3.778   5.326
  137OYPE  H16R12282   5.170   3.876   5.330
  137OYPE  H16S12283   5.140   3.832   5.389
  137OYPE  H16T12284   5.198   3.692   5.384
  137OYPE   C3312285   4.756   3.564   4.093
  137OYPE   H3X12286   4.856   3.513   4.089
  137OYPE   H3Y12287   4.681   3.537   4.016
  137OYPE   C3412288   4.717   3.510   4.219
  137OYPE   H4X12289   4.624   3.533   4.251
  137OYPE   H4Y12290   4.670   3.408   4.216
  137OYPE   C3512291   4.830   3.526   4.312
  137OYPE   H5X12292   4.872   3.625   4.308
  137OYPE   H5Y12293   4.938   3.491   4.291
  137OYPE   C3612294   4.741   3.468   4.428
  137OYPE   H6X12295   4.836   3.470   4.429
  137OYPE   H6Y12296   4.722   3.531   4.512
  137OYPE   C3712297   4.706   3.321   4.475
  137OYPE   H7X12298   4.663   3.239   4.414
  137OYPE   H7Y12299   4.800   3.287   4.469
  137OYPE   C3812300   4.753   3.276   4.606
  137OYPE   H8X12301   4.717   3.167   4.581
  137OYPE   H8Y12302   4.858   3.242   4.625
  137OYPE   C3912303   4.688   3.371   4.714
  137OYPE   H9X12304   4.621   3.301   4.735
  137OYPE  C31012305   4.721   3.480   4.817
  137OYPE  H10X12306   4.634   3.450   4.885
  137OYPE  C31112307   4.841   3.518   4.938
  137OYPE  H11X12308   4.934   3.500   4.898
  137OYPE  H11Y12309   4.858   3.625   4.916
  137OYPE  C31212310   4.932   3.445   5.085
  137OYPE  H12X12311   4.847   3.489   5.132
  137OYPE  H12Y12312   5.019   3.498   5.110
  137OYPE  C31312313   4.977   3.278   5.156
  137OYPE  H13X12314   4.926   3.172   5.132
  137OYPE  H13Y12315   5.040   3.206   5.095
  137OYPE  C31412316   4.973   3.228   5.286
  137OYPE  H14X12317   4.896   3.143   5.295
  137OYPE  H14Y12318   4.935   3.296   5.359
  137OYPE  C31512319   5.122   3.221   5.281
  137OYPE  H15X12320   5.157   3.325   5.271
  137OYPE  H15Y12321   5.165   3.158   5.198
  137OYPE  C31612322   5.153   3.161   5.405
  137OYPE  H16X12323   5.108   3.074   5.366
  137OYPE  H16Y12324   5.099   3.198   5.492
  137OYPE  C31712325   5.289   3.115   5.425
  137OYPE  H17X12326   5.286   3.054   5.519
  137OYPE  H17Y12327   5.340   3.205   5.432
  137OYPE  C31812328   5.346   3.042   5.307
  137OYPE  H18X12329   5.315   3.064   5.205
  137OYPE  H18Y12330   5.452   3.028   5.297
  137OYPE  H18Z12331   5.319   2.942   5.338
  138OYPE     N12332   6.596   3.329   3.339
  138OYPE   HN112333   6.673   3.383   3.385
  138OYPE   HN212334   6.627   3.239   3.297
  138OYPE   HN312335   6.554   3.388   3.265
  138OYPE   C1212336   6.486   3.304   3.439
  138OYPE  H12A12337   6.508   3.212   3.497
  138OYPE  H12B12338   6.392   3.287   3.380
  138OYPE   C1112339   6.468   3.427   3.529
  138OYPE  H11A12340   6.492   3.519   3.472
  138OYPE  H11B12341   6.532   3.426   3.620
  138OYPE     P12342   6.262   3.389   3.692
  138OYPE   O1312343   6.116   3.386   3.670
  138OYPE   O1412344   6.323   3.460   3.806
  138OYPE   O1112345   6.319   3.240   3.690
  138OYPE   O1212346   6.332   3.440   3.560
  138OYPE    C112347   6.225   3.134   3.706
  138OYPE    HA12348   6.277   3.038   3.687
  138OYPE    HB12349   6.142   3.143   3.632
  138OYPE    C212350   6.162   3.126   3.848
  138OYPE    HS12351   6.096   3.216   3.861
  138OYPE   O2112352   6.263   3.111   3.949
  138OYPE   C2112353   6.254   3.196   4.050
  138OYPE   O2212354   6.191   3.301   4.050
  138OYPE   C2212355   6.317   3.136   4.176
  138OYPE   H2R12356   6.396   3.065   4.145
  138OYPE   H2S12357   6.238   3.077   4.227
  138OYPE    C312358   6.072   3.002   3.857
  138OYPE    HX12359   6.129   2.913   3.825
  138OYPE    HY12360   5.992   3.014   3.780
  138OYPE   O3112361   6.032   2.977   3.994
  138OYPE   C3112362   5.910   3.023   4.013
  138OYPE   O3212363   5.843   3.065   3.920
  138OYPE   C3212364   5.866   2.993   4.158
  138OYPE   H2X12365   5.793   2.915   4.138
  138OYPE   H2Y12366   5.949   2.954   4.219
  138OYPE   C2312367   6.380   3.242   4.271
  138OYPE   H3R12368   6.313   3.330   4.285
  138OYPE   H3S12369   6.470   3.280   4.218
  138OYPE   C2412370   6.435   3.188   4.405
  138OYPE   H4R12371   6.489   3.265   4.464
  138OYPE   H4S12372   6.481   3.088   4.389
  138OYPE   C2512373   6.338   3.156   4.510
  138OYPE   H5R12374   6.288   3.074   4.450
  138OYPE   H5S12375   6.282   3.253   4.532
  138OYPE   C2612376   6.360   3.089   4.640
  138OYPE   H6R12377   6.375   2.981   4.626
  138OYPE   H6S12378   6.277   3.074   4.709
  138OYPE   C2712379   6.412   3.191   4.735
  138OYPE   H7R12380   6.353   3.286   4.727
  138OYPE   H7S12381   6.514   3.200   4.696
  138OYPE   C2812382   6.387   3.148   4.877
  138OYPE   H8R12383   6.276   3.137   4.894
  138OYPE   H8S12384   6.421   3.215   4.954
  138OYPE   C2912385   6.458   3.023   4.897
  138OYPE   H9R12386   6.545   2.984   4.842
  138OYPE  C21012387   6.409   2.949   4.987
  138OYPE  H10R12388   6.442   2.856   4.977
  138OYPE  C21112389   6.297   2.946   5.084
  138OYPE  H11R12390   6.293   3.040   5.141
  138OYPE  H11S12391   6.283   2.859   5.159
  138OYPE  C21212392   6.199   2.901   5.000
  138OYPE  H12R12393   6.170   2.792   4.986
  138OYPE  H12S12394   6.207   2.957   4.903
  138OYPE  C21312395   6.100   2.973   5.082
  138OYPE  H13R12396   6.061   2.934   4.994
  138OYPE  H13S12397   6.108   3.076   5.104
  138OYPE  C21412398   6.043   2.933   5.210
  138OYPE  H14R12399   6.116   2.892   5.279
  138OYPE  H14S12400   6.074   2.842   5.161
  138OYPE  C21512401   5.884   2.972   5.239
  138OYPE  H15R12402   5.788   2.931   5.215
  138OYPE  H15S12403   5.848   3.068   5.242
  138OYPE  C21612404   5.786   2.900   5.316
  138OYPE  H16R12405   5.747   2.784   5.307
  138OYPE  H16S12406   5.755   2.932   5.408
  138OYPE  H16T12407   5.894   2.894   5.350
  138OYPE   C3312408   5.773   3.095   4.232
  138OYPE   H3X12409   5.720   3.094   4.319
  138OYPE   H3Y12410   5.713   3.146   4.165
  138OYPE   C3412411   5.829   3.164   4.351
  138OYPE   H4X12412   5.908   3.092   4.365
  138OYPE   H4Y12413   5.890   3.169   4.255
  138OYPE   C3512414   5.796   3.324   4.452
  138OYPE   H5X12415   5.759   3.278   4.541
  138OYPE   H5Y12416   5.716   3.389   4.415
  138OYPE   C3612417   5.899   3.476   4.474
  138OYPE   H6X12418   5.841   3.556   4.520
  138OYPE   H6Y12419   5.977   3.473   4.549
  138OYPE   C3712420   6.010   3.558   4.374
  138OYPE   H7X12421   6.075   3.523   4.293
  138OYPE   H7Y12422   5.974   3.590   4.279
  138OYPE   C3812423   6.104   3.661   4.424
  138OYPE   H8X12424   6.131   3.720   4.331
  138OYPE   H8Y12425   6.041   3.719   4.492
  138OYPE   C3912426   6.226   3.596   4.482
  138OYPE   H9X12427   6.306   3.571   4.410
  138OYPE  C31012428   6.238   3.565   4.612
  138OYPE  H10X12429   6.336   3.528   4.644
  138OYPE  C31112430   6.135   3.588   4.721
  138OYPE  H11X12431   6.166   3.674   4.783
  138OYPE  H11Y12432   6.034   3.614   4.682
  138OYPE  C31212433   6.115   3.467   4.815
  138OYPE  H12X12434   6.212   3.441   4.862
  138OYPE  H12Y12435   6.081   3.378   4.757
  138OYPE  C31312436   6.012   3.494   4.924
  138OYPE  H13X12437   6.012   3.599   4.957
  138OYPE  H13Y12438   5.914   3.483   4.877
  138OYPE  C31412439   6.020   3.399   5.044
  138OYPE  H14X12440   6.062   3.301   5.016
  138OYPE  H14Y12441   5.921   3.379   5.088
  138OYPE  C31512442   6.101   3.457   5.157
  138OYPE  H15X12443   6.084   3.396   5.248
  138OYPE  H15Y12444   6.068   3.559   5.182
  138OYPE  C31612445   6.248   3.452   5.128
  138OYPE  H16X12446   6.284   3.521   5.050
  138OYPE  H16Y12447   6.279   3.348   5.106
  138OYPE  C31712448   6.313   3.503   5.248
  138OYPE  H17X12449   6.268   3.456   5.332
  138OYPE  H17Y12450   6.290   3.608   5.259
  138OYPE  C31812451   6.451   3.460   5.262
  138OYPE  H18X12452   6.439   3.358   5.226
  138OYPE  H18Y12453   6.536   3.470   5.198
  138OYPE  H18Z12454   6.495   3.478   5.363
  139OYPE     N12455   2.992   6.236   3.596
  139OYPE   HN112456   3.011   6.297   3.514
  139OYPE   HN212457   3.085   6.206   3.633
  139OYPE   HN312458   2.936   6.153   3.568
  139OYPE   C1212459   2.912   6.320   3.691
  139OYPE  H12A12460   2.901   6.268   3.788
  139OYPE  H12B12461   2.813   6.334   3.643
  139OYPE   C1112462   2.973   6.459   3.700
  139OYPE  H11A12463   3.068   6.461   3.756
  139OYPE  H11B12464   2.906   6.523   3.761
  139OYPE     P12465   3.028   6.662   3.544
  139OYPE   O1312466   2.906   6.730   3.498
  139OYPE   O1412467   3.146   6.664   3.455
  139OYPE   O1112468   3.067   6.715   3.688
  139OYPE   O1212469   2.994   6.508   3.568
  139OYPE    C112470   3.055   6.855   3.722
  139OYPE    HA12471   2.954   6.896   3.697
  139OYPE    HB12472   3.131   6.916   3.667
  139OYPE    C212473   3.078   6.869   3.876
  139OYPE    HS12474   3.180   6.827   3.895
  139OYPE   O2112475   2.974   6.794   3.942
  139OYPE   C2112476   3.014   6.735   4.054
  139OYPE   O2212477   3.121   6.752   4.108
  139OYPE   C2212478   2.906   6.638   4.101
  139OYPE   H2R12479   2.907   6.557   4.026
  139OYPE   H2S12480   2.806   6.687   4.097
  139OYPE    C312481   3.080   7.017   3.926
  139OYPE    HX12482   2.980   7.062   3.904
  139OYPE    HY12483   3.155   7.070   3.862
  139OYPE   O3112484   3.121   7.032   4.065
  139OYPE   C3112485   3.024   7.058   4.152
  139OYPE   O3212486   2.907   7.076   4.123
  139OYPE   C3212487   3.077   7.068   4.296
  139OYPE   H2X12488   3.128   6.973   4.322
  139OYPE   H2Y12489   3.153   7.150   4.297
  139OYPE   C2312490   2.938   6.572   4.239
  139OYPE   H3R12491   3.043   6.536   4.232
  139OYPE   H3S12492   2.871   6.484   4.252
  139OYPE   C2412493   2.925   6.660   4.366
  139OYPE   H4R12494   2.823   6.705   4.370
  139OYPE   H4S12495   2.999   6.743   4.358
  139OYPE   C2512496   2.945   6.589   4.502
  139OYPE   H5R12497   2.858   6.523   4.522
  139OYPE   H5S12498   2.946   6.666   4.583
  139OYPE   C2612499   3.078   6.513   4.511
  139OYPE   H6R12500   3.159   6.588   4.502
  139OYPE   H6S12501   3.086   6.441   4.426
  139OYPE   C2712502   3.102   6.437   4.643
  139OYPE   H7R12503   3.109   6.508   4.728
  139OYPE   H7S12504   3.201   6.389   4.632
  139OYPE   C2812505   3.003   6.325   4.672
  139OYPE   H8R12506   2.977   6.272   4.578
  139OYPE   H8S12507   2.911   6.372   4.713
  139OYPE   C2912508   3.061   6.222   4.764
  139OYPE   H9R12509   3.120   6.143   4.715
  139OYPE  C21012510   3.050   6.222   4.897
  139OYPE  H10R12511   3.103   6.146   4.957
  139OYPE  C21112512   2.976   6.326   4.976
  139OYPE  H11R12513   2.881   6.283   5.015
  139OYPE  H11S12514   2.950   6.418   4.921
  139OYPE  C21212515   3.069   6.374   5.088
  139OYPE  H12R12516   3.123   6.280   5.118
  139OYPE  H12S12517   3.007   6.419   5.169
  139OYPE  C21312518   3.193   6.457   5.063
  139OYPE  H13R12519   3.157   6.555   5.032
  139OYPE  H13S12520   3.246   6.399   4.985
  139OYPE  C21412521   3.294   6.470   5.178
  139OYPE  H14R12522   3.393   6.502   5.141
  139OYPE  H14S12523   3.306   6.367   5.219
  139OYPE  C21512524   3.266   6.575   5.287
  139OYPE  H15R12525   3.332   6.555   5.376
  139OYPE  H15S12526   3.159   6.559   5.306
  139OYPE  C21612527   3.247   6.723   5.268
  139OYPE  H16R12528   3.194   6.764   5.358
  139OYPE  H16S12529   3.186   6.741   5.178
  139OYPE  H16T12530   3.342   6.776   5.258
  139OYPE   C3312531   2.964   7.095   4.400
  139OYPE   H3X12532   2.894   7.174   4.366
  139OYPE   H3Y12533   3.013   7.129   4.494
  139OYPE   C3412534   2.878   6.972   4.440
  139OYPE   H4X12535   2.826   6.934   4.349
  139OYPE   H4Y12536   2.946   6.894   4.480
  139OYPE   C3512537   2.777   6.994   4.555
  139OYPE   H5X12538   2.727   6.898   4.578
  139OYPE   H5Y12539   2.697   7.062   4.519
  139OYPE   C3612540   2.837   7.053   4.685
  139OYPE   H6X12541   2.880   7.154   4.664
  139OYPE   H6Y12542   2.751   7.069   4.752
  139OYPE   C3712543   2.938   6.965   4.762
  139OYPE   H7X12544   2.904   6.860   4.753
  139OYPE   H7Y12545   3.039   6.971   4.714
  139OYPE   C3812546   2.954   6.998   4.913
  139OYPE   H8X12547   3.034   6.934   4.958
  139OYPE   H8Y12548   2.990   7.102   4.923
  139OYPE   C3912549   2.828   6.992   4.996
  139OYPE   H9X12550   2.786   7.089   5.025
  139OYPE  C31012551   2.762   6.881   5.032
  139OYPE  H10X12552   2.669   6.893   5.090
  139OYPE  C31112553   2.796   6.738   5.000
  139OYPE  H11X12554   2.702   6.681   4.985
  139OYPE  H11Y12555   2.858   6.727   4.909
  139OYPE  C31212556   2.868   6.664   5.113
  139OYPE  H12X12557   2.975   6.692   5.121
  139OYPE  H12Y12558   2.861   6.554   5.095
  139OYPE  C31312559   2.809   6.690   5.248
  139OYPE  H13X12560   2.827   6.796   5.275
  139OYPE  H13Y12561   2.698   6.689   5.236
  139OYPE  C31412562   2.883   6.595   5.344
  139OYPE  H14X12563   2.884   6.608   5.449
  139OYPE  H14Y12564   2.987   6.620   5.356
  139OYPE  C31512565   2.821   6.462   5.369
  139OYPE  H15X12566   2.811   6.403   5.277
  139OYPE  H15Y12567   2.734   6.464   5.419
  139OYPE  C31612568   2.818   6.392   5.509
  139OYPE  H16X12569   2.914   6.428   5.531
  139OYPE  H16Y12570   2.775   6.290   5.496
  139OYPE  C31712571   2.768   6.378   5.646
  139OYPE  H17X12572   2.676   6.319   5.649
  139OYPE  H17Y12573   2.774   6.478   5.633
  139OYPE  C31812574   2.824   6.383   5.778
  139OYPE  H18X12575   2.766   6.372   5.871
  139OYPE  H18Y12576   2.836   6.281   5.760
  139OYPE  H18Z12577   2.905   6.457   5.789
  140OYPE     N12578   5.551   1.456   3.723
  140OYPE   HN112579   5.468   1.500   3.768
  140OYPE   HN212580   5.637   1.498   3.762
  140OYPE   HN312581   5.542   1.473   3.620
  140OYPE   C1212582   5.550   1.307   3.743
  140OYPE  H12A12583   5.569   1.285   3.850
  140OYPE  H12B12584   5.631   1.263   3.681
  140OYPE   C1112585   5.414   1.252   3.700
  140OYPE  H11A12586   5.337   1.301   3.764
  140OYPE  H11B12587   5.412   1.143   3.719
  140OYPE     P12588   5.266   1.353   3.504
  140OYPE   O1312589   5.205   1.280   3.391
  140OYPE   O1412590   5.302   1.496   3.490
  140OYPE   O1112591   5.160   1.344   3.620
  140OYPE   O1212592   5.392   1.276   3.561
  140OYPE    C112593   5.041   1.417   3.589
  140OYPE    HA12594   4.964   1.349   3.544
  140OYPE    HB12595   5.053   1.506   3.523
  140OYPE    C212596   4.982   1.478   3.714
  140OYPE    HS12597   4.915   1.565   3.692
  140OYPE   O2112598   5.076   1.504   3.821
  140OYPE   C2112599   5.139   1.616   3.818
  140OYPE   O2212600   5.127   1.704   3.734
  140OYPE   C2212601   5.224   1.626   3.947
  140OYPE   H2R12602   5.278   1.531   3.963
  140OYPE   H2S12603   5.155   1.637   4.033
  140OYPE    C312604   4.890   1.372   3.762
  140OYPE    HX12605   4.794   1.360   3.707
  140OYPE    HY12606   4.877   1.439   3.844
  140OYPE   O3112607   4.961   1.251   3.793
  140OYPE   C3112608   5.025   1.242   3.910
  140OYPE   O3212609   4.995   1.299   4.013
  140OYPE   C3212610   5.132   1.133   3.901
  140OYPE   H2X12611   5.095   1.039   3.855
  140OYPE   H2Y12612   5.204   1.173   3.830
  140OYPE   C2312613   5.326   1.743   3.943
  140OYPE   H3R12614   5.272   1.839   3.927
  140OYPE   H3S12615   5.394   1.729   3.856
  140OYPE   C2412616   5.410   1.760   4.071
  140OYPE   H4R12617   5.348   1.815   4.147
  140OYPE   H4S12618   5.495   1.827   4.046
  140OYPE   C2512619   5.465   1.630   4.132
  140OYPE   H5R12620   5.525   1.579   4.054
  140OYPE   H5S12621   5.382   1.563   4.162
  140OYPE   C2612622   5.561   1.653   4.249
  140OYPE   H6R12623   5.626   1.737   4.221
  140OYPE   H6S12624   5.625   1.563   4.261
  140OYPE   C2712625   5.502   1.677   4.389
  140OYPE   H7R12626   5.447   1.586   4.421
  140OYPE   H7S12627   5.428   1.760   4.387
  140OYPE   C2812628   5.615   1.702   4.489
  140OYPE   H8R12629   5.689   1.769   4.441
  140OYPE   H8S12630   5.669   1.608   4.512
  140OYPE   C2912631   5.575   1.774   4.612
  140OYPE   H9R12632   5.522   1.868   4.591
  140OYPE  C21012633   5.594   1.739   4.739
  140OYPE  H10R12634   5.582   1.816   4.815
  140OYPE  C21112635   5.658   1.618   4.797
  140OYPE  H11R12636   5.744   1.655   4.855
  140OYPE  H11S12637   5.692   1.551   4.715
  140OYPE  C21212638   5.562   1.539   4.887
  140OYPE  H12R12639   5.586   1.431   4.889
  140OYPE  H12S12640   5.457   1.549   4.849
  140OYPE  C21312641   5.564   1.578   5.034
  140OYPE  H13R12642   5.543   1.684   5.024
  140OYPE  H13S12643   5.662   1.577   5.086
  140OYPE  C21412644   5.460   1.490   5.109
  140OYPE  H14R12645   5.487   1.386   5.088
  140OYPE  H14S12646   5.359   1.513   5.072
  140OYPE  C21512647   5.455   1.491   5.262
  140OYPE  H15R12648   5.558   1.504   5.305
  140OYPE  H15S12649   5.386   1.426   5.316
  140OYPE  C21612650   5.388   1.603   5.315
  140OYPE  H16R12651   5.294   1.651   5.287
  140OYPE  H16S12652   5.461   1.649   5.245
  140OYPE  H16T12653   5.414   1.634   5.416
  140OYPE   C3312654   5.193   1.106   4.039
  140OYPE   H3X12655   5.113   1.084   4.114
  140OYPE   H3Y12656   5.235   1.202   4.074
  140OYPE   C3412657   5.294   0.989   4.044
  140OYPE   H4X12658   5.236   0.894   4.030
  140OYPE   H4Y12659   5.365   0.994   3.958
  140OYPE   C3512660   5.375   0.983   4.175
  140OYPE   H5X12661   5.408   0.879   4.199
  140OYPE   H5Y12662   5.310   1.014   4.259
  140OYPE   C3612663   5.504   1.068   4.169
  140OYPE   H6X12664   5.587   1.001   4.137
  140OYPE   H6Y12665   5.493   1.145   4.090
  140OYPE   C3712666   5.542   1.136   4.301
  140OYPE   H7X12667   5.540   1.064   4.386
  140OYPE   H7Y12668   5.647   1.172   4.289
  140OYPE   C3812669   5.455   1.259   4.333
  140OYPE   H8X12670   5.462   1.326   4.244
  140OYPE   H8Y12671   5.349   1.225   4.339
  140OYPE   C3912672   5.498   1.335   4.456
  140OYPE   H9X12673   5.582   1.404   4.440
  140OYPE  C31012674   5.436   1.340   4.575
  140OYPE  H10X12675   5.480   1.404   4.654
  140OYPE  C31112676   5.309   1.270   4.614
  140OYPE  H11X12677   5.301   1.168   4.572
  140OYPE  H11Y12678   5.302   1.263   4.725
  140OYPE  C31212679   5.191   1.349   4.559
  140OYPE  H12X12680   5.095   1.295   4.577
  140OYPE  H12Y12681   5.200   1.360   4.448
  140OYPE  C31312682   5.184   1.489   4.620
  140OYPE  H13X12683   5.269   1.555   4.592
  140OYPE  H13Y12684   5.100   1.530   4.564
  140OYPE  C31412685   5.170   1.489   4.773
  140OYPE  H14X12686   5.258   1.447   4.825
  140OYPE  H14Y12687   5.094   1.410   4.794
  140OYPE  C31512688   5.151   1.633   4.830
  140OYPE  H15X12689   5.070   1.684   4.773
  140OYPE  H15Y12690   5.235   1.695   4.804
  140OYPE  C31612691   5.122   1.651   4.981
  140OYPE  H16X12692   5.084   1.754   5.003
  140OYPE  H16Y12693   5.198   1.611   5.049
  140OYPE  C31712694   5.006   1.587   5.039
  140OYPE  H17X12695   5.015   1.475   5.030
  140OYPE  H17Y12696   4.925   1.642   4.986
  140OYPE  C31812697   4.955   1.632   5.165
  140OYPE  H18X12698   5.029   1.620   5.244
  140OYPE  H18Y12699   4.888   1.717   5.180
  140OYPE  H18Z12700   4.877   1.550   5.164
  141OYPE     N12701   0.600   2.855   3.388
  141OYPE   HN112702   0.647   2.920   3.454
  141OYPE   HN212703   0.604   2.759   3.427
  141OYPE   HN312704   0.647   2.857   3.295
  141OYPE   C1212705   0.456   2.893   3.371
  141OYPE  H12A12706   0.410   2.823   3.299
  141OYPE  H12B12707   0.454   2.992   3.328
  141OYPE   C1112708   0.379   2.891   3.502
  141OYPE  H11A12709   0.277   2.932   3.483
  141OYPE  H11B12710   0.426   2.960   3.577
  141OYPE     P12711   0.330   2.745   3.703
  141OYPE   O1312712   0.271   2.615   3.722
  141OYPE   O1412713   0.236   2.851   3.742
  141OYPE   O1112714   0.473   2.759   3.771
  141OYPE   O1212715   0.370   2.757   3.548
  141OYPE    C112716   0.604   2.723   3.725
  141OYPE    HA12717   0.640   2.796   3.648
  141OYPE    HB12718   0.606   2.621   3.682
  141OYPE    C212719   0.709   2.729   3.841
  141OYPE    HS12720   0.805   2.680   3.812
  141OYPE   O2112721   0.660   2.678   3.965
  141OYPE   C2112722   0.634   2.550   3.963
  141OYPE   O2212723   0.669   2.475   3.873
  141OYPE   C2212724   0.577   2.512   4.099
  141OYPE   H2R12725   0.527   2.414   4.098
  141OYPE   H2S12726   0.498   2.584   4.123
  141OYPE    C312727   0.744   2.873   3.869
  141OYPE    HX12728   0.794   2.920   3.782
  141OYPE    HY12729   0.819   2.878   3.952
  141OYPE   O3112730   0.618   2.934   3.905
  141OYPE   C3112731   0.567   3.027   3.824
  141OYPE   O3212732   0.612   3.054   3.713
  141OYPE   C3212733   0.448   3.094   3.893
  141OYPE   H2X12734   0.476   3.194   3.927
  141OYPE   H2Y12735   0.375   3.122   3.815
  141OYPE   C2312736   0.686   2.513   4.209
  141OYPE   H3R12737   0.777   2.464   4.170
  141OYPE   H3S12738   0.651   2.446   4.291
  141OYPE   C2412739   0.704   2.657   4.264
  141OYPE   H4R12740   0.603   2.694   4.292
  141OYPE   H4S12741   0.745   2.724   4.186
  141OYPE   C2512742   0.798   2.673   4.384
  141OYPE   H5R12743   0.899   2.653   4.344
  141OYPE   H5S12744   0.767   2.612   4.470
  141OYPE   C2612745   0.814   2.805   4.455
  141OYPE   H6R12746   0.714   2.852   4.459
  141OYPE   H6S12747   0.884   2.863   4.392
  141OYPE   C2712748   0.869   2.787   4.599
  141OYPE   H7R12749   0.910   2.884   4.633
  141OYPE   H7S12750   0.955   2.715   4.599
  141OYPE   C2812751   0.767   2.741   4.707
  141OYPE   H8R12752   0.828   2.724   4.799
  141OYPE   H8S12753   0.725   2.642   4.681
  141OYPE   C2912754   0.650   2.834   4.729
  141OYPE   H9R12755   0.594   2.858   4.639
  141OYPE  C21012756   0.607   2.891   4.844
  141OYPE  H10R12757   0.538   2.975   4.843
  141OYPE  C21112758   0.668   2.875   4.976
  141OYPE  H11R12759   0.686   2.767   4.983
  141OYPE  H11S12760   0.610   2.895   5.069
  141OYPE  C21212761   0.777   2.986   4.963
  141OYPE  H12R12762   0.755   3.073   5.024
  141OYPE  H12S12763   0.831   2.995   4.862
  141OYPE  C21312764   0.875   2.967   5.075
  141OYPE  H13R12765   0.898   2.892   4.993
  141OYPE  H13S12766   0.814   2.910   5.147
  141OYPE  C21412767   1.011   3.041   5.147
  141OYPE  H14R12768   0.996   3.147   5.159
  141OYPE  H14S12769   1.077   3.045   5.058
  141OYPE  C21512770   1.108   2.995   5.286
  141OYPE  H15R12771   1.204   3.046   5.304
  141OYPE  H15S12772   1.177   2.907   5.301
  141OYPE  C21612773   1.063   2.965   5.419
  141OYPE  H16R12774   0.978   3.030   5.413
  141OYPE  H16S12775   1.152   2.998   5.483
  141OYPE  H16T12776   1.047   2.853   5.422
  141OYPE   C3312777   0.391   3.003   4.007
  141OYPE   H3X12778   0.440   3.013   4.105
  141OYPE   H3Y12779   0.405   2.897   3.976
  141OYPE   C3412780   0.243   3.014   4.039
  141OYPE   H4X12781   0.229   3.101   4.104
  141OYPE   H4Y12782   0.193   3.030   3.941
  141OYPE   C3512783   0.196   2.888   4.114
  141OYPE   H5X12784   0.244   2.800   4.068
  141OYPE   H5Y12785   0.090   2.865   4.104
  141OYPE   C3612786   0.201   2.899   4.267
  141OYPE   H6X12787   0.297   2.945   4.299
  141OYPE   H6Y12788   0.116   2.963   4.296
  141OYPE   C3712789   0.174   2.769   4.342
  141OYPE   H7X12790   0.156   2.793   4.449
  141OYPE   H7Y12791   0.081   2.722   4.302
  141OYPE   C3812792   0.300   2.682   4.330
  141OYPE   H8X12793   0.347   2.702   4.231
  141OYPE   H8Y12794   0.369   2.724   4.406
  141OYPE   C3912795   0.291   2.533   4.342
  141OYPE   H9X12796   0.279   2.482   4.245
  141OYPE  C31012797   0.313   2.462   4.454
  141OYPE  H10X12798   0.303   2.352   4.446
  141OYPE  C31112799   0.350   2.517   4.590
  141OYPE  H11X12800   0.366   2.627   4.589
  141OYPE  H11Y12801   0.269   2.496   4.663
  141OYPE  C31212802   0.478   2.460   4.650
  141OYPE  H12X12803   0.566   2.489   4.587
  141OYPE  H12Y12804   0.479   2.351   4.652
  141OYPE  C31312805   0.500   2.511   4.794
  141OYPE  H13X12806   0.607   2.489   4.805
  141OYPE  H13Y12807   0.489   2.621   4.797
  141OYPE  C31412808   0.416   2.448   4.907
  141OYPE  H14X12809   0.444   2.341   4.917
  141OYPE  H14Y12810   0.310   2.448   4.873
  141OYPE  C31512811   0.415   2.524   5.046
  141OYPE  H15X12812   0.345   2.475   5.116
  141OYPE  H15Y12813   0.383   2.628   5.026
  141OYPE  C31612814   0.546   2.538   5.126
  141OYPE  H16X12815   0.605   2.605   5.059
  141OYPE  H16Y12816   0.588   2.436   5.138
  141OYPE  C31712817   0.552   2.617   5.258
  141OYPE  H17X12818   0.462   2.577   5.306
  141OYPE  H17Y12819   0.543   2.724   5.226
  141OYPE  C31812820   0.660   2.599   5.369
  141OYPE  H18X12821   0.704   2.498   5.382
  141OYPE  H18Y12822   0.761   2.621   5.351
  141OYPE  H18Z12823   0.673   2.687   5.434
  142OYPE     N12824   6.288   1.039   3.631
  142OYPE   HN112825   6.343   1.124   3.608
  142OYPE   HN212826   6.336   0.985   3.706
  142OYPE   HN312827   6.282   0.977   3.547
  142OYPE   C1212828   6.148   1.074   3.671
  142OYPE  H12A12829   6.108   1.140   3.591
  142OYPE  H12B12830   6.151   1.128   3.768
  142OYPE   C1112831   6.063   0.948   3.684
  142OYPE  H11A12832   5.962   0.974   3.723
  142OYPE  H11B12833   6.113   0.882   3.759
  142OYPE     P12834   6.046   0.733   3.533
  142OYPE   O1312835   6.177   0.700   3.476
  142OYPE   O1412836   5.922   0.696   3.463
  142OYPE   O1112837   6.044   0.685   3.680
  142OYPE   O1212838   6.046   0.889   3.556
  142OYPE    C112839   5.943   0.596   3.719
  142OYPE    HA12840   5.951   0.498   3.665
  142OYPE    HB12841   5.838   0.633   3.706
  142OYPE    C212842   5.969   0.575   3.866
  142OYPE    HS12843   5.892   0.505   3.888
  142OYPE   O2112844   5.957   0.687   3.952
  142OYPE   C2112845   5.837   0.726   3.985
  142OYPE   O2212846   5.732   0.684   3.941
  142OYPE   C2212847   5.857   0.837   4.087
  142OYPE   H2R12848   5.777   0.826   4.163
  142OYPE   H2S12849   5.844   0.933   4.034
  142OYPE    C312850   6.109   0.518   3.895
  142OYPE    HX12851   6.189   0.580   3.852
  142OYPE    HY12852   6.108   0.428   3.828
  142OYPE   O3112853   6.147   0.499   4.036
  142OYPE   C3112854   6.056   0.444   4.117
  142OYPE   O3212855   5.940   0.431   4.083
  142OYPE   C3212856   6.100   0.382   4.255
  142OYPE   H2X12857   6.107   0.271   4.271
  142OYPE   H2Y12858   6.199   0.406   4.286
  142OYPE   C2312859   5.996   0.834   4.157
  142OYPE   H3R12860   6.076   0.850   4.081
  142OYPE   H3S12861   6.018   0.736   4.203
  142OYPE   C2412862   6.006   0.947   4.259
  142OYPE   H4R12863   5.970   1.040   4.210
  142OYPE   H4S12864   6.113   0.963   4.285
  142OYPE   C2512865   5.928   0.926   4.390
  142OYPE   H5R12866   5.949   0.824   4.428
  142OYPE   H5S12867   5.818   0.937   4.378
  142OYPE   C2612868   5.979   1.021   4.499
  142OYPE   H6R12869   6.089   1.004   4.504
  142OYPE   H6S12870   5.937   0.991   4.598
  142OYPE   C2712871   5.946   1.168   4.471
  142OYPE   H7R12872   5.843   1.174   4.428
  142OYPE   H7S12873   6.015   1.207   4.393
  142OYPE   C2812874   5.951   1.258   4.597
  142OYPE   H8R12875   5.879   1.218   4.672
  142OYPE   H8S12876   5.911   1.358   4.566
  142OYPE   C2912877   6.091   1.270   4.652
  142OYPE   H9R12878   6.167   1.299   4.577
  142OYPE  C21012879   6.136   1.244   4.776
  142OYPE  H10R12880   6.243   1.260   4.796
  142OYPE  C21112881   6.060   1.195   4.897
  142OYPE  H11R12882   5.964   1.149   4.871
  142OYPE  H11S12883   6.037   1.280   4.967
  142OYPE  C21212884   6.144   1.091   4.975
  142OYPE  H12R12885   6.191   1.013   4.913
  142OYPE  H12S12886   6.075   1.044   5.049
  142OYPE  C21312887   6.251   1.166   5.051
  142OYPE  H13R12888   6.177   1.230   5.103
  142OYPE  H13S12889   6.317   1.225   4.984
  142OYPE  C21412890   6.336   1.101   5.160
  142OYPE  H14R12891   6.411   1.175   5.197
  142OYPE  H14S12892   6.396   1.019   5.116
  142OYPE  C21512893   6.252   1.054   5.279
  142OYPE  H15R12894   6.184   0.975   5.242
  142OYPE  H15S12895   6.189   1.139   5.316
  142OYPE  C21612896   6.336   1.002   5.396
  142OYPE  H16R12897   6.280   0.930   5.457
  142OYPE  H16S12898   6.356   1.086   5.465
  142OYPE  H16T12899   6.432   0.957   5.362
  142OYPE   C3312900   5.988   0.437   4.339
  142OYPE   H3X12901   5.887   0.409   4.301
  142OYPE   H3Y12902   6.010   0.545   4.323
  142OYPE   C3412903   6.000   0.417   4.487
  142OYPE   H4X12904   5.908   0.456   4.536
  142OYPE   H4Y12905   6.007   0.308   4.512
  142OYPE   C3512906   6.117   0.510   4.524
  142OYPE   H5X12907   6.130   0.606   4.475
  142OYPE   H5Y12908   6.197   0.456   4.471
  142OYPE   C3612909   6.138   0.544   4.674
  142OYPE   H6X12910   6.060   0.580   4.739
  142OYPE   H6Y12911   6.095   0.446   4.705
  142OYPE   C3712912   6.292   0.597   4.712
  142OYPE   H7X12913   6.381   0.537   4.680
  142OYPE   H7Y12914   6.308   0.681   4.643
  142OYPE   C3812915   6.349   0.617   4.857
  142OYPE   H8X12916   6.360   0.532   4.929
  142OYPE   H8Y12917   6.456   0.649   4.861
  142OYPE   C3912918   6.250   0.704   4.919
  142OYPE   H9X12919   6.162   0.725   4.858
  142OYPE  C31012920   6.260   0.742   5.045
  142OYPE  H10X12921   6.184   0.805   5.090
  142OYPE  C31112922   6.374   0.700   5.131
  142OYPE  H11X12923   6.459   0.654   5.075
  142OYPE  H11Y12924   6.416   0.788   5.183
  142OYPE  C31212925   6.333   0.599   5.237
  142OYPE  H12X12926   6.397   0.602   5.324
  142OYPE  H12Y12927   6.362   0.496   5.210
  142OYPE  C31312928   6.221   0.645   5.324
  142OYPE  H13X12929   6.248   0.601   5.423
  142OYPE  H13Y12930   6.225   0.753   5.334
  142OYPE  C31412931   6.083   0.600   5.278
  142OYPE  H14X12932   6.125   0.515   5.326
  142OYPE  H14Y12933   6.062   0.604   5.171
  142OYPE  C31512934   5.961   0.564   5.363
  142OYPE  H15X12935   5.985   0.498   5.448
  142OYPE  H15Y12936   5.875   0.507   5.328
  142OYPE  C31612937   5.924   0.694   5.409
  142OYPE  H16X12938   6.019   0.742   5.400
  142OYPE  H16Y12939   5.887   0.681   5.508
  142OYPE  C31712940   5.891   0.812   5.330
  142OYPE  H17X12941   5.952   0.816   5.236
  142OYPE  H17Y12942   5.912   0.903   5.391
  142OYPE  C31812943   5.748   0.785   5.318
  142OYPE  H18X12944   5.709   0.871   5.262
  142OYPE  H18Y12945   5.739   0.685   5.268
  142OYPE  H18Z12946   5.704   0.777   5.421
  143OYPE     N12947   7.445   2.212   3.607
  143OYPE   HN112948   7.393   2.274   3.672
  143OYPE   HN212949   7.471   2.271   3.526
  143OYPE   HN312950   7.392   2.129   3.573
  143OYPE   C1212951   7.572   2.163   3.669
  143OYPE  H12A12952   7.610   2.083   3.602
  143OYPE  H12B12953   7.551   2.122   3.770
  143OYPE   C1112954   7.667   2.282   3.682
  143OYPE  H11A12955   7.769   2.241   3.702
  143OYPE  H11B12956   7.635   2.341   3.771
  143OYPE     P12957   7.686   2.518   3.553
  143OYPE   O1312958   7.569   2.561   3.474
  143OYPE   O1412959   7.818   2.550   3.496
  143OYPE   O1112960   7.673   2.568   3.701
  143OYPE   O1212961   7.666   2.360   3.564
  143OYPE    C112962   7.793   2.581   3.780
  143OYPE    HA12963   7.872   2.642   3.730
  143OYPE    HB12964   7.834   2.480   3.804
  143OYPE    C212965   7.765   2.651   3.914
  143OYPE    HS12966   7.846   2.620   3.985
  143OYPE   O2112967   7.637   2.616   3.970
  143OYPE   C2112968   7.626   2.492   4.010
  143OYPE   O2212969   7.714   2.409   4.015
  143OYPE   C2212970   7.481   2.461   4.043
  143OYPE   H2R12971   7.474   2.358   4.082
  143OYPE   H2S12972   7.426   2.472   3.947
  143OYPE    C312973   7.770   2.804   3.903
  143OYPE    HX12974   7.720   2.851   3.817
  143OYPE    HY12975   7.878   2.829   3.889
  143OYPE   O3112976   7.715   2.845   4.030
  143OYPE   C3112977   7.626   2.938   4.051
  143OYPE   O3212978   7.583   3.018   3.971
  143OYPE   C3212979   7.587   2.938   4.205
  143OYPE   H2X12980   7.645   2.989   4.276
  143OYPE   H2Y12981   7.537   3.033   4.225
  143OYPE   C2312982   7.418   2.556   4.144
  143OYPE   H3R12983   7.309   2.530   4.141
  143OYPE   H3S12984   7.435   2.661   4.112
  143OYPE   C2412985   7.460   2.546   4.291
  143OYPE   H4R12986   7.413   2.627   4.351
  143OYPE   H4S12987   7.569   2.567   4.297
  143OYPE   C2512988   7.427   2.415   4.358
  143OYPE   H5R12989   7.487   2.333   4.313
  143OYPE   H5S12990   7.319   2.390   4.350
  143OYPE   C2612991   7.465   2.424   4.504
  143OYPE   H6R12992   7.561   2.481   4.512
  143OYPE   H6S12993   7.483   2.320   4.539
  143OYPE   C2712994   7.355   2.491   4.586
  143OYPE   H7R12995   7.262   2.431   4.573
  143OYPE   H7S12996   7.336   2.593   4.545
  143OYPE   C2812997   7.386   2.501   4.735
  143OYPE   H8R12998   7.410   2.399   4.773
  143OYPE   H8S12999   7.292   2.534   4.785
  143OYPE   C2913000   7.499   2.595   4.767
  143OYPE   H9R13001   7.599   2.561   4.736
  143OYPE  C21013002   7.486   2.715   4.827
  143OYPE  H10R13003   7.578   2.773   4.844
  143OYPE  C21113004   7.358   2.780   4.876
  143OYPE  H11R13005   7.292   2.802   4.789
  143OYPE  H11S13006   7.386   2.879   4.918
  143OYPE  C21213007   7.281   2.712   4.992
  143OYPE  H12R13008   7.286   2.601   4.985
  143OYPE  H12S13009   7.173   2.739   4.990
  143OYPE  C21313010   7.340   2.759   5.125
  143OYPE  H13R13011   7.317   2.866   5.141
  143OYPE  H13S13012   7.451   2.743   5.124
  143OYPE  C21413013   7.287   2.691   5.248
  143OYPE  H14R13014   7.175   2.692   5.249
  143OYPE  H14S13015   7.323   2.743   5.340
  143OYPE  C21513016   7.333   2.549   5.259
  143OYPE  H15R13017   7.296   2.488   5.172
  143OYPE  H15S13018   7.285   2.536   5.359
  143OYPE  C21613019   7.471   2.498   5.282
  143OYPE  H16R13020   7.463   2.393   5.321
  143OYPE  H16S13021   7.515   2.563   5.358
  143OYPE  H16T13022   7.524   2.499   5.185
  143OYPE   C3313023   7.640   2.821   4.299
  143OYPE   H3X13024   7.732   2.769   4.262
  143OYPE   H3Y13025   7.555   2.759   4.278
  143OYPE   C3413026   7.672   2.853   4.450
  143OYPE   H4X13027   7.729   2.948   4.468
  143OYPE   H4Y13028   7.574   2.866   4.500
  143OYPE   C3513029   7.758   2.747   4.525
  143OYPE   H5X13030   7.854   2.732   4.470
  143OYPE   H5Y13031   7.703   2.651   4.519
  143OYPE   C3613032   7.793   2.776   4.674
  143OYPE   H6X13033   7.728   2.859   4.711
  143OYPE   H6Y13034   7.771   2.687   4.736
  143OYPE   C3713035   7.942   2.803   4.702
  143OYPE   H7X13036   8.005   2.752   4.627
  143OYPE   H7Y13037   7.954   2.911   4.680
  143OYPE   C3813038   8.006   2.746   4.835
  143OYPE   H8X13039   8.007   2.639   4.840
  143OYPE   H8Y13040   8.110   2.784   4.834
  143OYPE   C3913041   7.949   2.792   4.962
  143OYPE   H9X13042   8.023   2.865   4.997
  143OYPE  C31013043   7.864   2.755   5.055
  143OYPE  H10X13044   7.806   2.829   5.116
  143OYPE  C31113045   7.802   2.627   5.044
  143OYPE  H11X13046   7.693   2.638   5.059
  143OYPE  H11Y13047   7.829   2.580   4.949
  143OYPE  C31213048   7.891   2.583   5.160
  143OYPE  H12X13049   8.001   2.609   5.164
  143OYPE  H12Y13050   7.893   2.473   5.155
  143OYPE  C31313051   7.835   2.636   5.289
  143OYPE  H13X13052   7.880   2.728   5.330
  143OYPE  H13Y13053   7.724   2.651   5.278
  143OYPE  C31413054   7.846   2.538   5.391
  143OYPE  H14X13055   7.946   2.503   5.428
  143OYPE  H14Y13056   7.778   2.457   5.352
  143OYPE  C31513057   7.762   2.595   5.492
  143OYPE  H15X13058   7.664   2.627   5.454
  143OYPE  H15Y13059   7.780   2.675   5.554
  143OYPE  C31613060   7.752   2.500   5.587
  143OYPE  H16X13061   7.829   2.426   5.618
  143OYPE  H16Y13062   7.672   2.460   5.515
  143OYPE  C31713063   7.694   2.566   5.703
  143OYPE  H17X13064   7.741   2.610   5.790
  143OYPE  H17Y13065   7.719   2.480   5.770
  143OYPE  C31813066   7.554   2.632   5.658
  143OYPE  H18X13067   7.559   2.734   5.647
  143OYPE  H18Y13068   7.499   2.588   5.577
  143OYPE  H18Z13069   7.464   2.626   5.720
  144OYPE     N13070   7.256   6.196   3.529
  144OYPE   HN113071   7.339   6.133   3.528
  144OYPE   HN213072   7.171   6.149   3.495
  144OYPE   HN313073   7.281   6.274   3.463
  144OYPE   C1213074   7.241   6.248   3.670
  144OYPE  H12A13075   7.214   6.164   3.737
  144OYPE  H12B13076   7.164   6.327   3.669
  144OYPE   C1113077   7.374   6.302   3.720
  144OYPE  H11A13078   7.456   6.229   3.695
  144OYPE  H11B13079   7.375   6.312   3.830
  144OYPE     P13080   7.497   6.449   3.554
  144OYPE   O1313081   7.511   6.586   3.507
  144OYPE   O1413082   7.486   6.338   3.456
  144OYPE   O1113083   7.616   6.416   3.646
  144OYPE   O1213084   7.387   6.432   3.663
  144OYPE    C113085   7.740   6.445   3.588
  144OYPE    HA13086   7.741   6.481   3.483
  144OYPE    HB13087   7.776   6.342   3.561
  144OYPE    C213088   7.835   6.519   3.699
  144OYPE    HS13089   7.951   6.501   3.702
  144OYPE   O2113090   7.796   6.507   3.836
  144OYPE   C2113091   7.836   6.389   3.849
  144OYPE   O2213092   7.872   6.325   3.751
  144OYPE   C2213093   7.853   6.371   3.996
  144OYPE   H2R13094   7.899   6.462   4.038
  144OYPE   H2S13095   7.917   6.292   4.034
  144OYPE    C313096   7.854   6.654   3.681
  144OYPE    HX13097   7.914   6.693   3.608
  144OYPE    HY13098   7.922   6.675   3.760
  144OYPE   O3113099   7.743   6.725   3.662
  144OYPE   C3113100   7.713   6.763   3.778
  144OYPE   O3213101   7.764   6.746   3.887
  144OYPE   C3213102   7.589   6.810   3.772
  144OYPE   H2X13103   7.609   6.900   3.836
  144OYPE   H2Y13104   7.563   6.834   3.666
  144OYPE   C2313105   7.712   6.341   4.037
  144OYPE   H3R13106   7.699   6.235   4.029
  144OYPE   H3S13107   7.636   6.387   3.970
  144OYPE   C2413108   7.685   6.352   4.184
  144OYPE   H4R13109   7.707   6.458   4.204
  144OYPE   H4S13110   7.758   6.288   4.239
  144OYPE   C2513111   7.537   6.327   4.224
  144OYPE   H5R13112   7.475   6.380   4.150
  144OYPE   H5S13113   7.526   6.357   4.329
  144OYPE   C2613114   7.483   6.186   4.235
  144OYPE   H6R13115   7.486   6.136   4.332
  144OYPE   H6S13116   7.576   6.152   4.200
  144OYPE   C2713117   7.355   6.152   4.155
  144OYPE   H7R13118   7.348   6.052   4.106
  144OYPE   H7S13119   7.351   6.220   4.068
  144OYPE   C2813120   7.239   6.166   4.253
  144OYPE   H8R13121   7.147   6.157   4.193
  144OYPE   H8S13122   7.254   6.270   4.291
  144OYPE   C2913123   7.236   6.065   4.365
  144OYPE   H9R13124   7.232   5.961   4.331
  144OYPE  C21013125   7.241   6.083   4.498
  144OYPE  H10R13126   7.234   5.993   4.561
  144OYPE  C21113127   7.251   6.211   4.575
  144OYPE  H11R13128   7.227   6.298   4.509
  144OYPE  H11S13129   7.352   6.227   4.618
  144OYPE  C21213130   7.143   6.208   4.684
  144OYPE  H12R13131   7.051   6.167   4.639
  144OYPE  H12S13132   7.124   6.313   4.717
  144OYPE  C21313133   7.172   6.128   4.810
  144OYPE  H13R13134   7.193   6.021   4.788
  144OYPE  H13S13135   7.081   6.129   4.874
  144OYPE  C21413136   7.287   6.191   4.888
  144OYPE  H14R13137   7.264   6.298   4.907
  144OYPE  H14S13138   7.379   6.189   4.824
  144OYPE  C21513139   7.315   6.116   5.017
  144OYPE  H15R13140   7.415   6.143   5.056
  144OYPE  H15S13141   7.315   6.008   4.994
  144OYPE  C21613142   7.212   6.130   5.127
  144OYPE  H16R13143   7.201   6.236   5.155
  144OYPE  H16S13144   7.249   6.071   5.215
  144OYPE  H16T13145   7.115   6.087   5.094
  144OYPE   C3313146   7.509   6.700   3.839
  144OYPE   H3X13147   7.564   6.604   3.858
  144OYPE   H3Y13148   7.431   6.676   3.764
  144OYPE   C3413149   7.454   6.750   3.972
  144OYPE   H4X13150   7.404   6.848   3.955
  144OYPE   H4Y13151   7.380   6.676   4.009
  144OYPE   C3513152   7.563   6.766   4.079
  144OYPE   H5X13153   7.631   6.850   4.051
  144OYPE   H5Y13154   7.621   6.672   4.081
  144OYPE   C3613155   7.511   6.785   4.221
  144OYPE   H6X13156   7.458   6.882   4.223
  144OYPE   H6Y13157   7.435   6.709   4.243
  144OYPE   C3713158   7.627   6.775   4.322
  144OYPE   H7X13159   7.685   6.681   4.307
  144OYPE   H7Y13160   7.699   6.859   4.310
  144OYPE   C3813161   7.590   6.778   4.468
  144OYPE   H8X13162   7.529   6.863   4.484
  144OYPE   H8Y13163   7.525   6.693   4.494
  144OYPE   C3913164   7.706   6.805   4.557
  144OYPE   H9X13165   7.740   6.911   4.557
  144OYPE  C31013166   7.772   6.713   4.626
  144OYPE  H10X13167   7.863   6.744   4.681
  144OYPE  C31113168   7.740   6.566   4.624
  144OYPE  H11X13169   7.670   6.543   4.540
  144OYPE  H11Y13170   7.832   6.508   4.604
  144OYPE  C31213171   7.671   6.514   4.751
  144OYPE  H12X13172   7.646   6.407   4.731
  144OYPE  H12Y13173   7.576   6.568   4.772
  144OYPE  C31313174   7.759   6.517   4.876
  144OYPE  H13X13175   7.866   6.506   4.847
  144OYPE  H13Y13176   7.749   6.617   4.924
  144OYPE  C31413177   7.725   6.399   4.970
  144OYPE  H14X13178   7.797   6.394   5.054
  144OYPE  H14Y13179   7.748   6.306   4.915
  144OYPE  C31513180   7.579   6.393   5.024
  144OYPE  H15X13181   7.572   6.296   5.079
  144OYPE  H15Y13182   7.504   6.398   4.943
  144OYPE  C31613183   7.537   6.498   5.125
  144OYPE  H16X13184   7.572   6.600   5.095
  144OYPE  H16Y13185   7.584   6.461   5.218
  144OYPE  C31713186   7.394   6.505   5.176
  144OYPE  H17X13187   7.368   6.401   5.207
  144OYPE  H17Y13188   7.329   6.550   5.100
  144OYPE  C31813189   7.379   6.585   5.302
  144OYPE  H18X13190   7.280   6.583   5.349
  144OYPE  H18Y13191   7.454   6.536   5.367
  144OYPE  H18Z13192   7.410   6.691   5.292
  145PYPG   C1313193   3.460   3.706   7.623
  145PYPG  H13A13194   3.463   3.625   7.547
  145PYPG  H13B13195   3.526   3.674   7.708
  145PYPG   OC313196   3.331   3.736   7.666
  145PYPG   HO313197   3.356   3.822   7.706
  145PYPG   C1213198   3.510   3.837   7.560
  145PYPG  H12A13199   3.612   3.827   7.529
  145PYPG   OC213200   3.516   3.945   7.647
  145PYPG   HO213201   3.586   3.997   7.603
  145PYPG   C1113202   3.447   3.877   7.432
  145PYPG  H11A13203   3.346   3.915   7.448
  145PYPG  H11B13204   3.434   3.790   7.367
  145PYPG     P13205   3.553   3.967   7.220
  145PYPG   O1313206   3.649   4.073   7.212
  145PYPG   O1413207   3.422   3.972   7.157
  145PYPG   O1113208   3.621   3.838   7.162
  145PYPG   O1213209   3.534   3.969   7.374
  145PYPG    C113210   3.762   3.827   7.174
  145PYPG    HA13211   3.804   3.749   7.239
  145PYPG    HB13212   3.787   3.858   7.272
  145PYPG    C213213   3.827   3.735   7.076
  145PYPG    HS13214   3.916   3.682   7.117
  145PYPG   O2113215   3.850   3.836   6.985
  145PYPG   C2113216   3.956   3.823   6.925
  145PYPG   O2213217   4.048   3.744   6.944
  145PYPG   C2213218   3.935   3.919   6.816
  145PYPG   H2R13219   3.951   4.024   6.849
  145PYPG   H2S13220   3.835   3.910   6.771
  145PYPG    C313221   3.760   3.611   7.019
  145PYPG    HX13222   3.752   3.535   7.098
  145PYPG    HY13223   3.834   3.570   6.946
  145PYPG   O3113224   3.629   3.636   6.966
  145PYPG   C3113225   3.634   3.661   6.838
  145PYPG   O3213226   3.735   3.665   6.769
  145PYPG   C3213227   3.493   3.672   6.788
  145PYPG   H2X13228   3.434   3.582   6.811
  145PYPG   H2Y13229   3.440   3.741   6.854
  145PYPG   C2313230   4.034   3.879   6.716
  145PYPG   H3R13231   4.051   3.779   6.677
  145PYPG   H3S13232   4.129   3.890   6.777
  145PYPG   C2413233   4.014   3.979   6.606
  145PYPG   H4R13234   4.112   3.953   6.558
  145PYPG   H4S13235   3.994   4.080   6.649
  145PYPG   C2513236   3.947   3.990   6.478
  145PYPG   H5R13237   3.982   4.067   6.405
  145PYPG   H5S13238   3.852   4.029   6.514
  145PYPG   C2613239   3.989   3.874   6.400
  145PYPG   H6R13240   3.967   3.787   6.465
  145PYPG   H6S13241   4.100   3.877   6.378
  145PYPG   C2713242   3.909   3.891   6.276
  145PYPG   H7R13243   3.920   3.993   6.231
  145PYPG   H7S13244   3.804   3.880   6.311
  145PYPG   C2813245   3.944   3.784   6.178
  145PYPG   H8R13246   3.857   3.785   6.109
  145PYPG   H8S13247   3.944   3.689   6.236
  145PYPG   C2913248   4.076   3.803   6.108
  145PYPG   H9R13249   4.125   3.901   6.122
  145PYPG  C21013250   4.130   3.715   6.022
  145PYPG  H10R13251   4.233   3.733   5.988
  145PYPG  C21113252   4.073   3.582   5.976
  145PYPG  H11R13253   4.074   3.507   6.058
  145PYPG  H11S13254   4.137   3.541   5.895
  145PYPG  C21213255   3.929   3.588   5.919
  145PYPG  H12R13256   3.858   3.603   6.003
  145PYPG  H12S13257   3.905   3.491   5.872
  145PYPG  C21313258   3.908   3.702   5.819
  145PYPG  H13R13259   3.997   3.714   5.754
  145PYPG  H13S13260   3.901   3.795   5.881
  145PYPG  C21413261   3.783   3.691   5.728
  145PYPG  H14R13262   3.818   3.703   5.623
  145PYPG  H14S13263   3.734   3.591   5.734
  145PYPG  C21513264   3.679   3.801   5.755
  145PYPG  H15R13265   3.737   3.896   5.760
  145PYPG  H15S13266   3.631   3.785   5.854
  145PYPG  C21613267   3.576   3.814   5.643
  145PYPG  H16R13268   3.631   3.833   5.548
  145PYPG  H16S13269   3.506   3.900   5.658
  145PYPG  H16T13270   3.515   3.722   5.630
  145PYPG   C3313271   3.492   3.714   6.638
  145PYPG   H3X13272   3.383   3.731   6.625
  145PYPG   H3Y13273   3.512   3.629   6.572
  145PYPG   C3413274   3.587   3.833   6.591
  145PYPG   H4X13275   3.694   3.816   6.604
  145PYPG   H4Y13276   3.576   3.925   6.649
  145PYPG   C3513277   3.560   3.893   6.451
  145PYPG   H5X13278   3.455   3.872   6.450
  145PYPG   H5Y13279   3.582   3.820   6.371
  145PYPG   C3613280   3.606   4.049   6.433
  145PYPG   H6X13281   3.711   4.046   6.407
  145PYPG   H6Y13282   3.586   4.112   6.519
  145PYPG   C3713283   3.582   4.131   6.304
  145PYPG   H7X13284   3.546   4.032   6.288
  145PYPG   H7Y13285   3.489   4.174   6.282
  145PYPG   C3813286   3.536   4.277   6.265
  145PYPG   H8X13287   3.510   4.332   6.360
  145PYPG   H8Y13288   3.462   4.318   6.183
  145PYPG   C3913289   3.662   4.279   6.187
  145PYPG   H9X13290   3.745   4.255   6.257
  145PYPG   H9Y13291   3.652   4.379   6.145
  145PYPG  C31013292   3.674   4.187   6.068
  145PYPG  H10X13293   3.579   4.200   6.022
  145PYPG  H10Y13294   3.687   4.079   6.086
  145PYPG  C31113295   3.773   4.240   5.969
  145PYPG  H11X13296   3.782   4.164   5.888
  145PYPG  H11Y13297   3.869   4.248   6.025
  145PYPG  C31213298   3.730   4.372   5.903
  145PYPG  H12X13299   3.637   4.361   5.847
  145PYPG  H12Y13300   3.696   4.453   5.968
  145PYPG  C31313301   3.843   4.421   5.817
  145PYPG  H13X13302   3.844   4.531   5.809
  145PYPG  H13Y13303   3.940   4.388   5.861
  145PYPG  C31413304   3.827   4.355   5.684
  145PYPG  H14X13305   3.822   4.244   5.695
  145PYPG  H14Y13306   3.734   4.388   5.631
  145PYPG  C31513307   3.947   4.376   5.602
  145PYPG  H15X13308   3.957   4.481   5.574
  145PYPG  H15Y13309   4.044   4.350   5.651
  145PYPG  C31613310   3.927   4.295   5.480
  145PYPG  H16X13311   3.835   4.327   5.425
  145PYPG  H16Y13312   3.935   4.187   5.481
  145PYPG  H16Z13313   4.021   4.323   5.433
  146PYPG   C1313314   3.451   5.831   7.577
  146PYPG  H13A13315   3.552   5.806   7.537
  146PYPG  H13B13316   3.445   5.795   7.682
  146PYPG   OC313317   3.361   5.765   7.489
  146PYPG   HO313318   3.335   5.838   7.430
  146PYPG   C1213319   3.435   5.985   7.570
  146PYPG  H12A13320   3.497   6.032   7.649
  146PYPG   OC213321   3.303   6.031   7.597
  146PYPG   HO213322   3.291   6.114   7.546
  146PYPG   C1113323   3.487   6.031   7.434
  146PYPG  H11A13324   3.581   5.979   7.409
  146PYPG  H11B13325   3.518   6.137   7.446
  146PYPG     P13326   3.329   6.118   7.246
  146PYPG   O1313327   3.262   6.203   7.347
  146PYPG   O1413328   3.263   6.081   7.120
  146PYPG   O1113329   3.473   6.168   7.211
  146PYPG   O1213330   3.391   6.002   7.330
  146PYPG    C113331   3.573   6.090   7.151
  146PYPG    HA13332   3.544   5.997   7.101
  146PYPG    HB13333   3.675   6.106   7.201
  146PYPG    C213334   3.590   6.167   7.034
  146PYPG    HS13335   3.651   6.242   7.070
  146PYPG   O2113336   3.450   6.207   6.975
  146PYPG   C2113337   3.373   6.333   6.968
  146PYPG   O2213338   3.400   6.446   6.993
  146PYPG   C2213339   3.290   6.340   6.851
  146PYPG   H2R13340   3.251   6.242   6.823
  146PYPG   H2S13341   3.362   6.365   6.780
  146PYPG    C313342   3.696   6.105   6.916
  146PYPG    HX13343   3.790   6.073   6.966
  146PYPG    HY13344   3.753   6.183   6.857
  146PYPG   O3113345   3.641   6.011   6.823
  146PYPG   C3113346   3.587   6.038   6.704
  146PYPG   O3213347   3.615   6.121   6.623
  146PYPG   C3213348   3.501   5.923   6.662
  146PYPG   H2X13349   3.550   5.887   6.569
  146PYPG   H2Y13350   3.509   5.849   6.743
  146PYPG   C2313351   3.248   6.484   6.797
  146PYPG   H3R13352   3.175   6.537   6.856
  146PYPG   H3S13353   3.221   6.449   6.695
  146PYPG   C2413354   3.293   6.577   6.688
  146PYPG   H4R13355   3.397   6.597   6.709
  146PYPG   H4S13356   3.236   6.660   6.726
  146PYPG   C2513357   3.225   6.612   6.552
  146PYPG   H5R13358   3.231   6.717   6.545
  146PYPG   H5S13359   3.116   6.606   6.551
  146PYPG   C2613360   3.304   6.568   6.433
  146PYPG   H6R13361   3.270   6.472   6.414
  146PYPG   H6S13362   3.405   6.581   6.459
  146PYPG   C2713363   3.319   6.618   6.292
  146PYPG   H7R13364   3.380   6.703   6.325
  146PYPG   H7S13365   3.214   6.634   6.257
  146PYPG   C2813366   3.419   6.585   6.183
  146PYPG   H8R13367   3.519   6.563   6.205
  146PYPG   H8S13368   3.456   6.647   6.105
  146PYPG   C2913369   3.340   6.513   6.092
  146PYPG   H9R13370   3.251   6.491   6.144
  146PYPG  C21013371   3.352   6.485   5.966
  146PYPG  H10R13372   3.345   6.385   5.925
  146PYPG  C21113373   3.447   6.522   5.880
  146PYPG  H11R13374   3.474   6.618   5.910
  146PYPG  H11S13375   3.367   6.551   5.819
  146PYPG  C21213376   3.539   6.420   5.823
  146PYPG  H12R13377   3.514   6.311   5.817
  146PYPG  H12S13378   3.615   6.432   5.896
  146PYPG  C21313379   3.616   6.478   5.710
  146PYPG  H13R13380   3.717   6.435   5.709
  146PYPG  H13S13381   3.636   6.581   5.739
  146PYPG  C21413382   3.537   6.466   5.585
  146PYPG  H14R13383   3.443   6.513   5.597
  146PYPG  H14S13384   3.580   6.526   5.505
  146PYPG  C21513385   3.518   6.323   5.549
  146PYPG  H15R13386   3.490   6.251   5.627
  146PYPG  H15S13387   3.626   6.307   5.529
  146PYPG  C21613388   3.425   6.298   5.430
  146PYPG  H16R13389   3.446   6.371   5.351
  146PYPG  H16S13390   3.321   6.288   5.444
  146PYPG  H16T13391   3.420   6.193   5.398
  146PYPG   C3313392   3.354   5.956   6.626
  146PYPG   H3X13393   3.308   6.022   6.704
  146PYPG   H3Y13394   3.301   5.859   6.623
  146PYPG   C3413395   3.333   5.992   6.477
  146PYPG   H4X13396   3.365   5.925   6.401
  146PYPG   H4Y13397   3.428   6.038   6.444
  146PYPG   C3513398   3.180   5.983   6.421
  146PYPG   H5X13399   3.156   6.045   6.508
  146PYPG   H5Y13400   3.118   5.909   6.467
  146PYPG   C3613401   3.114   6.016   6.268
  146PYPG   H6X13402   3.170   5.945   6.210
  146PYPG   H6Y13403   3.150   6.042   6.166
  146PYPG   C3713404   2.996   6.133   6.254
  146PYPG   H7X13405   2.991   6.046   6.305
  146PYPG   H7Y13406   2.933   6.181   6.332
  146PYPG   C3813407   2.940   6.204   6.137
  146PYPG   H8X13408   2.997   6.303   6.139
  146PYPG   H8Y13409   2.837   6.240   6.139
  146PYPG   C3913410   2.957   6.101   6.030
  146PYPG   H9X13411   2.985   5.996   6.040
  146PYPG   H9Y13412   3.052   6.141   6.042
  146PYPG  C31013413   2.903   6.128   5.895
  146PYPG  H10X13414   2.940   6.225   5.884
  146PYPG  H10Y13415   2.799   6.158   5.912
  146PYPG  C31113416   2.952   6.047   5.771
  146PYPG  H11X13417   2.939   5.942   5.797
  146PYPG  H11Y13418   3.058   6.045   5.740
  146PYPG  C31213419   2.892   6.090   5.637
  146PYPG  H12X13420   2.899   6.021   5.552
  146PYPG  H12Y13421   2.788   6.124   5.654
  146PYPG  C31313422   2.985   6.190   5.576
  146PYPG  H13X13423   2.976   6.280   5.633
  146PYPG  H13Y13424   3.083   6.192   5.616
  146PYPG  C31413425   2.966   6.212   5.422
  146PYPG  H14X13426   2.866   6.191   5.377
  146PYPG  H14Y13427   2.982   6.318   5.392
  146PYPG  C31513428   3.064   6.215   5.326
  146PYPG  H15X13429   3.001   6.230   5.237
  146PYPG  H15Y13430   3.167   6.255   5.339
  146PYPG  C31613431   3.083   6.091   5.325
  146PYPG  H16X13432   2.990   6.031   5.322
  146PYPG  H16Y13433   3.129   6.080   5.429
  146PYPG  H16Z13434   3.157   6.068   5.246
  147PYPG   C1313435   6.334   3.925   7.560
  147PYPG  H13A13436   6.401   3.876   7.486
  147PYPG  H13B13437   6.393   4.000   7.618
  147PYPG   OC313438   6.285   3.827   7.652
  147PYPG   HO313439   6.263   3.882   7.730
  147PYPG   C1213440   6.220   3.998   7.485
  147PYPG  H12A13441   6.265   4.073   7.416
  147PYPG   OC213442   6.135   4.071   7.574
  147PYPG   HO213443   6.054   4.076   7.521
  147PYPG   C1113444   6.134   3.905   7.397
  147PYPG  H11A13445   6.095   3.820   7.457
  147PYPG  H11B13446   6.199   3.861   7.318
  147PYPG     P13447   5.922   3.899   7.251
  147PYPG   O1313448   5.815   3.846   7.338
  147PYPG   O1413449   5.994   3.803   7.165
  147PYPG   O1113450   5.862   4.017   7.164
  147PYPG   O1213451   6.026   3.981   7.340
  147PYPG    C113452   5.793   4.124   7.228
  147PYPG    HA13453   5.814   4.134   7.337
  147PYPG    HB13454   5.684   4.103   7.221
  147PYPG    C213455   5.826   4.259   7.157
  147PYPG    HS13456   5.759   4.338   7.199
  147PYPG   O2113457   5.798   4.245   7.019
  147PYPG   C2113458   5.672   4.220   6.996
  147PYPG   O2213459   5.577   4.245   7.070
  147PYPG   C2213460   5.664   4.181   6.852
  147PYPG   H2R13461   5.561   4.155   6.820
  147PYPG   H2S13462   5.742   4.108   6.825
  147PYPG    C313463   5.973   4.308   7.174
  147PYPG    HX13464   5.984   4.328   7.282
  147PYPG    HY13465   5.987   4.406   7.122
  147PYPG   O3113466   6.074   4.211   7.144
  147PYPG   C3113467   6.136   4.218   7.028
  147PYPG   O3213468   6.119   4.303   6.941
  147PYPG   C3213469   6.243   4.111   7.024
  147PYPG   H2X13470   6.341   4.157   7.045
  147PYPG   H2Y13471   6.221   4.033   7.101
  147PYPG   C2313472   5.703   4.302   6.775
  147PYPG   H3R13473   5.801   4.353   6.785
  147PYPG   H3S13474   5.634   4.370   6.830
  147PYPG   C2413475   5.681   4.272   6.626
  147PYPG   H4R13476   5.713   4.360   6.570
  147PYPG   H4S13477   5.577   4.244   6.597
  147PYPG   C2513478   5.781   4.187   6.568
  147PYPG   H5R13479   5.749   4.088   6.604
  147PYPG   H5S13480   5.877   4.223   6.612
  147PYPG   C2613481   5.784   4.195   6.416
  147PYPG   H6R13482   5.807   4.298   6.378
  147PYPG   H6S13483   5.685   4.165   6.375
  147PYPG   C2713484   5.892   4.094   6.381
  147PYPG   H7R13485   5.843   3.995   6.393
  147PYPG   H7S13486   5.971   4.099   6.459
  147PYPG   C2813487   5.957   4.109   6.245
  147PYPG   H8R13488   6.032   4.027   6.236
  147PYPG   H8S13489   6.014   4.205   6.243
  147PYPG   C2913490   5.852   4.098   6.138
  147PYPG   H9R13491   5.784   4.013   6.147
  147PYPG  C21013492   5.828   4.185   6.040
  147PYPG  H10R13493   5.740   4.174   5.976
  147PYPG  C21113494   5.902   4.311   6.016
  147PYPG  H11R13495   5.976   4.334   6.095
  147PYPG  H11S13496   5.820   4.383   6.024
  147PYPG  C21213497   5.967   4.321   5.876
  147PYPG  H12R13498   6.017   4.229   5.845
  147PYPG  H12S13499   6.048   4.398   5.883
  147PYPG  C21313500   5.867   4.355   5.763
  147PYPG  H13R13501   5.800   4.435   5.794
  147PYPG  H13S13502   5.788   4.282   5.750
  147PYPG  C21413503   5.941   4.401   5.635
  147PYPG  H14R13504   6.004   4.474   5.690
  147PYPG  H14S13505   6.035   4.348   5.610
  147PYPG  C21513506   5.845   4.444   5.503
  147PYPG  H15R13507   5.775   4.364   5.527
  147PYPG  H15S13508   5.918   4.426   5.422
  147PYPG  C21613509   5.726   4.555   5.454
  147PYPG  H16R13510   5.738   4.664   5.470
  147PYPG  H16S13511   5.646   4.576   5.527
  147PYPG  H16T13512   5.742   4.611   5.359
  147PYPG   C3313513   6.235   4.043   6.890
  147PYPG   H3X13514   6.326   3.983   6.867
  147PYPG   H3Y13515   6.220   4.111   6.802
  147PYPG   C3413516   6.108   3.960   6.904
  147PYPG   H4X13517   6.013   4.015   6.900
  147PYPG   H4Y13518   6.112   3.884   6.986
  147PYPG   C3513519   6.098   3.890   6.781
  147PYPG   H5X13520   6.181   3.815   6.811
  147PYPG   H5Y13521   6.159   3.946   6.708
  147PYPG   C3613522   5.946   3.844   6.721
  147PYPG   H6X13523   5.872   3.918   6.712
  147PYPG   H6Y13524   5.928   3.792   6.818
  147PYPG   C3713525   5.905   3.767   6.572
  147PYPG   H7X13526   5.958   3.824   6.498
  147PYPG   H7Y13527   5.951   3.670   6.549
  147PYPG   C3813528   5.818   3.648   6.510
  147PYPG   H8X13529   5.741   3.593   6.563
  147PYPG   H8Y13530   5.858   3.546   6.473
  147PYPG   C3913531   5.778   3.736   6.407
  147PYPG   H9X13532   5.856   3.792   6.349
  147PYPG   H9Y13533   5.731   3.815   6.468
  147PYPG  C31013534   5.703   3.650   6.321
  147PYPG  H10X13535   5.644   3.583   6.385
  147PYPG  H10Y13536   5.761   3.586   6.254
  147PYPG  C31113537   5.632   3.751   6.246
  147PYPG  H11X13538   5.703   3.825   6.202
  147PYPG  H11Y13539   5.568   3.800   6.323
  147PYPG  C31213540   5.559   3.679   6.141
  147PYPG  H12X13541   5.623   3.640   6.059
  147PYPG  H12Y13542   5.506   3.592   6.186
  147PYPG  C31313543   5.462   3.776   6.090
  147PYPG  H13X13544   5.399   3.714   6.027
  147PYPG  H13Y13545   5.405   3.826   6.173
  147PYPG  C31413546   5.518   3.876   5.994
  147PYPG  H14X13547   5.420   3.905   5.956
  147PYPG  H14Y13548   5.572   3.958   6.045
  147PYPG  C31513549   5.597   3.819   5.880
  147PYPG  H15X13550   5.697   3.797   5.923
  147PYPG  H15Y13551   5.547   3.726   5.843
  147PYPG  C31613552   5.616   3.916   5.765
  147PYPG  H16X13553   5.523   3.915   5.707
  147PYPG  H16Y13554   5.696   3.880   5.699
  147PYPG  H16Z13555   5.641   4.020   5.794
  148PYPG   C1313556   4.986   1.959   7.423
  148PYPG  H13A13557   4.937   1.862   7.445
  148PYPG  H13B13558   5.047   1.991   7.510
  148PYPG   OC313559   4.884   2.055   7.396
  148PYPG   HO313560   4.862   2.108   7.473
  148PYPG   C1213561   5.083   1.934   7.303
  148PYPG  H12A13562   5.152   2.021   7.294
  148PYPG   OC213563   5.015   1.918   7.181
  148PYPG   HO213564   5.079   1.906   7.111
  148PYPG   C1113565   5.158   1.801   7.313
  148PYPG  H11A13566   5.239   1.805   7.235
  148PYPG  H11B13567   5.090   1.717   7.284
  148PYPG     P13568   5.357   1.776   7.473
  148PYPG   O1313569   5.414   1.652   7.418
  148PYPG   O1413570   5.386   1.810   7.613
  148PYPG   O1113571   5.407   1.895   7.383
  148PYPG   O1213572   5.201   1.778   7.447
  148PYPG    C113573   5.545   1.929   7.402
  148PYPG    HA13574   5.608   1.841   7.434
  148PYPG    HB13575   5.555   2.010   7.476
  148PYPG    C213576   5.614   1.971   7.273
  148PYPG    HS13577   5.700   2.035   7.303
  148PYPG   O2113578   5.531   2.045   7.182
  148PYPG   C2113579   5.483   2.164   7.211
  148PYPG   O2213580   5.477   2.219   7.319
  148PYPG   C2213581   5.419   2.226   7.085
  148PYPG   H2R13582   5.492   2.294   7.036
  148PYPG   H2S13583   5.331   2.286   7.118
  148PYPG    C313584   5.667   1.837   7.204
  148PYPG    HX13585   5.736   1.789   7.276
  148PYPG    HY13586   5.742   1.856   7.130
  148PYPG   O3113587   5.573   1.734   7.159
  148PYPG   C3113588   5.496   1.764   7.056
  148PYPG   O3213589   5.488   1.870   7.002
  148PYPG   C3213590   5.399   1.671   6.991
  148PYPG   H2X13591   5.419   1.567   7.020
  148PYPG   H2Y13592   5.307   1.716   7.035
  148PYPG   C2313593   5.368   2.124   6.982
  148PYPG   H3R13594   5.322   2.037   7.034
  148PYPG   H3S13595   5.457   2.084   6.930
  148PYPG   C2413596   5.266   2.189   6.886
  148PYPG   H4R13597   5.189   2.241   6.944
  148PYPG   H4S13598   5.213   2.107   6.833
  148PYPG   C2513599   5.321   2.294   6.788
  148PYPG   H5R13600   5.366   2.383   6.839
  148PYPG   H5S13601   5.248   2.325   6.710
  148PYPG   C2613602   5.430   2.231   6.711
  148PYPG   H6R13603   5.510   2.233   6.789
  148PYPG   H6S13604   5.466   2.303   6.632
  148PYPG   C2713605   5.375   2.091   6.659
  148PYPG   H7R13606   5.312   2.111   6.569
  148PYPG   H7S13607   5.339   2.024   6.739
  148PYPG   C2813608   5.450   1.953   6.640
  148PYPG   H8R13609   5.552   1.935   6.655
  148PYPG   H8S13610   5.474   2.048   6.609
  148PYPG   C2913611   5.440   1.850   6.532
  148PYPG   H9R13612   5.543   1.798   6.536
  148PYPG  C21013613   5.414   1.857   6.399
  148PYPG  H10R13614   5.429   1.750   6.373
  148PYPG  C21113615   5.382   1.960   6.273
  148PYPG  H11R13616   5.398   2.067   6.293
  148PYPG  H11S13617   5.283   1.938   6.231
  148PYPG  C21213618   5.445   1.974   6.119
  148PYPG  H12R13619   5.418   1.878   6.078
  148PYPG  H12S13620   5.552   1.985   6.098
  148PYPG  C21313621   5.444   2.088   6.015
  148PYPG  H13R13622   5.462   2.182   6.071
  148PYPG  H13S13623   5.346   2.073   5.970
  148PYPG  C21413624   5.556   2.090   5.900
  148PYPG  H14R13625   5.535   2.181   5.845
  148PYPG  H14S13626   5.653   2.094   5.945
  148PYPG  C21513627   5.571   1.988   5.786
  148PYPG  H15R13628   5.649   1.913   5.807
  148PYPG  H15S13629   5.634   2.013   5.701
  148PYPG  C21613630   5.434   1.939   5.742
  148PYPG  H16R13631   5.380   1.894   5.828
  148PYPG  H16S13632   5.444   1.856   5.668
  148PYPG  H16T13633   5.378   2.023   5.700
  148PYPG   C3313634   5.392   1.696   6.834
  148PYPG   H3X13635   5.492   1.697   6.786
  148PYPG   H3Y13636   5.345   1.795   6.811
  148PYPG   C3413637   5.305   1.592   6.768
  148PYPG   H4X13638   5.216   1.603   6.834
  148PYPG   H4Y13639   5.353   1.492   6.773
  148PYPG   C3513640   5.242   1.614   6.630
  148PYPG   H5X13641   5.181   1.523   6.609
  148PYPG   H5Y13642   5.318   1.611   6.551
  148PYPG   C3613643   5.155   1.742   6.626
  148PYPG   H6X13644   5.218   1.830   6.646
  148PYPG   H6Y13645   5.079   1.746   6.708
  148PYPG   C3713646   5.088   1.760   6.490
  148PYPG   H7X13647   5.166   1.755   6.412
  148PYPG   H7Y13648   5.010   1.688   6.472
  148PYPG   C3813649   5.009   1.888   6.478
  148PYPG   H8X13650   4.942   1.890   6.565
  148PYPG   H8Y13651   4.943   1.887   6.388
  148PYPG   C3913652   5.109   1.999   6.478
  148PYPG   H9X13653   5.197   1.971   6.420
  148PYPG   H9Y13654   5.139   2.022   6.581
  148PYPG  C31013655   5.062   2.122   6.415
  148PYPG  H10X13656   5.018   2.187   6.496
  148PYPG  H10Y13657   4.992   2.103   6.328
  148PYPG  C31113658   5.166   2.212   6.371
  148PYPG  H11X13659   5.242   2.166   6.306
  148PYPG  H11Y13660   5.214   2.269   6.456
  148PYPG  C31213661   5.087   2.301   6.288
  148PYPG  H12X13662   5.035   2.266   6.197
  148PYPG  H12Y13663   5.015   2.352   6.357
  148PYPG  C31313664   5.194   2.378   6.233
  148PYPG  H13X13665   5.184   2.456   6.307
  148PYPG  H13Y13666   5.296   2.353   6.263
  148PYPG  C31413667   5.166   2.430   6.093
  148PYPG  H14X13668   5.086   2.475   6.139
  148PYPG  H14Y13669   5.192   2.527   6.047
  148PYPG  C31513670   5.178   2.352   5.971
  148PYPG  H15X13671   5.276   2.310   5.966
  148PYPG  H15Y13672   5.119   2.265   5.995
  148PYPG  C31613673   5.160   2.424   5.836
  148PYPG  H16X13674   5.188   2.339   5.771
  148PYPG  H16Y13675   5.215   2.511   5.801
  148PYPG  H16Z13676   5.065   2.470   5.810
  149PYPG   C1313677   3.421   1.795   7.624
  149PYPG  H13A13678   3.442   1.738   7.718
  149PYPG  H13B13679   3.469   1.895   7.633
  149PYPG   OC313680   3.278   1.808   7.606
  149PYPG   HO313681   3.253   1.877   7.667
  149PYPG   C1213682   3.488   1.714   7.511
  149PYPG  H12A13683   3.594   1.697   7.533
  149PYPG   OC213684   3.494   1.787   7.389
  149PYPG   HO213685   3.499   1.714   7.323
  149PYPG   C1113686   3.424   1.574   7.499
  149PYPG  H11A13687   3.313   1.581   7.504
  149PYPG  H11B13688   3.451   1.512   7.587
  149PYPG     P13689   3.370   1.502   7.260
  149PYPG   O1313690   3.363   1.633   7.191
  149PYPG   O1413691   3.245   1.432   7.295
  149PYPG   O1113692   3.453   1.410   7.178
  149PYPG   O1213693   3.470   1.512   7.382
  149PYPG    C113694   3.553   1.320   7.231
  149PYPG    HA13695   3.513   1.252   7.308
  149PYPG    HB13696   3.644   1.374   7.267
  149PYPG    C213697   3.602   1.240   7.117
  149PYPG    HS13698   3.705   1.198   7.135
  149PYPG   O2113699   3.581   1.340   7.010
  149PYPG   C2113700   3.633   1.472   6.973
  149PYPG   O2213701   3.690   1.530   7.064
  149PYPG   C2213702   3.668   1.501   6.784
  149PYPG   H2R13703   3.742   1.580   6.774
  149PYPG   H2S13704   3.570   1.516   6.746
  149PYPG    C313705   3.516   1.109   7.096
  149PYPG    HX13706   3.519   1.046   7.189
  149PYPG    HY13707   3.549   1.039   7.013
  149PYPG   O3113708   3.385   1.165   7.083
  149PYPG   C3113709   3.337   1.161   6.963
  149PYPG   O3213710   3.352   1.063   6.892
  149PYPG   C3213711   3.248   1.284   6.928
  149PYPG   H2X13712   3.151   1.247   6.970
  149PYPG   H2Y13713   3.284   1.372   6.984
  149PYPG   C2313714   3.766   1.409   6.654
  149PYPG   H3R13715   3.711   1.324   6.606
  149PYPG   H3S13716   3.851   1.342   6.688
  149PYPG   C2413717   3.841   1.439   6.531
  149PYPG   H4R13718   3.939   1.472   6.574
  149PYPG   H4S13719   3.765   1.507   6.492
  149PYPG   C2513720   3.872   1.311   6.445
  149PYPG   H5R13721   3.915   1.223   6.500
  149PYPG   H5S13722   3.948   1.344   6.372
  149PYPG   C2613723   3.757   1.257   6.361
  149PYPG   H6R13724   3.697   1.338   6.316
  149PYPG   H6S13725   3.688   1.204   6.426
  149PYPG   C2713726   3.808   1.157   6.258
  149PYPG   H7R13727   3.724   1.092   6.244
  149PYPG   H7S13728   3.890   1.096   6.300
  149PYPG   C2813729   3.845   1.218   6.123
  149PYPG   H8R13730   3.898   1.146   6.058
  149PYPG   H8S13731   3.913   1.300   6.150
  149PYPG   C2913732   3.724   1.270   6.052
  149PYPG   H9R13733   3.651   1.197   6.023
  149PYPG  C21013734   3.700   1.395   6.015
  149PYPG  H10R13735   3.603   1.417   5.968
  149PYPG  C21113736   3.796   1.507   6.040
  149PYPG  H11R13737   3.840   1.502   6.143
  149PYPG  H11S13738   3.744   1.605   6.034
  149PYPG  C21213739   3.915   1.505   5.943
  149PYPG  H12R13740   3.965   1.406   5.940
  149PYPG  H12S13741   3.988   1.581   5.979
  149PYPG  C21313742   3.876   1.544   5.802
  149PYPG  H13R13743   3.832   1.645   5.808
  149PYPG  H13S13744   3.801   1.476   5.756
  149PYPG  C21413745   4.001   1.550   5.717
  149PYPG  H14R13746   4.080   1.608   5.771
  149PYPG  H14S13747   4.041   1.449   5.696
  149PYPG  C21513748   3.978   1.622   5.588
  149PYPG  H15R13749   3.929   1.719   5.606
  149PYPG  H15S13750   3.907   1.575   5.517
  149PYPG  C21613751   4.114   1.649   5.532
  149PYPG  H16R13752   4.131   1.683   5.433
  149PYPG  H16S13753   4.169   1.558   5.502
  149PYPG  H16T13754   4.160   1.744   5.569
  149PYPG   C3313755   3.219   1.330   6.780
  149PYPG   H3X13756   3.116   1.373   6.774
  149PYPG   H3Y13757   3.225   1.248   6.708
  149PYPG   C3413758   3.320   1.430   6.726
  149PYPG   H4X13759   3.408   1.371   6.707
  149PYPG   H4Y13760   3.352   1.501   6.804
  149PYPG   C3513761   3.289   1.494   6.590
  149PYPG   H5X13762   3.218   1.577   6.609
  149PYPG   H5Y13763   3.240   1.421   6.521
  149PYPG   C3613764   3.414   1.551   6.519
  149PYPG   H6X13765   3.478   1.470   6.478
  149PYPG   H6Y13766   3.475   1.609   6.591
  149PYPG   C3713767   3.376   1.645   6.402
  149PYPG   H7X13768   3.309   1.588   6.335
  149PYPG   H7Y13769   3.320   1.733   6.441
  149PYPG   C3813770   3.501   1.696   6.330
  149PYPG   H8X13771   3.573   1.612   6.317
  149PYPG   H8Y13772   3.548   1.775   6.393
  149PYPG   C3913773   3.482   1.759   6.192
  149PYPG   H9X13774   3.582   1.754   6.144
  149PYPG   H9Y13775   3.449   1.865   6.198
  149PYPG  C31013776   3.392   1.686   6.094
  149PYPG  H10X13777   3.288   1.702   6.130
  149PYPG  H10Y13778   3.418   1.578   6.098
  149PYPG  C31113779   3.407   1.744   5.952
  149PYPG  H11X13780   3.401   1.855   5.954
  149PYPG  H11Y13781   3.322   1.705   5.891
  149PYPG  C31213782   3.535   1.703   5.879
  149PYPG  H12X13783   3.620   1.759   5.921
  149PYPG  H12Y13784   3.555   1.597   5.906
  149PYPG  C31313785   3.527   1.712   5.724
  149PYPG  H13X13786   3.623   1.669   5.684
  149PYPG  H13Y13787   3.445   1.645   5.693
  149PYPG  C31413788   3.489   1.847   5.653
  149PYPG  H14X13789   3.486   1.835   5.542
  149PYPG  H14Y13790   3.401   1.895   5.699
  149PYPG  C31513791   3.600   1.944   5.669
  149PYPG  H15X13792   3.611   1.918   5.777
  149PYPG  H15Y13793   3.670   1.892   5.599
  149PYPG  C31613794   3.624   2.094   5.640
  149PYPG  H16X13795   3.727   2.128   5.670
  149PYPG  H16Y13796   3.557   2.158   5.700
  149PYPG  H16Z13797   3.625   2.109   5.531
  150PYPG   C1313798   1.484   4.762   7.576
  150PYPG  H13A13799   1.432   4.695   7.643
  150PYPG  H13B13800   1.481   4.866   7.618
  150PYPG   OC313801   1.408   4.746   7.457
  150PYPG   HO313802   1.357   4.667   7.471
  150PYPG   C1213803   1.625   4.700   7.575
  150PYPG  H12A13804   1.646   4.685   7.683
  150PYPG   OC213805   1.727   4.790   7.533
  150PYPG   HO213806   1.788   4.737   7.480
  150PYPG   C1113807   1.637   4.560   7.507
  150PYPG  H11A13808   1.535   4.524   7.476
  150PYPG  H11B13809   1.671   4.483   7.579
  150PYPG     P13810   1.687   4.598   7.250
  150PYPG   O1313811   1.683   4.744   7.229
  150PYPG   O1413812   1.571   4.515   7.217
  150PYPG   O1113813   1.811   4.542   7.170
  150PYPG   O1213814   1.731   4.564   7.400
  150PYPG    C113815   1.933   4.522   7.243
  150PYPG    HA13816   1.919   4.467   7.340
  150PYPG    HB13817   1.983   4.619   7.262
  150PYPG    C213818   2.032   4.438   7.164
  150PYPG    HS13819   2.132   4.444   7.215
  150PYPG   O2113820   2.043   4.472   7.028
  150PYPG   C2113821   2.110   4.577   7.004
  150PYPG   O2213822   2.163   4.652   7.084
  150PYPG   C2213823   2.114   4.594   6.855
  150PYPG   H2R13824   2.066   4.692   6.838
  150PYPG   H2S13825   2.054   4.517   6.803
  150PYPG    C313826   1.986   4.295   7.168
  150PYPG    HX13827   1.982   4.275   7.277
  150PYPG    HY13828   2.065   4.236   7.115
  150PYPG   O3113829   1.854   4.260   7.124
  150PYPG   C3113830   1.845   4.234   6.998
  150PYPG   O3213831   1.934   4.248   6.915
  150PYPG   C3213832   1.701   4.207   6.962
  150PYPG   H2X13833   1.689   4.102   6.927
  150PYPG   H2Y13834   1.637   4.221   7.052
  150PYPG   C2313835   2.260   4.579   6.809
  150PYPG   H3R13836   2.312   4.488   6.838
  150PYPG   H3S13837   2.327   4.644   6.866
  150PYPG   C2413838   2.270   4.598   6.660
  150PYPG   H4R13839   2.370   4.642   6.632
  150PYPG   H4S13840   2.193   4.670   6.625
  150PYPG   C2513841   2.242   4.463   6.593
  150PYPG   H5R13842   2.201   4.395   6.669
  150PYPG   H5S13843   2.342   4.426   6.558
  150PYPG   C2613844   2.129   4.461   6.486
  150PYPG   H6R13845   2.157   4.482   6.386
  150PYPG   H6S13846   2.061   4.547   6.482
  150PYPG   C2713847   2.122   4.336   6.408
  150PYPG   H7R13848   2.052   4.284   6.474
  150PYPG   H7S13849   2.222   4.287   6.407
  150PYPG   C2813850   2.068   4.338   6.261
  150PYPG   H8R13851   2.003   4.252   6.273
  150PYPG   H8S13852   2.153   4.306   6.193
  150PYPG   C2913853   1.990   4.451   6.195
  150PYPG   H9R13854   2.047   4.542   6.182
  150PYPG  C21013855   1.882   4.457   6.117
  150PYPG  H10R13856   1.843   4.557   6.093
  150PYPG  C21113857   1.800   4.344   6.069
  150PYPG  H11R13858   1.700   4.346   6.114
  150PYPG  H11S13859   1.845   4.255   6.112
  150PYPG  C21213860   1.784   4.331   5.915
  150PYPG  H12R13861   1.727   4.413   5.869
  150PYPG  H12S13862   1.740   4.230   5.896
  150PYPG  C21313863   1.910   4.329   5.836
  150PYPG  H13R13864   1.901   4.280   5.736
  150PYPG  H13S13865   1.964   4.266   5.903
  150PYPG  C21413866   1.976   4.462   5.821
  150PYPG  H14R13867   1.905   4.545   5.810
  150PYPG  H14S13868   2.050   4.483   5.904
  150PYPG  C21513869   2.043   4.457   5.693
  150PYPG  H15R13870   2.100   4.540   5.689
  150PYPG  H15S13871   2.009   4.426   5.592
  150PYPG  C21613872   2.168   4.407   5.710
  150PYPG  H16R13873   2.209   4.419   5.609
  150PYPG  H16S13874   2.166   4.300   5.718
  150PYPG  H16T13875   2.236   4.459   5.784
  150PYPG   C3313876   1.670   4.307   6.850
  150PYPG   H3X13877   1.564   4.302   6.819
  150PYPG   H3Y13878   1.733   4.279   6.762
  150PYPG   C3413879   1.698   4.453   6.886
  150PYPG   H4X13880   1.801   4.467   6.926
  150PYPG   H4Y13881   1.630   4.490   6.965
  150PYPG   C3513882   1.684   4.538   6.760
  150PYPG   H5X13883   1.577   4.556   6.736
  150PYPG   H5Y13884   1.732   4.483   6.675
  150PYPG   C3613885   1.753   4.672   6.775
  150PYPG   H6X13886   1.855   4.657   6.817
  150PYPG   H6Y13887   1.697   4.738   6.845
  150PYPG   C3713888   1.759   4.742   6.642
  150PYPG   H7X13889   1.814   4.677   6.568
  150PYPG   H7Y13890   1.658   4.764   6.602
  150PYPG   C3813891   1.824   4.875   6.665
  150PYPG   H8X13892   1.914   4.848   6.723
  150PYPG   H8Y13893   1.774   4.949   6.729
  150PYPG   C3913894   1.850   4.938   6.530
  150PYPG   H9X13895   1.921   4.860   6.517
  150PYPG   H9Y13896   1.900   5.037   6.537
  150PYPG  C31013897   1.754   4.913   6.412
  150PYPG  H10X13898   1.662   4.963   6.443
  150PYPG  H10Y13899   1.736   4.805   6.392
  150PYPG  C31113900   1.791   4.971   6.274
  150PYPG  H11X13901   1.829   5.076   6.288
  150PYPG  H11Y13902   1.708   4.966   6.202
  150PYPG  C31213903   1.893   4.885   6.210
  150PYPG  H12X13904   1.961   4.937   6.275
  150PYPG  H12Y13905   1.902   4.777   6.235
  150PYPG  C31313906   1.951   4.919   6.076
  150PYPG  H13X13907   1.881   4.908   5.993
  150PYPG  H13Y13908   2.000   5.021   6.076
  150PYPG  C31413909   2.058   4.817   6.061
  150PYPG  H14X13910   2.145   4.860   6.105
  150PYPG  H14Y13911   2.054   4.708   6.072
  150PYPG  C31513912   2.137   4.834   5.958
  150PYPG  H15X13913   2.058   4.826   5.882
  150PYPG  H15Y13914   2.188   4.943   5.967
  150PYPG  C31613915   2.225   4.717   5.933
  150PYPG  H16X13916   2.217   4.636   5.863
  150PYPG  H16Y13917   2.319   4.747   5.980
  150PYPG  H16Z13918   2.247   4.737   5.829
  151PYPG   C1313919   7.078   5.007   7.440
  151PYPG  H13A13920   7.128   4.964   7.351
  151PYPG  H13B13921   7.130   4.974   7.532
  151PYPG   OC313922   6.944   4.958   7.436
  151PYPG   HO313923   6.905   5.015   7.368
  151PYPG   C1213924   7.078   5.162   7.434
  151PYPG  H12A13925   7.037   5.199   7.531
  151PYPG   OC213926   6.992   5.208   7.331
  151PYPG   HO213927   7.018   5.301   7.326
  151PYPG   C1113928   7.215   5.230   7.417
  151PYPG  H11A13929   7.259   5.211   7.316
  151PYPG  H11B13930   7.287   5.183   7.488
  151PYPG     P13931   7.292   5.475   7.375
  151PYPG   O1313932   7.429   5.428   7.400
  151PYPG   O1413933   7.254   5.609   7.422
  151PYPG   O1113934   7.253   5.450   7.222
  151PYPG   O1213935   7.198   5.369   7.447
  151PYPG    C113936   7.118   5.458   7.171
  151PYPG    HA13937   7.099   5.561   7.135
  151PYPG    HB13938   7.045   5.436   7.252
  151PYPG    C213939   7.080   5.359   7.055
  151PYPG    HS13940   6.970   5.338   7.059
  151PYPG   O2113941   7.153   5.238   7.082
  151PYPG   C2113942   7.119   5.130   7.021
  151PYPG   O2213943   7.046   5.120   6.924
  151PYPG   C2213944   7.190   5.018   7.093
  151PYPG   H2R13945   7.114   4.947   7.133
  151PYPG   H2S13946   7.250   5.049   7.179
  151PYPG    C313947   7.109   5.420   6.909
  151PYPG    HX13948   7.052   5.513   6.911
  151PYPG    HY13949   7.073   5.346   6.832
  151PYPG   O3113950   7.239   5.473   6.887
  151PYPG   C3113951   7.307   5.552   6.788
  151PYPG   O3213952   7.230   5.587   6.699
  151PYPG   C3213953   7.497   5.556   6.796
  151PYPG   H2X13954   7.542   5.581   6.885
  151PYPG   H2Y13955   7.559   5.464   6.780
  151PYPG   C2313956   7.279   4.950   6.993
  151PYPG   H3R13957   7.208   4.920   6.911
  151PYPG   H3S13958   7.328   4.866   7.046
  151PYPG   C2413959   7.406   5.016   6.934
  151PYPG   H4R13960   7.477   5.025   7.016
  151PYPG   H4S13961   7.362   5.105   6.906
  151PYPG   C2513962   7.491   4.962   6.815
  151PYPG   H5R13963   7.528   4.860   6.844
  151PYPG   H5S13964   7.578   5.023   6.787
  151PYPG   C2613965   7.426   4.952   6.679
  151PYPG   H6R13966   7.359   5.026   6.633
  151PYPG   H6S13967   7.334   4.912   6.717
  151PYPG   C2713968   7.516   4.876   6.575
  151PYPG   H7R13969   7.500   4.772   6.545
  151PYPG   H7S13970   7.615   4.858   6.618
  151PYPG   C2813971   7.510   4.938   6.437
  151PYPG   H8R13972   7.410   4.930   6.392
  151PYPG   H8S13973   7.579   4.885   6.370
  151PYPG   C2913974   7.532   5.081   6.451
  151PYPG   H9R13975   7.617   5.110   6.515
  151PYPG  C21013976   7.447   5.171   6.402
  151PYPG  H10R13977   7.467   5.266   6.438
  151PYPG  C21113978   7.317   5.163   6.325
  151PYPG  H11R13979   7.247   5.245   6.354
  151PYPG  H11S13980   7.265   5.067   6.341
  151PYPG  C21213981   7.349   5.180   6.177
  151PYPG  H12R13982   7.390   5.281   6.155
  151PYPG  H12S13983   7.255   5.171   6.118
  151PYPG  C21313984   7.444   5.071   6.132
  151PYPG  H13R13985   7.417   4.973   6.177
  151PYPG  H13S13986   7.548   5.093   6.166
  151PYPG  C21413987   7.432   5.059   5.984
  151PYPG  H14R13988   7.325   5.050   5.954
  151PYPG  H14S13989   7.472   5.151   5.936
  151PYPG  C21513990   7.493   4.935   5.928
  151PYPG  H15R13991   7.465   4.839   5.972
  151PYPG  H15S13992   7.604   4.938   5.948
  151PYPG  C21613993   7.444   4.940   5.783
  151PYPG  H16R13994   7.471   5.041   5.742
  151PYPG  H16S13995   7.343   4.944   5.757
  151PYPG  H16T13996   7.492   4.860   5.723
  151PYPG   C3313997   7.621   5.548   6.695
  151PYPG   H3X13998   7.580   5.646   6.681
  151PYPG   H3Y13999   7.598   5.468   6.613
  151PYPG   C3414000   7.732   5.463   6.637
  151PYPG   H4X14001   7.725   5.350   6.652
  151PYPG   H4Y14002   7.789   5.521   6.708
  151PYPG   C3514003   7.769   5.498   6.487
  151PYPG   H5X14004   7.706   5.437   6.417
  151PYPG   H5Y14005   7.866   5.452   6.480
  151PYPG   C3614006   7.788   5.651   6.445
  151PYPG   H6X14007   7.806   5.710   6.535
  151PYPG   H6Y14008   7.700   5.716   6.458
  151PYPG   C3714009   7.799   5.690   6.285
  151PYPG   H7X14010   7.789   5.800   6.285
  151PYPG   H7Y14011   7.900   5.653   6.260
  151PYPG   C3814012   7.714   5.639   6.151
  151PYPG   H8X14013   7.716   5.530   6.145
  151PYPG   H8Y14014   7.758   5.692   6.064
  151PYPG   C3914015   7.564   5.666   6.111
  151PYPG   H9X14016   7.550   5.767   6.136
  151PYPG   H9Y14017   7.472   5.626   6.157
  151PYPG  C31014018   7.488   5.592   6.011
  151PYPG  H10X14019   7.390   5.643   6.000
  151PYPG  H10Y14020   7.436   5.496   6.025
  151PYPG  C31114021   7.566   5.642   5.902
  151PYPG  H11X14022   7.660   5.596   5.882
  151PYPG  H11Y14023   7.592   5.753   5.925
  151PYPG  C31214024   7.482   5.617   5.783
  151PYPG  H12X14025   7.430   5.688   5.836
  151PYPG  H12Y14026   7.508   5.680   5.708
  151PYPG  C31314027   7.341   5.566   5.763
  151PYPG  H13X14028   7.379   5.468   5.794
  151PYPG  H13Y14029   7.254   5.593   5.828
  151PYPG  C31414030   7.306   5.577   5.614
  151PYPG  H14X14031   7.248   5.668   5.585
  151PYPG  H14Y14032   7.398   5.575   5.554
  151PYPG  C31514033   7.239   5.451   5.571
  151PYPG  H15X14034   7.208   5.462   5.465
  151PYPG  H15Y14035   7.307   5.364   5.589
  151PYPG  C31614036   7.121   5.433   5.657
  151PYPG  H16X14037   7.151   5.421   5.762
  151PYPG  H16Y14038   7.059   5.345   5.630
  151PYPG  H16Z14039   7.062   5.528   5.648
  152PYPG   C1314040   6.125   0.132   7.288
  152PYPG  H13A14041   6.197   0.183   7.220
  152PYPG  H13B14042   6.178   0.050   7.340
  152PYPG   OC314043   6.019   0.072   7.215
  152PYPG   HO314044   5.950   0.064   7.282
  152PYPG   C1214045   6.067   0.229   7.392
  152PYPG  H12A14046   6.148   0.267   7.458
  152PYPG   OC214047   5.976   0.158   7.476
  152PYPG   HO214048   5.916   0.229   7.506
  152PYPG   C1114049   5.998   0.355   7.331
  152PYPG  H11A14050   5.936   0.328   7.242
  152PYPG  H11B14051   6.079   0.423   7.294
  152PYPG     P14052   5.771   0.416   7.453
  152PYPG   O1314053   5.730   0.524   7.545
  152PYPG   O1414054   5.735   0.278   7.492
  152PYPG   O1114055   5.725   0.443   7.308
  152PYPG   O1214056   5.926   0.424   7.432
  152PYPG    C114057   5.708   0.573   7.252
  152PYPG    HA14058   5.784   0.645   7.288
  152PYPG    HB14059   5.611   0.615   7.289
  152PYPG    C214060   5.707   0.560   7.093
  152PYPG    HS14061   5.657   0.650   7.053
  152PYPG   O2114062   5.653   0.445   7.023
  152PYPG   C2114063   5.555   0.393   7.086
  152PYPG   O2214064   5.510   0.434   7.190
  152PYPG   C2214065   5.481   0.282   7.015
  152PYPG   H2R14066   5.434   0.295   6.917
  152PYPG   H2S14067   5.402   0.245   7.082
  152PYPG    C314068   5.849   0.556   7.047
  152PYPG    HX14069   5.885   0.458   7.086
  152PYPG    HY14070   5.895   0.638   7.102
  152PYPG   O3114071   5.862   0.570   6.903
  152PYPG   C3114072   5.989   0.540   6.873
  152PYPG   O3214073   6.071   0.503   6.955
  152PYPG   C3214074   6.018   0.573   6.725
  152PYPG   H2X14075   5.931   0.539   6.664
  152PYPG   H2Y14076   6.025   0.683   6.718
  152PYPG   C2314077   5.568   0.184   6.952
  152PYPG   H3R14078   5.498   0.099   6.938
  152PYPG   H3S14079   5.641   0.167   7.034
  152PYPG   C2414080   5.623   0.240   6.818
  152PYPG   H4R14081   5.693   0.162   6.787
  152PYPG   H4S14082   5.679   0.336   6.833
  152PYPG   C2514083   5.529   0.267   6.697
  152PYPG   H5R14084   5.454   0.345   6.714
  152PYPG   H5S14085   5.475   0.175   6.668
  152PYPG   C2614086   5.607   0.326   6.580
  152PYPG   H6R14087   5.683   0.254   6.546
  152PYPG   H6S14088   5.659   0.418   6.615
  152PYPG   C2714089   5.514   0.369   6.465
  152PYPG   H7R14090   5.430   0.429   6.507
  152PYPG   H7S14091   5.467   0.281   6.416
  152PYPG   C2814092   5.588   0.462   6.368
  152PYPG   H8R14093   5.609   0.556   6.424
  152PYPG   H8S14094   5.521   0.488   6.283
  152PYPG   C2914095   5.718   0.405   6.321
  152PYPG   H9R14096   5.800   0.402   6.395
  152PYPG  C21014097   5.737   0.352   6.201
  152PYPG  H10R14098   5.835   0.312   6.182
  152PYPG  C21114099   5.638   0.337   6.089
  152PYPG  H11R14100   5.536   0.321   6.130
  152PYPG  H11S14101   5.661   0.245   6.031
  152PYPG  C21214102   5.629   0.458   5.995
  152PYPG  H12R14103   5.615   0.553   6.052
  152PYPG  H12S14104   5.542   0.448   5.926
  152PYPG  C21314105   5.750   0.481   5.906
  152PYPG  H13R14106   5.838   0.510   5.968
  152PYPG  H13S14107   5.719   0.573   5.849
  152PYPG  C21414108   5.785   0.363   5.813
  152PYPG  H14R14109   5.805   0.271   5.869
  152PYPG  H14S14110   5.705   0.348   5.737
  152PYPG  C21514111   5.910   0.386   5.735
  152PYPG  H15R14112   5.925   0.320   5.646
  152PYPG  H15S14113   6.002   0.384   5.799
  152PYPG  C21614114   5.893   0.522   5.682
  152PYPG  H16R14115   5.883   0.601   5.757
  152PYPG  H16S14116   5.809   0.536   5.612
  152PYPG  H16T14117   5.989   0.534   5.634
  152PYPG   C3314118   6.151   0.512   6.671
  152PYPG   H3X14119   6.160   0.406   6.703
  152PYPG   H3Y14120   6.239   0.567   6.713
  152PYPG   C3414121   6.164   0.512   6.518
  152PYPG   H4X14122   6.174   0.614   6.475
  152PYPG   H4Y14123   6.068   0.472   6.477
  152PYPG   C3514124   6.278   0.421   6.471
  152PYPG   H5X14125   6.339   0.388   6.559
  152PYPG   H5Y14126   6.351   0.472   6.404
  152PYPG   C3614127   6.219   0.299   6.400
  152PYPG   H6X14128   6.148   0.243   6.463
  152PYPG   H6Y14129   6.297   0.224   6.384
  152PYPG   C3714130   6.162   0.339   6.264
  152PYPG   H7X14131   6.058   0.375   6.269
  152PYPG   H7Y14132   6.233   0.413   6.219
  152PYPG   C3814133   6.159   0.230   6.161
  152PYPG   H8X14134   6.234   0.163   6.197
  152PYPG   H8Y14135   6.192   0.279   6.067
  152PYPG   C3914136   6.033   0.148   6.147
  152PYPG   H9X14137   5.954   0.212   6.114
  152PYPG   H9Y14138   6.014   0.091   6.241
  152PYPG  C31014139   6.024   0.059   6.026
  152PYPG  H10X14140   6.044  -0.037   6.069
  152PYPG  H10Y14141   6.093   0.083   5.945
  152PYPG  C31114142   5.897   0.005   5.977
  152PYPG  H11X14143   5.921  -0.061   5.894
  152PYPG  H11Y14144   5.844   0.081   5.922
  152PYPG  C31214145   5.838  -0.092   6.081
  152PYPG  H12X14146   5.910  -0.159   6.136
  152PYPG  H12Y14147   5.799  -0.028   6.162
  152PYPG  C31314148   5.733  -0.179   6.013
  152PYPG  H13X14149   5.685  -0.239   6.093
  152PYPG  H13Y14150   5.668  -0.100   5.971
  152PYPG  C31414151   5.768  -0.271   5.893
  152PYPG  H14X14152   5.797  -0.210   5.804
  152PYPG  H14Y14153   5.852  -0.340   5.917
  152PYPG  C31514154   5.652  -0.360   5.846
  152PYPG  H15X14155   5.689  -0.414   5.756
  152PYPG  H15Y14156   5.630  -0.436   5.924
  152PYPG  C31614157   5.520  -0.287   5.816
  152PYPG  H16X14158   5.439  -0.360   5.796
  152PYPG  H16Y14159   5.528  -0.219   5.729
  152PYPG  H16Z14160   5.487  -0.230   5.905
  153PYPG   C1314161   0.266   2.264   7.580
  153PYPG  H13A14162   0.255   2.322   7.486
  153PYPG  H13B14163   0.228   2.324   7.665
  153PYPG   OC314164   0.406   2.241   7.598
  153PYPG   HO314165   0.431   2.194   7.518
  153PYPG   C1214166   0.183   2.133   7.569
  153PYPG  H12A14167   0.076   2.161   7.550
  153PYPG   OC214168   0.186   2.056   7.689
  153PYPG   HO214169   0.152   1.971   7.662
  153PYPG   C1114170   0.229   2.043   7.453
  153PYPG  H11A14171   0.161   1.955   7.440
  153PYPG  H11B14172   0.330   2.004   7.479
  153PYPG     P14173   0.294   2.047   7.204
  153PYPG   O1314174   0.298   1.902   7.233
  153PYPG   O1414175   0.418   2.113   7.157
  153PYPG   O1114176   0.177   2.072   7.100
  153PYPG   O1214177   0.236   2.121   7.333
  153PYPG    C114178   0.041   2.054   7.135
  153PYPG    HA14179   0.018   2.091   7.238
  153PYPG    HB14180   0.014   1.946   7.130
  153PYPG    C214181  -0.050   2.131   7.035
  153PYPG    HS14182  -0.153   2.099   7.059
  153PYPG   O2114183  -0.016   2.093   6.900
  153PYPG   C2114184  -0.098   2.136   6.808
  153PYPG   O2214185  -0.208   2.187   6.828
  153PYPG   C2214186  -0.044   2.095   6.672
  153PYPG   H2R14187  -0.080   1.993   6.660
  153PYPG   H2S14188   0.066   2.089   6.667
  153PYPG    C314189  -0.036   2.285   7.056
  153PYPG    HX14190  -0.025   2.307   7.165
  153PYPG    HY14191  -0.126   2.339   7.019
  153PYPG   O3114192   0.076   2.330   6.980
  153PYPG   C3114193   0.110   2.454   7.004
  153PYPG   O3214194   0.064   2.525   7.090
  153PYPG   C3214195   0.225   2.489   6.908
  153PYPG   H2X14196   0.193   2.541   6.817
  153PYPG   H2Y14197   0.261   2.577   6.964
  153PYPG   C2314198  -0.099   2.182   6.560
  153PYPG   H3R14199  -0.207   2.208   6.569
  153PYPG   H3S14200  -0.086   2.127   6.463
  153PYPG   C2414201  -0.017   2.306   6.553
  153PYPG   H4R14202   0.091   2.279   6.542
  153PYPG   H4S14203  -0.023   2.374   6.640
  153PYPG   C2514204  -0.055   2.381   6.433
  153PYPG   H5R14205  -0.137   2.453   6.464
  153PYPG   H5S14206  -0.094   2.328   6.343
  153PYPG   C2614207   0.083   2.442   6.402
  153PYPG   H6R14208   0.130   2.498   6.485
  153PYPG   H6S14209   0.010   2.498   6.356
  153PYPG   C2714210   0.171   2.413   6.279
  153PYPG   H7R14211   0.104   2.381   6.196
  153PYPG   H7S14212   0.231   2.333   6.320
  153PYPG   C2814213   0.269   2.521   6.221
  153PYPG   H8R14214   0.220   2.597   6.158
  153PYPG   H8S14215   0.330   2.477   6.140
  153PYPG   C2914216   0.356   2.581   6.330
  153PYPG   H9R14217   0.303   2.622   6.418
  153PYPG  C21014218   0.491   2.589   6.323
  153PYPG  H10R14219   0.546   2.624   6.411
  153PYPG  C21114220   0.576   2.540   6.208
  153PYPG  H11R14221   0.677   2.587   6.212
  153PYPG  H11S14222   0.531   2.574   6.112
  153PYPG  C21214223   0.592   2.386   6.201
  153PYPG  H12R14224   0.492   2.342   6.181
  153PYPG  H12S14225   0.625   2.347   6.300
  153PYPG  C21314226   0.687   2.331   6.092
  153PYPG  H13R14227   0.685   2.220   6.102
  153PYPG  H13S14228   0.792   2.364   6.108
  153PYPG  C21414229   0.656   2.365   5.944
  153PYPG  H14R14230   0.681   2.472   5.923
  153PYPG  H14S14231   0.725   2.302   5.884
  153PYPG  C21514232   0.515   2.338   5.890
  153PYPG  H15R14233   0.436   2.383   5.954
  153PYPG  H15S14234   0.498   2.228   5.890
  153PYPG  C21614235   0.500   2.387   5.746
  153PYPG  H16R14236   0.534   2.493   5.735
  153PYPG  H16S14237   0.395   2.380   5.713
  153PYPG  H16T14238   0.563   2.324   5.680
  153PYPG   C3314239   0.310   2.361   6.870
  153PYPG   H3X14240   0.248   2.301   6.801
  153PYPG   H3Y14241   0.330   2.299   6.961
  153PYPG   C3414242   0.447   2.375   6.802
  153PYPG   H4X14243   0.506   2.421   6.880
  153PYPG   H4Y14244   0.449   2.440   6.712
  153PYPG   C3514245   0.542   2.258   6.783
  153PYPG   H5X14246   0.492   2.172   6.830
  153PYPG   H5Y14247   0.638   2.276   6.839
  153PYPG   C3614248   0.574   2.240   6.634
  153PYPG   H6X14249   0.643   2.154   6.628
  153PYPG   H6Y14250   0.627   2.331   6.598
  153PYPG   C3714251   0.449   2.214   6.546
  153PYPG   H7X14252   0.370   2.175   6.614
  153PYPG   H7Y14253   0.411   2.311   6.505
  153PYPG   C3814254   0.469   2.112   6.431
  153PYPG   H8X14255   0.490   2.011   6.474
  153PYPG   H8Y14256   0.558   2.145   6.372
  153PYPG   C3914257   0.354   2.094   6.330
  153PYPG   H9X14258   0.344   2.191   6.277
  153PYPG   H9Y14259   0.256   2.072   6.377
  153PYPG  C31014260   0.384   1.989   6.221
  153PYPG  H10X14261   0.368   1.886   6.259
  153PYPG  H10Y14262   0.491   1.996   6.190
  153PYPG  C31114263   0.299   2.015   6.098
  153PYPG  H11X14264   0.348   2.096   6.040
  153PYPG  H11Y14265   0.197   2.051   6.126
  153PYPG  C31214266   0.285   1.897   6.003
  153PYPG  H12X14267   0.384   1.848   5.988
  153PYPG  H12Y14268   0.219   1.818   6.047
  153PYPG  C31314269   0.234   1.960   5.870
  153PYPG  H13X14270   0.134   2.007   5.885
  153PYPG  H13Y14271   0.312   2.021   5.822
  153PYPG  C31414272   0.217   1.861   5.763
  153PYPG  H14X14273   0.303   1.804   5.795
  153PYPG  H14Y14274   0.114   1.835   5.786
  153PYPG  C31514275   0.213   1.878   5.613
  153PYPG  H15X14276   0.309   1.914   5.580
  153PYPG  H15Y14277   0.176   1.791   5.550
  153PYPG  C31614278   0.123   1.985   5.590
  153PYPG  H16X14279   0.168   2.075   5.637
  153PYPG  H16Y14280   0.036   1.946   5.648
  153PYPG  H16Z14281   0.099   2.001   5.483
  154PYPG   C1314282   3.697   4.924   3.535
  154PYPG  H13A14283   3.651   4.860   3.457
  154PYPG  H13B14284   3.649   5.024   3.536
  154PYPG   OC314285   3.833   4.936   3.507
  154PYPG   HO314286   3.857   4.997   3.437
  154PYPG   C1214287   3.677   4.859   3.675
  154PYPG  H12A14288   3.698   4.934   3.753
  154PYPG   OC214289   3.768   4.752   3.705
  154PYPG   HO214290   3.723   4.692   3.763
  154PYPG   C1114291   3.532   4.813   3.681
  154PYPG  H11A14292   3.466   4.901   3.661
  154PYPG  H11B14293   3.508   4.775   3.781
  154PYPG     P14294   3.370   4.665   3.541
  154PYPG   O1314295   3.355   4.517   3.549
  154PYPG   O1414296   3.306   4.745   3.434
  154PYPG   O1114297   3.302   4.701   3.673
  154PYPG   O1214298   3.514   4.713   3.580
  154PYPG    C114299   3.170   4.741   3.659
  154PYPG    HA14300   3.101   4.654   3.655
  154PYPG    HB14301   3.144   4.820   3.584
  154PYPG    C214302   3.161   4.814   3.782
  154PYPG    HS14303   3.061   4.860   3.775
  154PYPG   O2114304   3.263   4.925   3.779
  154PYPG   C2114305   3.250   4.988   3.895
  154PYPG   O2214306   3.182   4.936   3.976
  154PYPG   C2214307   3.326   5.131   3.920
  154PYPG   H2R14308   3.333   5.173   3.820
  154PYPG   H2S14309   3.416   5.081   3.961
  154PYPG    C314310   3.180   4.685   3.886
  154PYPG    HX14311   3.134   4.588   3.860
  154PYPG    HY14312   3.102   4.670   3.954
  154PYPG   O3114313   3.296   4.672   3.962
  154PYPG   C3114314   3.345   4.732   4.064
  154PYPG   O3214315   3.309   4.817   4.143
  154PYPG   C3214316   3.479   4.685   4.063
  154PYPG   H2X14317   3.484   4.593   4.125
  154PYPG   H2Y14318   3.508   4.667   3.957
  154PYPG   C2314319   3.312   5.261   4.023
  154PYPG   H3R14320   3.296   5.245   4.131
  154PYPG   H3S14321   3.228   5.329   4.022
  154PYPG   C2414322   3.432   5.335   4.066
  154PYPG   H4R14323   3.393   5.439   4.085
  154PYPG   H4S14324   3.495   5.322   3.978
  154PYPG   C2514325   3.490   5.280   4.196
  154PYPG   H5R14326   3.597   5.305   4.188
  154PYPG   H5S14327   3.480   5.169   4.208
  154PYPG   C2614328   3.428   5.345   4.320
  154PYPG   H6R14329   3.325   5.310   4.334
  154PYPG   H6S14330   3.423   5.455   4.311
  154PYPG   C2714331   3.514   5.308   4.437
  154PYPG   H7R14332   3.621   5.315   4.402
  154PYPG   H7S14333   3.492   5.201   4.463
  154PYPG   C2814334   3.500   5.396   4.560
  154PYPG   H8R14335   3.393   5.385   4.589
  154PYPG   H8S14336   3.518   5.502   4.533
  154PYPG   C2914337   3.603   5.344   4.657
  154PYPG   H9R14338   3.708   5.365   4.630
  154PYPG  C21014339   3.587   5.262   4.761
  154PYPG  H10R14340   3.670   5.253   4.834
  154PYPG  C21114341   3.454   5.203   4.807
  154PYPG  H11R14342   3.439   5.116   4.876
  154PYPG  H11S14343   3.365   5.227   4.744
  154PYPG  C21214344   3.435   5.278   4.927
  154PYPG  H12R14345   3.496   5.378   4.913
  154PYPG  H12S14346   3.525   5.284   4.995
  154PYPG  C21314347   3.268   5.278   4.983
  154PYPG  H13R14348   3.171   5.316   4.936
  154PYPG  H13S14349   3.208   5.374   5.021
  154PYPG  C21414350   3.278   5.209   5.110
  154PYPG  H14R14351   3.325   5.120   5.070
  154PYPG  H14S14352   3.321   5.249   5.204
  154PYPG  C21514353   3.151   5.193   5.157
  154PYPG  H15R14354   3.107   5.170   5.056
  154PYPG  H15S14355   3.129   5.299   5.192
  154PYPG  C21614356   3.142   5.087   5.263
  154PYPG  H16R14357   3.228   5.020   5.244
  154PYPG  H16S14358   3.051   5.023   5.260
  154PYPG  H16T14359   3.141   5.137   5.362
  154PYPG   C3314360   3.556   4.796   4.124
  154PYPG   H3X14361   3.527   4.796   4.231
  154PYPG   H3Y14362   3.527   4.899   4.088
  154PYPG   C3414363   3.697   4.746   4.087
  154PYPG   H4X14364   3.717   4.785   3.982
  154PYPG   H4Y14365   3.712   4.640   4.105
  154PYPG   C3514366   3.820   4.790   4.160
  154PYPG   H5X14367   3.751   4.875   4.157
  154PYPG   H5Y14368   3.903   4.804   4.089
  154PYPG   C3614369   3.876   4.756   4.301
  154PYPG   H6X14370   3.923   4.658   4.297
  154PYPG   H6Y14371   3.791   4.730   4.366
  154PYPG   C3714372   3.968   4.855   4.389
  154PYPG   H7X14373   4.056   4.904   4.344
  154PYPG   H7Y14374   3.938   4.956   4.427
  154PYPG   C3814375   3.972   4.774   4.522
  154PYPG   H8X14376   4.048   4.827   4.584
  154PYPG   H8Y14377   4.017   4.682   4.481
  154PYPG   C3914378   3.841   4.732   4.610
  154PYPG   H9X14379   3.866   4.690   4.705
  154PYPG   H9Y14380   3.752   4.691   4.563
  154PYPG  C31014381   3.771   4.835   4.694
  154PYPG  H10X14382   3.684   4.882   4.671
  154PYPG  H10Y14383   3.837   4.892   4.626
  154PYPG  C31114384   3.721   4.854   4.845
  154PYPG  H11X14385   3.630   4.793   4.852
  154PYPG  H11Y14386   3.674   4.957   4.854
  154PYPG  C31214387   3.809   4.859   4.974
  154PYPG  H12X14388   3.872   4.772   4.983
  154PYPG  H12Y14389   3.900   4.907   4.962
  154PYPG  C31314390   3.755   4.922   5.109
  154PYPG  H13X14391   3.835   4.918   5.188
  154PYPG  H13Y14392   3.730   5.030   5.102
  154PYPG  C31414393   3.628   4.853   5.153
  154PYPG  H14X14394   3.570   4.901   5.233
  154PYPG  H14Y14395   3.569   4.843   5.058
  154PYPG  C31514396   3.650   4.709   5.178
  154PYPG  H15X14397   3.559   4.647   5.169
  154PYPG  H15Y14398   3.731   4.697   5.105
  154PYPG  C31614399   3.733   4.650   5.281
  154PYPG  H16X14400   3.668   4.698   5.341
  154PYPG  H16Y14401   3.833   4.691   5.277
  154PYPG  H16Z14402   3.728   4.555   5.336
  155PYPG   C1314403   4.534   4.643   3.730
  155PYPG  H13A14404   4.492   4.611   3.828
  155PYPG  H13B14405   4.620   4.577   3.704
  155PYPG   OC314406   4.577   4.780   3.743
  155PYPG   HO314407   4.672   4.775   3.753
  155PYPG   C1214408   4.427   4.621   3.620
  155PYPG  H12A14409   4.414   4.513   3.598
  155PYPG   OC214410   4.471   4.680   3.498
  155PYPG   HO214411   4.389   4.689   3.449
  155PYPG   C1114412   4.288   4.676   3.661
  155PYPG  H11A14413   4.304   4.755   3.739
  155PYPG  H11B14414   4.231   4.594   3.712
  155PYPG     P14415   4.184   4.878   3.529
  155PYPG   O1314416   4.084   4.891   3.422
  155PYPG   O1414417   4.308   4.956   3.505
  155PYPG   O1114418   4.125   4.907   3.670
  155PYPG   O1214419   4.217   4.723   3.547
  155PYPG    C114420   4.029   5.006   3.703
  155PYPG    HA14421   3.950   4.956   3.763
  155PYPG    HB14422   3.983   5.056   3.616
  155PYPG    C214423   4.096   5.123   3.776
  155PYPG    HS14424   4.144   5.186   3.697
  155PYPG   O2114425   4.191   5.067   3.866
  155PYPG   C2114426   4.301   5.133   3.881
  155PYPG   O2214427   4.330   5.243   3.840
  155PYPG   C2214428   4.390   5.056   3.975
  155PYPG   H2R14429   4.474   5.010   3.920
  155PYPG   H2S14430   4.328   4.977   4.021
  155PYPG    C314431   3.994   5.212   3.849
  155PYPG    HX14432   3.920   5.252   3.777
  155PYPG    HY14433   4.048   5.296   3.898
  155PYPG   O3114434   3.919   5.141   3.944
  155PYPG   C3114435   3.969   5.141   4.068
  155PYPG   O3214436   4.070   5.194   4.108
  155PYPG   C3214437   3.890   5.044   4.146
  155PYPG   H2X14438   3.834   4.997   4.060
  155PYPG   H2Y14439   3.973   4.975   4.174
  155PYPG   C2314440   4.437   5.147   4.089
  155PYPG   H3R14441   4.351   5.193   4.143
  155PYPG   H3S14442   4.487   5.234   4.043
  155PYPG   C2414443   4.535   5.071   4.179
  155PYPG   H4R14444   4.603   5.143   4.222
  155PYPG   H4S14445   4.606   5.012   4.119
  155PYPG   C2514446   4.476   4.991   4.296
  155PYPG   H5R14447   4.417   5.057   4.363
  155PYPG   H5S14448   4.561   4.952   4.356
  155PYPG   C2614449   4.391   4.872   4.253
  155PYPG   H6R14450   4.444   4.822   4.169
  155PYPG   H6S14451   4.294   4.910   4.214
  155PYPG   C2714452   4.367   4.768   4.364
  155PYPG   H7R14453   4.461   4.720   4.397
  155PYPG   H7S14454   4.301   4.688   4.319
  155PYPG   C2814455   4.297   4.824   4.488
  155PYPG   H8R14456   4.195   4.795   4.463
  155PYPG   H8S14457   4.296   4.935   4.486
  155PYPG   C2914458   4.335   4.777   4.627
  155PYPG   H9R14459   4.416   4.837   4.671
  155PYPG  C21014460   4.292   4.670   4.697
  155PYPG  H10R14461   4.321   4.660   4.802
  155PYPG  C21114462   4.191   4.566   4.654
  155PYPG  H11R14463   4.228   4.463   4.669
  155PYPG  H11S14464   4.169   4.579   4.546
  155PYPG  C21214465   4.060   4.575   4.728
  155PYPG  H12R14466   3.979   4.527   4.666
  155PYPG  H12S14467   4.044   4.684   4.743
  155PYPG  C21314468   4.045   4.523   4.868
  155PYPG  H13R14469   4.107   4.583   4.938
  155PYPG  H13S14470   4.074   4.416   4.872
  155PYPG  C21414471   3.895   4.534   4.899
  155PYPG  H14R14472   3.845   4.627   4.876
  155PYPG  H14S14473   3.846   4.452   4.847
  155PYPG  C21514474   3.858   4.508   5.036
  155PYPG  H15R14475   3.910   4.586   5.101
  155PYPG  H15S14476   3.895   4.407   5.039
  155PYPG  C21614477   3.720   4.466   5.075
  155PYPG  H16R14478   3.655   4.543   5.031
  155PYPG  H16S14479   3.726   4.448   5.184
  155PYPG  H16T14480   3.669   4.376   5.051
  155PYPG   C3314481   3.789   5.073   4.270
  155PYPG   H3X14482   3.701   5.119   4.223
  155PYPG   H3Y14483   3.850   5.138   4.335
  155PYPG   C3414484   3.709   4.963   4.357
  155PYPG   H4X14485   3.768   4.918   4.433
  155PYPG   H4Y14486   3.665   4.876   4.315
  155PYPG   C3514487   3.626   4.972   4.473
  155PYPG   H5X14488   3.614   4.865   4.513
  155PYPG   H5Y14489   3.524   4.974   4.433
  155PYPG   C3614490   3.693   5.079   4.567
  155PYPG   H6X14491   3.614   5.068   4.642
  155PYPG   H6Y14492   3.683   5.165   4.503
  155PYPG   C3714493   3.845   5.114   4.625
  155PYPG   H7X14494   3.920   5.121   4.547
  155PYPG   H7Y14495   3.834   5.210   4.680
  155PYPG   C3814496   3.909   5.052   4.753
  155PYPG   H8X14497   3.939   4.951   4.749
  155PYPG   H8Y14498   3.825   5.052   4.819
  155PYPG   C3914499   4.039   5.033   4.822
  155PYPG   H9X14500   4.120   5.066   4.757
  155PYPG   H9Y14501   4.070   4.923   4.853
  155PYPG  C31014502   3.985   5.115   4.937
  155PYPG  H10X14503   3.902   5.082   5.003
  155PYPG  H10Y14504   3.926   5.203   4.902
  155PYPG  C31114505   4.101   5.131   5.018
  155PYPG  H11X14506   4.063   5.182   5.108
  155PYPG  H11Y14507   4.160   5.192   4.946
  155PYPG  C31214508   4.175   5.002   5.052
  155PYPG  H12X14509   4.213   4.935   4.971
  155PYPG  H12Y14510   4.263   5.035   5.107
  155PYPG  C31314511   4.097   4.915   5.142
  155PYPG  H13X14512   4.038   4.978   5.214
  155PYPG  H13Y14513   4.026   4.844   5.093
  155PYPG  C31414514   4.192   4.824   5.210
  155PYPG  H14X14515   4.231   4.740   5.150
  155PYPG  H14Y14516   4.270   4.874   5.273
  155PYPG  C31514517   4.093   4.770   5.295
  155PYPG  H15X14518   4.079   4.861   5.364
  155PYPG  H15Y14519   4.005   4.729   5.247
  155PYPG  C31614520   4.131   4.651   5.361
  155PYPG  H16X14521   4.089   4.584   5.441
  155PYPG  H16Y14522   4.171   4.722   5.422
  155PYPG  H16Z14523   4.221   4.619   5.340
  156PYPG   C1314524   2.508   3.135   3.502
  156PYPG  H13A14525   2.438   3.053   3.477
  156PYPG  H13B14526   2.507   3.154   3.611
  156PYPG   OC314527   2.463   3.252   3.433
  156PYPG   HO314528   2.505   3.330   3.471
  156PYPG   C1214529   2.650   3.088   3.460
  156PYPG  H12A14530   2.723   3.160   3.503
  156PYPG   OC214531   2.665   3.079   3.318
  156PYPG   HO214532   2.757   3.056   3.305
  156PYPG   C1114533   2.684   2.948   3.517
  156PYPG  H11A14534   2.782   2.918   3.474
  156PYPG  H11B14535   2.607   2.874   3.481
  156PYPG     P14536   2.702   2.810   3.733
  156PYPG   O1314537   2.845   2.770   3.731
  156PYPG   O1414538   2.602   2.720   3.673
  156PYPG   O1114539   2.657   2.841   3.881
  156PYPG   O1214540   2.694   2.951   3.660
  156PYPG    C114541   2.664   2.968   3.941
  156PYPG    HA14542   2.571   3.025   3.916
  156PYPG    HB14543   2.751   3.026   3.902
  156PYPG    C214544   2.673   2.955   4.096
  156PYPG    HS14545   2.688   3.057   4.136
  156PYPG   O2114546   2.784   2.873   4.140
  156PYPG   C2114547   2.901   2.932   4.128
  156PYPG   O2214548   2.921   3.042   4.081
  156PYPG   C2214549   3.010   2.845   4.187
  156PYPG   H2R14550   3.093   2.847   4.114
  156PYPG   H2S14551   2.976   2.741   4.201
  156PYPG    C314552   2.540   2.897   4.154
  156PYPG    HX14553   2.519   2.803   4.100
  156PYPG    HY14554   2.454   2.964   4.129
  156PYPG   O3114555   2.555   2.864   4.295
  156PYPG   C3114556   2.495   2.952   4.374
  156PYPG   O3214557   2.422   3.040   4.336
  156PYPG   C3214558   2.524   2.929   4.520
  156PYPG   H2X14559   2.520   2.820   4.538
  156PYPG   H2Y14560   2.624   2.969   4.546
  156PYPG   C2314561   3.064   2.902   4.319
  156PYPG   H3R14562   3.091   3.010   4.311
  156PYPG   H3S14563   3.158   2.851   4.347
  156PYPG   C2414564   2.964   2.892   4.433
  156PYPG   H4R14565   2.920   2.790   4.449
  156PYPG   H4S14566   2.878   2.962   4.416
  156PYPG   C2514567   3.036   2.937   4.556
  156PYPG   H5R14568   3.066   3.043   4.544
  156PYPG   H5S14569   3.129   2.878   4.573
  156PYPG   C2614570   2.945   2.916   4.672
  156PYPG   H6R14571   2.925   2.810   4.696
  156PYPG   H6S14572   2.847   2.970   4.657
  156PYPG   C2714573   3.010   2.969   4.792
  156PYPG   H7R14574   3.044   3.066   4.752
  156PYPG   H7S14575   3.109   2.931   4.825
  156PYPG   C2814576   2.898   2.943   4.892
  156PYPG   H8R14577   2.878   2.840   4.917
  156PYPG   H8S14578   2.805   2.995   4.872
  156PYPG   C2914579   2.942   2.984   5.016
  156PYPG   H9R14580   3.023   3.047   4.984
  156PYPG  C21014581   2.914   2.961   5.141
  156PYPG  H10R14582   2.987   2.989   5.212
  156PYPG  C21114583   2.819   2.878   5.201
  156PYPG  H11R14584   2.883   2.796   5.164
  156PYPG  H11S14585   2.722   2.885   5.154
  156PYPG  C21214586   2.811   2.881   5.353
  156PYPG  H12R14587   2.912   2.869   5.403
  156PYPG  H12S14588   2.747   2.789   5.369
  156PYPG  C21314589   2.738   2.991   5.424
  156PYPG  H13R14590   2.632   3.000   5.396
  156PYPG  H13S14591   2.794   3.082   5.431
  156PYPG  C21414592   2.737   2.952   5.563
  156PYPG  H14R14593   2.658   2.872   5.552
  156PYPG  H14S14594   2.840   2.911   5.584
  156PYPG  C21514595   2.683   3.037   5.677
  156PYPG  H15R14596   2.640   2.984   5.766
  156PYPG  H15S14597   2.601   3.096   5.634
  156PYPG  C21614598   2.780   3.126   5.739
  156PYPG  H16R14599   2.851   3.076   5.808
  156PYPG  H16S14600   2.716   3.198   5.792
  156PYPG  H16T14601   2.831   3.170   5.652
  156PYPG   C3314602   2.418   2.999   4.608
  156PYPG   H3X14603   2.318   2.954   4.594
  156PYPG   H3Y14604   2.406   3.107   4.582
  156PYPG   C3414605   2.460   2.993   4.754
  156PYPG   H4X14606   2.409   3.075   4.810
  156PYPG   H4Y14607   2.569   3.013   4.758
  156PYPG   C3514608   2.436   2.859   4.826
  156PYPG   H5X14609   2.485   2.773   4.776
  156PYPG   H5Y14610   2.332   2.824   4.828
  156PYPG   C3614611   2.484   2.875   4.970
  156PYPG   H6X14612   2.488   2.978   5.004
  156PYPG   H6Y14613   2.591   2.847   4.967
  156PYPG   C3714614   2.396   2.798   5.069
  156PYPG   H7X14615   2.429   2.807   5.175
  156PYPG   H7Y14616   2.289   2.824   5.057
  156PYPG   C3814617   2.405   2.655   5.041
  156PYPG   H8X14618   2.360   2.645   4.939
  156PYPG   H8Y14619   2.338   2.601   5.109
  156PYPG   C3914620   2.554   2.621   5.046
  156PYPG   H9X14621   2.607   2.636   5.143
  156PYPG   H9Y14622   2.592   2.674   4.957
  156PYPG  C31014623   2.610   2.517   4.957
  156PYPG  H10X14624   2.717   2.557   4.936
  156PYPG  H10Y14625   2.563   2.478   5.054
  156PYPG  C31114626   2.682   2.392   4.974
  156PYPG  H11X14627   2.671   2.397   4.865
  156PYPG  H11Y14628   2.665   2.281   4.968
  156PYPG  C31214629   2.763   2.430   5.087
  156PYPG  H12X14630   2.800   2.533   5.104
  156PYPG  H12Y14631   2.708   2.403   5.180
  156PYPG  C31314632   2.860   2.344   5.043
  156PYPG  H13X14633   2.827   2.246   5.071
  156PYPG  H13Y14634   2.918   2.363   4.949
  156PYPG  C31414635   2.949   2.350   5.132
  156PYPG  H14X14636   3.053   2.333   5.080
  156PYPG  H14Y14637   2.984   2.457   5.096
  156PYPG  C31514638   2.903   2.285   5.318
  156PYPG  H15X14639   2.807   2.312   5.301
  156PYPG  H15Y14640   2.889   2.186   5.353
  156PYPG  C31614641   2.993   2.301   5.477
  156PYPG  H16X14642   2.958   2.303   5.577
  156PYPG  H16Y14643   3.015   2.403   5.489
  156PYPG  H16Z14644   3.106   2.322   5.477
  157PYPG   C1314645   1.723   2.626   3.431
  157PYPG  H13A14646   1.638   2.590   3.493
  157PYPG  H13B14647   1.768   2.711   3.488
  157PYPG   OC314648   1.680   2.676   3.305
  157PYPG   HO314649   1.626   2.607   3.265
  157PYPG   C1214650   1.828   2.513   3.412
  157PYPG  H12A14651   1.913   2.556   3.353
  157PYPG   OC214652   1.777   2.404   3.333
  157PYPG   HO214653   1.837   2.332   3.341
  157PYPG   C1114654   1.879   2.463   3.549
  157PYPG  H11A14655   1.952   2.381   3.538
  157PYPG  H11B14656   1.790   2.423   3.603
  157PYPG     P14657   1.925   2.579   3.782
  157PYPG   O1314658   1.799   2.516   3.827
  157PYPG   O1414659   1.953   2.719   3.818
  157PYPG   O1114660   2.042   2.483   3.826
  157PYPG   O1214661   1.939   2.570   3.622
  157PYPG    C114662   2.179   2.508   3.802
  157PYPG    HA14663   2.196   2.594   3.733
  157PYPG    HB14664   2.220   2.417   3.752
  157PYPG    C214665   2.262   2.530   3.933
  157PYPG    HS14666   2.368   2.507   3.906
  157PYPG   O2114667   2.214   2.437   4.032
  157PYPG   C2114668   2.257   2.450   4.155
  157PYPG   O2214669   2.357   2.508   4.191
  157PYPG   C2214670   2.166   2.374   4.249
  157PYPG   H2R14671   2.164   2.268   4.219
  157PYPG   H2S14672   2.065   2.416   4.241
  157PYPG    C314673   2.258   2.679   3.986
  157PYPG    HX14674   2.276   2.750   3.903
  157PYPG    HY14675   2.345   2.691   4.054
  157PYPG   O3114676   2.135   2.713   4.051
  157PYPG   C3114677   2.141   2.783   4.164
  157PYPG   O3214678   2.242   2.810   4.225
  157PYPG   C3214679   2.003   2.828   4.209
  157PYPG   H2X14680   1.984   2.782   4.307
  157PYPG   H2Y14681   2.000   2.937   4.225
  157PYPG   C2314682   2.214   2.389   4.393
  157PYPG   H3R14683   2.228   2.496   4.420
  157PYPG   H3S14684   2.313   2.338   4.402
  157PYPG   C2414685   2.107   2.329   4.483
  157PYPG   H4R14686   2.006   2.358   4.449
  157PYPG   H4S14687   2.102   2.370   4.585
  157PYPG   C2514688   2.117   2.179   4.484
  157PYPG   H5R14689   2.209   2.131   4.478
  157PYPG   H5S14690   2.073   2.139   4.390
  157PYPG   C2614691   2.060   2.114   4.605
  157PYPG   H6R14692   2.072   2.003   4.582
  157PYPG   H6S14693   1.964   2.171   4.602
  157PYPG   C2714694   2.087   2.123   4.751
  157PYPG   H7R14695   2.095   2.232   4.769
  157PYPG   H7S14696   2.175   2.054   4.745
  157PYPG   C2814697   2.025   2.054   4.871
  157PYPG   H8R14698   2.089   2.063   4.961
  157PYPG   H8S14699   2.009   1.945   4.850
  157PYPG   C2914700   1.905   2.138   4.888
  157PYPG   H9R14701   1.861   2.146   4.794
  157PYPG  C21014702   1.840   2.211   4.975
  157PYPG  H10R14703   1.731   2.219   4.960
  157PYPG  C21114704   1.885   2.228   5.110
  157PYPG  H11R14705   1.820   2.299   5.164
  157PYPG  H11S14706   1.991   2.259   5.105
  157PYPG  C21214707   1.875   2.092   5.168
  157PYPG  H12R14708   1.893   2.113   5.271
  157PYPG  H12S14709   1.932   2.012   5.118
  157PYPG  C21314710   1.750   2.040   5.219
  157PYPG  H13R14711   1.721   1.999   5.122
  157PYPG  H13S14712   1.695   2.126   5.265
  157PYPG  C21414713   1.727   1.911   5.304
  157PYPG  H14R14714   1.635   1.856   5.319
  157PYPG  H14S14715   1.768   1.829   5.250
  157PYPG  C21514716   1.711   1.933   5.451
  157PYPG  H15R14717   1.785   1.986   5.412
  157PYPG  H15S14718   1.770   1.862   5.514
  157PYPG  C21614719   1.676   2.066   5.515
  157PYPG  H16R14720   1.688   2.165   5.469
  157PYPG  H16S14721   1.763   2.080   5.582
  157PYPG  H16T14722   1.584   2.046   5.573
  157PYPG   C3314723   1.898   2.788   4.106
  157PYPG   H3X14724   1.919   2.689   4.060
  157PYPG   H3Y14725   1.887   2.863   4.026
  157PYPG   C3414726   1.768   2.786   4.168
  157PYPG   H4X14727   1.685   2.823   4.103
  157PYPG   H4Y14728   1.763   2.844   4.259
  157PYPG   C3514729   1.735   2.664   4.218
  157PYPG   H5X14730   1.746   2.566   4.153
  157PYPG   H5Y14731   1.612   2.736   4.230
  157PYPG   C3614732   1.823   2.560   4.320
  157PYPG   H6X14733   1.915   2.531   4.270
  157PYPG   H6Y14734   1.781   2.456   4.349
  157PYPG   C3714735   1.871   2.607   4.462
  157PYPG   H7X14736   1.902   2.708   4.457
  157PYPG   H7Y14737   1.784   2.616   4.515
  157PYPG   C3814738   1.895   2.534   4.599
  157PYPG   H8X14739   2.004   2.528   4.591
  157PYPG   H8Y14740   1.838   2.438   4.610
  157PYPG   C3914741   1.871   2.616   4.730
  157PYPG   H9X14742   1.772   2.658   4.747
  157PYPG   H9Y14743   1.923   2.711   4.730
  157PYPG  C31014744   1.933   2.547   4.852
  157PYPG  H10X14745   2.035   2.521   4.814
  157PYPG  H10Y14746   1.878   2.460   4.887
  157PYPG  C31114747   1.953   2.640   4.968
  157PYPG  H11X14748   2.017   2.697   4.904
  157PYPG  H11Y14749   2.022   2.612   5.050
  157PYPG  C31214750   1.828   2.705   5.026
  157PYPG  H12X14751   1.849   2.773   5.108
  157PYPG  H12Y14752   1.756   2.754   4.956
  157PYPG  C31314753   1.772   2.604   5.119
  157PYPG  H13X14754   1.761   2.523   5.046
  157PYPG  H13Y14755   1.850   2.571   5.190
  157PYPG  C31414756   1.651   2.658   5.197
  157PYPG  H14X14757   1.655   2.769   5.205
  157PYPG  H14Y14758   1.559   2.652   5.141
  157PYPG  C31514759   1.630   2.596   5.337
  157PYPG  H15X14760   1.707   2.645   5.400
  157PYPG  H15Y14761   1.529   2.631   5.368
  157PYPG  C31614762   1.640   2.443   5.360
  157PYPG  H16X14763   1.743   2.405   5.364
  157PYPG  H16Y14764   1.602   2.380   5.278
  157PYPG  H16Z14765   1.583   2.415   5.451
  158PYPG   C1314766   1.282   3.155   3.352
  158PYPG  H13A14767   1.343   3.123   3.266
  158PYPG  H13B14768   1.211   3.236   3.327
  158PYPG   OC314769   1.366   3.211   3.453
  158PYPG   HO314770   1.322   3.184   3.536
  158PYPG   C1214771   1.201   3.031   3.396
  158PYPG  H12A14772   1.267   2.948   3.431
  158PYPG   OC214773   1.105   2.990   3.297
  158PYPG   HO214774   1.056   2.922   3.344
  158PYPG   C1114775   1.126   3.066   3.516
  158PYPG  H11A14776   1.045   2.988   3.536
  158PYPG  H11B14777   1.068   3.160   3.494
  158PYPG     P14778   1.177   3.160   3.748
  158PYPG   O1314779   1.054   3.091   3.728
  158PYPG   O1414780   1.201   3.306   3.745
  158PYPG   O1114781   1.178   3.107   3.894
  158PYPG   O1214782   1.229   3.081   3.623
  158PYPG    C114783   1.284   3.035   3.941
  158PYPG    HA14784   1.370   3.043   3.872
  158PYPG    HB14785   1.255   2.929   3.952
  158PYPG    C214786   1.331   3.097   4.072
  158PYPG    HS14787   1.424   3.041   4.090
  158PYPG   O2114788   1.231   3.068   4.173
  158PYPG   C2114789   1.277   3.099   4.293
  158PYPG   O2214790   1.379   3.158   4.315
  158PYPG   C2214791   1.187   3.062   4.406
  158PYPG   H2R14792   1.246   3.015   4.488
  158PYPG   H2S14793   1.104   3.000   4.371
  158PYPG    C314794   1.358   3.254   4.051
  158PYPG    HX14795   1.259   3.302   4.057
  158PYPG    HY14796   1.402   3.266   3.949
  158PYPG   O3114797   1.448   3.314   4.146
  158PYPG   C3114798   1.433   3.445   4.170
  158PYPG   O3214799   1.374   3.521   4.097
  158PYPG   C3214800   1.496   3.490   4.303
  158PYPG   H2X14801   1.578   3.432   4.339
  158PYPG   H2Y14802   1.547   3.587   4.290
  158PYPG   C2314803   1.133   3.192   4.459
  158PYPG   H3R14804   1.211   3.260   4.501
  158PYPG   H3S14805   1.061   3.166   4.540
  158PYPG   C2414806   1.060   3.263   4.350
  158PYPG   H4R14807   0.964   3.210   4.326
  158PYPG   H4S14808   1.112   3.280   4.253
  158PYPG   C2514809   1.027   3.395   4.407
  158PYPG   H5R14810   0.970   3.421   4.316
  158PYPG   H5S14811   1.109   3.470   4.411
  158PYPG   C2614812   0.960   3.374   4.547
  158PYPG   H6R14813   1.033   3.363   4.630
  158PYPG   H6S14814   0.876   3.302   4.541
  158PYPG   C2714815   0.899   3.491   4.605
  158PYPG   H7R14816   0.800   3.482   4.550
  158PYPG   H7S14817   0.973   3.570   4.575
  158PYPG   C2814818   0.858   3.530   4.745
  158PYPG   H8R14819   0.831   3.638   4.755
  158PYPG   H8S14820   0.944   3.519   4.809
  158PYPG   C2914821   0.739   3.445   4.770
  158PYPG   H9R14822   0.648   3.450   4.708
  158PYPG  C21014823   0.740   3.352   4.852
  158PYPG  H10R14824   0.670   3.277   4.826
  158PYPG  C21114825   0.849   3.311   4.934
  158PYPG  H11R14826   0.942   3.326   4.878
  158PYPG  H11S14827   0.833   3.207   4.939
  158PYPG  C21214828   0.853   3.375   5.068
  158PYPG  H12R14829   0.850   3.487   5.063
  158PYPG  H12S14830   0.951   3.343   5.110
  158PYPG  C21314831   0.753   3.326   5.168
  158PYPG  H13R14832   0.747   3.215   5.177
  158PYPG  H13S14833   0.653   3.372   5.154
  158PYPG  C21414834   0.812   3.381   5.293
  158PYPG  H14R14835   0.886   3.314   5.345
  158PYPG  H14S14836   0.840   3.485   5.266
  158PYPG  C21514837   0.722   3.394   5.404
  158PYPG  H15R14838   0.619   3.374   5.400
  158PYPG  H15S14839   0.686   3.297   5.372
  158PYPG  C21614840   0.804   3.403   5.539
  158PYPG  H16R14841   0.788   3.314   5.601
  158PYPG  H16S14842   0.772   3.446   5.637
  158PYPG  H16T14843   0.767   3.507   5.543
  158PYPG   C3314844   1.406   3.464   4.424
  158PYPG   H3X14845   1.353   3.368   4.407
  158PYPG   H3Y14846   1.335   3.548   4.429
  158PYPG   C3414847   1.486   3.440   4.553
  158PYPG   H4X14848   1.519   3.542   4.579
  158PYPG   H4Y14849   1.575   3.375   4.538
  158PYPG   C3514850   1.411   3.375   4.670
  158PYPG   H5X14851   1.479   3.378   4.758
  158PYPG   H5Y14852   1.382   3.270   4.649
  158PYPG   C3614853   1.286   3.451   4.701
  158PYPG   H6X14854   1.217   3.456   4.616
  158PYPG   H6Y14855   1.330   3.550   4.712
  158PYPG   C3714856   1.207   3.403   4.823
  158PYPG   H7X14857   1.127   3.476   4.849
  158PYPG   H7Y14858   1.165   3.303   4.805
  158PYPG   C3814859   1.290   3.395   4.944
  158PYPG   H8X14860   1.377   3.326   4.936
  158PYPG   H8Y14861   1.227   3.365   5.031
  158PYPG   C3914862   1.340   3.532   4.970
  158PYPG   H9X14863   1.262   3.606   4.989
  158PYPG   H9Y14864   1.426   3.573   4.912
  158PYPG  C31014865   1.372   3.523   5.111
  158PYPG  H10X14866   1.290   3.488   5.168
  158PYPG  H10Y14867   1.401   3.631   5.130
  158PYPG  C31114868   1.437   3.392   5.161
  158PYPG  H11X14869   1.492   3.412   5.067
  158PYPG  H11Y14870   1.422   3.286   5.157
  158PYPG  C31214871   1.487   3.360   5.302
  158PYPG  H12X14872   1.602   3.373   5.307
  158PYPG  H12Y14873   1.598   3.403   5.314
  158PYPG  C31314874   1.380   3.405   5.443
  158PYPG  H13X14875   1.429   3.474   5.536
  158PYPG  H13Y14876   1.357   3.505   5.500
  158PYPG  C31414877   1.349   3.275   5.478
  158PYPG  H14X14878   1.358   3.194   5.407
  158PYPG  H14Y14879   1.437   3.215   5.495
  158PYPG  C31514880   1.291   3.285   5.607
  158PYPG  H15X14881   1.268   3.177   5.613
  158PYPG  H15Y14882   1.368   3.320   5.680
  158PYPG  C31614883   1.176   3.380   5.580
  158PYPG  H16X14884   1.100   3.353   5.651
  158PYPG  H16Y14885   1.141   3.367   5.473
  158PYPG  H16Z14886   1.198   3.489   5.590
  159PYPG   C1314887   6.253   4.947   3.680
  159PYPG  H13A14888   6.145   4.950   3.664
  159PYPG  H13B14889   6.292   4.854   3.632
  159PYPG   OC314890   6.275   4.947   3.820
  159PYPG   HO314891   6.242   4.862   3.852
  159PYPG   C1214892   6.318   5.070   3.616
  159PYPG  H12A14893   6.282   5.161   3.670
  159PYPG   OC214894   6.279   5.085   3.479
  159PYPG   HO214895   6.347   5.146   3.447
  159PYPG   C1114896   6.472   5.068   3.630
  159PYPG  H11A14897   6.511   4.969   3.597
  159PYPG  H11B14898   6.494   5.079   3.739
  159PYPG     P14899   6.686   5.173   3.531
  159PYPG   O1314900   6.738   5.309   3.504
  159PYPG   O1414901   6.717   5.070   3.428
  159PYPG   O1114902   6.739   5.120   3.670
  159PYPG   O1214903   6.530   5.174   3.554
  159PYPG    C114904   6.872   5.070   3.684
  159PYPG    HA14905   6.945   5.133   3.627
  159PYPG    HB14906   6.881   4.967   3.644
  159PYPG    C214907   6.921   5.076   3.833
  159PYPG    HS14908   7.024   5.031   3.836
  159PYPG   O2114909   6.833   5.011   3.926
  159PYPG   C2114910   6.838   4.883   3.913
  159PYPG   O2214911   6.918   4.818   3.848
  159PYPG   C2214912   6.734   4.819   4.000
  159PYPG   H2R14913   6.641   4.791   3.950
  159PYPG   H2S14914   6.710   4.885   4.086
  159PYPG    C314915   6.937   5.225   3.870
  159PYPG    HX14916   6.985   5.260   3.777
  159PYPG    HY14917   7.007   5.244   3.954
  159PYPG   O3114918   6.815   5.302   3.881
  159PYPG   C3114919   6.757   5.296   3.998
  159PYPG   O3214920   6.791   5.226   4.092
  159PYPG   C3214921   6.641   5.394   4.005
  159PYPG   H2X14922   6.667   5.473   4.077
  159PYPG   H2Y14923   6.627   5.443   3.906
  159PYPG   C2314924   6.791   4.681   4.030
  159PYPG   H3R14925   6.879   4.639   3.973
  159PYPG   H3S14926   6.721   4.610   4.041
  159PYPG   C2414927   6.846   4.660   4.164
  159PYPG   H4R14928   6.867   4.768   4.146
  159PYPG   H4S14929   6.921   4.584   4.161
  159PYPG   C2514930   6.807   4.639   4.315
  159PYPG   H5R14931   6.771   4.554   4.336
  159PYPG   H5S14932   6.710   4.704   4.268
  159PYPG   C2614933   6.906   4.710   4.489
  159PYPG   H6R14934   6.965   4.640   4.532
  159PYPG   H6S14935   6.858   4.775   4.556
  159PYPG   C2714936   6.929   4.881   4.545
  159PYPG   H7R14937   6.833   4.948   4.561
  159PYPG   H7S14938   6.981   4.947   4.468
  159PYPG   C2814939   7.005   4.899   4.652
  159PYPG   H8R14940   7.095   4.858   4.594
  159PYPG   H8S14941   6.997   4.830   4.733
  159PYPG   C2914942   6.981   5.046   4.689
  159PYPG   H9R14943   6.993   5.117   4.606
  159PYPG  C21014944   6.976   5.095   4.810
  159PYPG  H10R14945   7.025   5.191   4.827
  159PYPG  C21114946   6.993   5.008   4.925
  159PYPG  H11R14947   7.078   5.039   4.991
  159PYPG  H11S14948   7.004   4.898   4.905
  159PYPG  C21214949   6.862   4.992   4.976
  159PYPG  H12R14950   6.806   4.910   4.922
  159PYPG  H12S14951   6.803   5.086   4.979
  159PYPG  C21314952   6.905   4.952   5.111
  159PYPG  H13R14953   6.797   4.949   5.142
  159PYPG  H13S14954   6.946   5.034   5.168
  159PYPG  C21414955   7.007   4.827   5.136
  159PYPG  H14R14956   6.934   4.757   5.088
  159PYPG  H14S14957   7.058   4.762   5.069
  159PYPG  C21514958   7.070   4.803   5.293
  159PYPG  H15R14959   7.078   4.914   5.298
  159PYPG  H15S14960   7.156   4.744   5.289
  159PYPG  C21614961   7.018   4.733   5.443
  159PYPG  H16R14962   6.932   4.797   5.473
  159PYPG  H16S14963   7.002   4.774   5.545
  159PYPG  H16T14964   6.980   4.634   5.435
  159PYPG   C3314965   6.512   5.323   4.051
  159PYPG   H3X14966   6.508   5.221   4.008
  159PYPG   H3Y14967   6.428   5.380   4.003
  159PYPG   C3414968   6.488   5.321   4.205
  159PYPG   H4X14969   6.380   5.300   4.223
  159PYPG   H4Y14970   6.504   5.423   4.246
  159PYPG   C3514971   6.563   5.211   4.285
  159PYPG   H5X14972   6.667   5.241   4.311
  159PYPG   H5Y14973   6.570   5.119   4.222
  159PYPG   C3614974   6.489   5.174   4.416
  159PYPG   H6X14975   6.385   5.147   4.388
  159PYPG   H6Y14976   6.489   5.261   4.485
  159PYPG   C3714977   6.550   5.057   4.495
  159PYPG   H7X14978   6.566   4.981   4.416
  159PYPG   H7Y14979   6.651   5.085   4.534
  159PYPG   C3814980   6.460   5.000   4.608
  159PYPG   H8X14981   6.366   4.959   4.565
  159PYPG   H8Y14982   6.440   5.076   4.685
  159PYPG   C3914983   6.521   4.883   4.682
  159PYPG   H9X14984   6.627   4.910   4.704
  159PYPG   H9Y14985   6.506   4.799   4.611
  159PYPG  C31014986   6.447   4.808   4.789
  159PYPG  H10X14987   6.391   4.724   4.739
  159PYPG  H10Y14988   6.381   4.880   4.835
  159PYPG  C31114989   6.541   4.747   4.891
  159PYPG  H11X14990   6.615   4.820   4.932
  159PYPG  H11Y14991   6.588   4.670   4.831
  159PYPG  C31214992   6.478   4.660   4.996
  159PYPG  H12X14993   6.398   4.602   4.946
  159PYPG  H12Y14994   6.549   4.585   5.037
  159PYPG  C31314995   6.431   4.754   5.103
  159PYPG  H13X14996   6.518   4.804   5.149
  159PYPG  H13Y14997   6.366   4.829   5.053
  159PYPG  C31414998   6.352   4.684   5.209
  159PYPG  H14X14999   6.280   4.622   5.150
  159PYPG  H14Y15000   6.414   4.605   5.257
  159PYPG  C31515001   6.289   4.785   5.312
  159PYPG  H15X15002   6.243   4.727   5.395
  159PYPG  H15Y15003   6.339   4.836   5.385
  159PYPG  C31615004   6.217   4.916   5.277
  159PYPG  H16X15005   6.136   4.905   5.203
  159PYPG  H16Y15006   6.290   4.991   5.240
  159PYPG  H16Z15007   6.170   4.948   5.373
  160PYPG   C1315008   3.922   7.674   3.449
  160PYPG  H13A15009   3.968   7.728   3.535
  160PYPG  H13B15010   3.993   7.595   3.425
  160PYPG   OC315011   3.910   7.762   3.336
  160PYPG   HO315012   3.911   7.852   3.370
  160PYPG   C1215013   3.792   7.603   3.492
  160PYPG  H12A15014   3.816   7.533   3.575
  160PYPG   OC215015   3.729   7.525   3.389
  160PYPG   HO215016   3.636   7.522   3.415
  160PYPG   C1115017   3.698   7.705   3.552
  160PYPG  H11A15018   3.604   7.652   3.577
  160PYPG  H11B15019   3.674   7.785   3.477
  160PYPG     P15020   3.747   7.897   3.724
  160PYPG   O1315021   3.642   7.949   3.635
  160PYPG   O1415022   3.864   7.983   3.735
  160PYPG   O1115023   3.709   7.861   3.876
  160PYPG   O1215024   3.769   7.752   3.668
  160PYPG    C115025   3.603   7.780   3.920
  160PYPG    HA15026   3.576   7.723   3.832
  160PYPG    HB15027   3.526   7.852   3.955
  160PYPG    C215028   3.604   7.644   4.005
  160PYPG    HS15029   3.506   7.595   4.016
  160PYPG   O2115030   3.659   7.656   4.135
  160PYPG   C2115031   3.594   7.746   4.208
  160PYPG   O2215032   3.502   7.816   4.175
  160PYPG   C2215033   3.655   7.766   4.340
  160PYPG   H2R15034   3.762   7.775   4.315
  160PYPG   H2S15035   3.637   7.682   4.411
  160PYPG    C315036   3.674   7.532   3.927
  160PYPG    HX15037   3.618   7.511   3.831
  160PYPG    HY15038   3.660   7.441   3.990
  160PYPG   O3115039   3.807   7.569   3.894
  160PYPG   C3115040   3.896   7.526   3.981
  160PYPG   O3215041   3.872   7.443   4.067
  160PYPG   C3215042   4.029   7.590   3.948
  160PYPG   H2X15043   4.086   7.514   3.892
  160PYPG   H2Y15044   4.014   7.679   3.883
  160PYPG   C2315045   3.593   7.896   4.394
  160PYPG   H3R15046   3.484   7.893   4.417
  160PYPG   H3S15047   3.596   7.979   4.320
  160PYPG   C2415048   3.664   7.936   4.519
  160PYPG   H4R15049   3.770   7.948   4.494
  160PYPG   H4S15050   3.655   7.858   4.598
  160PYPG   C2515051   3.605   8.066   4.570
  160PYPG   H5R15052   3.502   8.045   4.607
  160PYPG   H5S15053   3.598   8.137   4.484
  160PYPG   C2615054   3.692   8.122   4.680
  160PYPG   H6R15055   3.782   8.159   4.626
  160PYPG   H6S15056   3.721   8.040   4.750
  160PYPG   C2715057   3.629   8.238   4.756
  160PYPG   H7R15058   3.528   8.211   4.791
  160PYPG   H7S15059   3.608   8.313   4.677
  160PYPG   C2815060   3.714   8.294   4.873
  160PYPG   H8R15061   3.693   8.401   4.895
  160PYPG   H8S15062   3.819   8.295   4.840
  160PYPG   C2915063   3.699   8.209   4.996
  160PYPG   H9R15064   3.778   8.135   5.013
  160PYPG  C21015065   3.604   8.227   5.090
  160PYPG  H10R15066   3.592   8.151   5.169
  160PYPG  C21115067   3.497   8.333   5.088
  160PYPG  H11R15068   3.398   8.286   5.075
  160PYPG  H11S15069   3.511   8.405   5.005
  160PYPG  C21215070   3.495   8.413   5.218
  160PYPG  H12R15071   3.499   8.345   5.307
  160PYPG  H12S15072   3.395   8.462   5.227
  160PYPG  C21315073   3.602   8.525   5.222
  160PYPG  H13R15074   3.546   8.619   5.198
  160PYPG  H13S15075   3.686   8.512   5.152
  160PYPG  C21415076   3.655   8.547   5.362
  160PYPG  H14R15077   3.666   8.654   5.393
  160PYPG  H14S15078   3.557   8.521   5.402
  160PYPG  C21515079   3.772   8.460   5.418
  160PYPG  H15R15080   3.830   8.525   5.491
  160PYPG  H15S15081   3.829   8.429   5.330
  160PYPG  C21615082   3.767   8.327   5.493
  160PYPG  H16R15083   3.786   8.345   5.599
  160PYPG  H16S15084   3.854   8.265   5.467
  160PYPG  H16T15085   3.672   8.274   5.477
  160PYPG   C3315086   4.109   7.633   4.073
  160PYPG   H3X15087   4.190   7.703   4.044
  160PYPG   H3Y15088   4.161   7.548   4.114
  160PYPG   C3415089   4.030   7.687   4.191
  160PYPG   H4X15090   3.939   7.627   4.213
  160PYPG   H4Y15091   3.999   7.791   4.166
  160PYPG   C3515092   4.117   7.675   4.317
  160PYPG   H5X15093   4.203   7.744   4.300
  160PYPG   H5Y15094   4.162   7.576   4.332
  160PYPG   C3615095   4.041   7.709   4.446
  160PYPG   H6X15096   3.973   7.792   4.415
  160PYPG   H6Y15097   4.113   7.738   4.526
  160PYPG   C3715098   3.940   7.617   4.505
  160PYPG   H7X15099   3.860   7.613   4.428
  160PYPG   H7Y15100   3.991   7.520   4.518
  160PYPG   C3815101   3.875   7.671   4.632
  160PYPG   H8X15102   3.783   7.613   4.652
  160PYPG   H8Y15103   3.847   7.777   4.617
  160PYPG   C3915104   3.963   7.664   4.755
  160PYPG   H9X15105   4.051   7.730   4.747
  160PYPG   H9Y15106   3.997   7.562   4.782
  160PYPG  C31015107   3.885   7.699   4.876
  160PYPG  H10X15108   3.794   7.637   4.880
  160PYPG  H10Y15109   3.845   7.804   4.878
  160PYPG  C31115110   3.973   7.662   4.991
  160PYPG  H11X15111   4.061   7.725   5.020
  160PYPG  H11Y15112   3.996   7.555   5.000
  160PYPG  C31215113   3.892   7.677   5.104
  160PYPG  H12X15114   3.855   7.783   5.088
  160PYPG  H12Y15115   3.792   7.626   5.101
  160PYPG  C31315116   3.988   7.633   5.225
  160PYPG  H13X15117   3.892   7.603   5.271
  160PYPG  H13Y15118   3.983   7.535   5.271
  160PYPG  C31415119   4.104   7.724   5.315
  160PYPG  H14X15120   4.169   7.741   5.232
  160PYPG  H14Y15121   4.093   7.830   5.324
  160PYPG  C31515122   4.145   7.710   5.489
  160PYPG  H15X15123   4.243   7.664   5.506
  160PYPG  H15Y15124   4.165   7.805   5.543
  160PYPG  C31615125   4.069   7.637   5.608
  160PYPG  H16X15126   4.103   7.662   5.710
  160PYPG  H16Y15127   4.009   7.549   5.583
  160PYPG  H16Z15128   3.987   7.658   5.675
  161PYPG   C1315129   5.955   0.193   3.372
  161PYPG  H13A15130   6.028   0.173   3.291
  161PYPG  H13B15131   5.871   0.253   3.329
  161PYPG   OC315132   6.026   0.261   3.474
  161PYPG   HO315133   6.081   0.194   3.517
  161PYPG   C1215134   5.902   0.055   3.415
  161PYPG  H12A15135   5.881   0.010   3.316
  161PYPG   OC215136   5.773   0.057   3.476
  161PYPG   HO215137   5.766  -0.026   3.525
  161PYPG   C1115138   6.002  -0.030   3.498
  161PYPG  H11A15139   6.103  -0.022   3.451
  161PYPG  H11B15140   5.973  -0.137   3.499
  161PYPG     P15141   6.080  -0.077   3.739
  161PYPG   O1315142   6.223  -0.089   3.708
  161PYPG   O1415143   6.001  -0.200   3.758
  161PYPG   O1115144   6.063   0.014   3.861
  161PYPG   O1215145   6.011   0.018   3.631
  161PYPG    C115146   6.051   0.152   3.850
  161PYPG    HA15147   5.945   0.186   3.836
  161PYPG    HB15148   6.111   0.201   3.768
  161PYPG    C215149   6.094   0.201   3.986
  161PYPG    HS15150   6.118   0.299   3.955
  161PYPG   O2115151   6.218   0.149   4.033
  161PYPG   C2115152   6.303   0.223   4.098
  161PYPG   O2215153   6.318   0.342   4.107
  161PYPG   C2215154   6.395   0.133   4.158
  161PYPG   H2R15155   6.466   0.115   4.073
  161PYPG   H2S15156   6.347   0.041   4.196
  161PYPG    C315157   5.978   0.173   4.093
  161PYPG    HX15158   5.883   0.223   4.083
  161PYPG    HY15159   5.963   0.220   4.186
  161PYPG   O3115160   5.967   0.047   4.144
  161PYPG   C3115161   5.870  -0.008   4.079
  161PYPG   O3215162   5.785   0.047   4.012
  161PYPG   C3215163   5.887  -0.150   4.107
  161PYPG   H2X15164   5.838  -0.162   4.206
  161PYPG   H2Y15165   5.836  -0.201   4.024
  161PYPG   C2315166   6.463   0.209   4.269
  161PYPG   H3R15167   6.500   0.311   4.249
  161PYPG   H3S15168   6.536   0.134   4.254
  161PYPG   C2415169   6.457   0.174   4.412
  161PYPG   H4R15170   6.545   0.211   4.470
  161PYPG   H4S15171   6.442   0.066   4.431
  161PYPG   C2515172   6.352   0.254   4.462
  161PYPG   H5R15173   6.256   0.206   4.434
  161PYPG   H5S15174   6.360   0.356   4.413
  161PYPG   C2615175   6.380   0.249   4.609
  161PYPG   H6R15176   6.468   0.313   4.637
  161PYPG   H6S15177   6.368   0.150   4.654
  161PYPG   C2715178   6.267   0.309   4.668
  161PYPG   H7R15179   6.174   0.275   4.622
  161PYPG   H7S15180   6.300   0.396   4.607
  161PYPG   C2815181   6.268   0.345   4.816
  161PYPG   H8R15182   6.200   0.422   4.859
  161PYPG   H8S15183   6.371   0.382   4.823
  161PYPG   C2915184   6.263   0.244   4.913
  161PYPG   H9R15185   6.333   0.170   4.879
  161PYPG  C21015186   6.190   0.228   5.021
  161PYPG  H10R15187   6.236   0.160   5.091
  161PYPG  C21115188   6.082   0.312   5.079
  161PYPG  H11R15189   5.987   0.260   5.094
  161PYPG  H11S15190   6.064   0.417   5.036
  161PYPG  C21215191   6.127   0.336   5.218
  161PYPG  H12R15192   6.027   0.379   5.245
  161PYPG  H12S15193   6.208   0.406   5.202
  161PYPG  C21315194   6.154   0.258   5.346
  161PYPG  H13R15195   6.248   0.205   5.324
  161PYPG  H13S15196   6.063   0.198   5.361
  161PYPG  C21415197   6.170   0.328   5.486
  161PYPG  H14R15198   6.123   0.419   5.520
  161PYPG  H14S15199   6.148   0.251   5.564
  161PYPG  C21515200   6.305   0.383   5.514
  161PYPG  H15R15201   6.358   0.438   5.434
  161PYPG  H15S15202   6.345   0.282   5.509
  161PYPG  C21615203   6.312   0.462   5.646
  161PYPG  H16R15204   6.239   0.527   5.656
  161PYPG  H16S15205   6.393   0.538   5.662
  161PYPG  H16T15206   6.295   0.403   5.733
  161PYPG   C3315207   6.039  -0.178   4.114
  161PYPG   H3X15208   6.090  -0.114   4.190
  161PYPG   H3Y15209   6.090  -0.158   4.018
  161PYPG   C3415210   6.068  -0.315   4.165
  161PYPG   H4X15211   6.063  -0.386   4.080
  161PYPG   H4Y15212   5.988  -0.339   4.237
  161PYPG   C3515213   6.207  -0.317   4.231
  161PYPG   H5X15214   6.279  -0.279   4.157
  161PYPG   H5Y15215   6.226  -0.426   4.247
  161PYPG   C3615216   6.236  -0.231   4.359
  161PYPG   H6X15217   6.210  -0.124   4.353
  161PYPG   H6Y15218   6.345  -0.246   4.379
  161PYPG   C3715219   6.167  -0.282   4.483
  161PYPG   H7X15220   6.057  -0.277   4.485
  161PYPG   H7Y15221   6.199  -0.375   4.436
  161PYPG   C3815222   6.224  -0.292   4.625
  161PYPG   H8X15223   6.322  -0.345   4.628
  161PYPG   H8Y15224   6.158  -0.352   4.691
  161PYPG   C3915225   6.229  -0.159   4.693
  161PYPG   H9X15226   6.141  -0.149   4.760
  161PYPG   H9Y15227   6.225  -0.081   4.614
  161PYPG  C31015228   6.360  -0.157   4.768
  161PYPG  H10X15229   6.375  -0.054   4.806
  161PYPG  H10Y15230   6.442  -0.181   4.695
  161PYPG  C31115231   6.363  -0.256   4.884
  161PYPG  H11X15232   6.379  -0.361   4.849
  161PYPG  H11Y15233   6.266  -0.255   4.939
  161PYPG  C31215234   6.474  -0.218   4.982
  161PYPG  H12X15235   6.501  -0.313   5.033
  161PYPG  H12Y15236   6.564  -0.184   4.928
  161PYPG  C31315237   6.431  -0.105   5.078
  161PYPG  H13X15238   6.435  -0.008   5.027
  161PYPG  H13Y15239   6.326  -0.122   5.111
  161PYPG  C31415240   6.520  -0.095   5.201
  161PYPG  H14X15241   6.544  -0.201   5.215
  161PYPG  H14Y15242   6.617  -0.048   5.179
  161PYPG  C31515243   6.454  -0.020   5.319
  161PYPG  H15X15244   6.440   0.083   5.279
  161PYPG  H15Y15245   6.353  -0.061   5.338
  161PYPG  C31615246   6.531  -0.008   5.452
  161PYPG  H16X15247   6.515  -0.096   5.518
  161PYPG  H16Y15248   6.500   0.081   5.509
  161PYPG  H16Z15249   6.640   0.005   5.433
  162PYPG   C1315250   7.482   7.070   3.302
  162PYPG  H13A15251   7.398   7.135   3.268
  162PYPG  H13B15252   7.566   7.081   3.231
  162PYPG   OC315253   7.437   6.935   3.303
  162PYPG   HO315254   7.386   6.927   3.384
  162PYPG   C1215255   7.527   7.120   3.443
  162PYPG  H12A15256   7.613   7.190   3.430
  162PYPG   OC215257   7.583   7.017   3.522
  162PYPG   HO215258   7.557   7.040   3.615
  162PYPG   C1115259   7.413   7.201   3.511
  162PYPG  H11A15260   7.314   7.152   3.494
  162PYPG  H11B15261   7.410   7.297   3.456
  162PYPG     P15262   7.372   7.133   3.760
  162PYPG   O1315263   7.462   7.024   3.756
  162PYPG   O1415264   7.230   7.103   3.741
  162PYPG   O1115265   7.396   7.207   3.895
  162PYPG   O1215266   7.433   7.231   3.649
  162PYPG    C115267   7.399   7.348   3.891
  162PYPG    HA15268   7.328   7.383   3.968
  162PYPG    HB15269   7.362   7.393   3.796
  162PYPG    C215270   7.542   7.397   3.917
  162PYPG    HS15271   7.608   7.372   3.831
  162PYPG   O2115272   7.586   7.336   4.036
  162PYPG   C2115273   7.709   7.361   4.062
  162PYPG   O2215274   7.793   7.410   3.988
  162PYPG   C2215275   7.735   7.306   4.194
  162PYPG   H2R15276   7.686   7.353   4.282
  162PYPG   H2S15277   7.843   7.314   4.191
  162PYPG    C315278   7.539   7.546   3.939
  162PYPG    HX15279   7.508   7.589   3.841
  162PYPG    HY15280   7.637   7.595   3.964
  162PYPG   O3115281   7.434   7.555   4.038
  162PYPG   C3115282   7.468   7.565   4.162
  162PYPG   O3215283   7.585   7.573   4.198
  162PYPG   C3215284   7.335   7.590   4.253
  162PYPG   H2X15285   7.276   7.681   4.228
  162PYPG   H2Y15286   7.259   7.516   4.234
  162PYPG   C2315287   7.712   7.159   4.199
  162PYPG   H3R15288   7.769   7.145   4.292
  162PYPG   H3S15289   7.756   7.104   4.112
  162PYPG   C2415290   7.584   7.100   4.248
  162PYPG   H4R15291   7.612   6.997   4.231
  162PYPG   H4S15292   7.502   7.120   4.179
  162PYPG   C2515293   7.558   7.120   4.398
  162PYPG   H5R15294   7.551   7.229   4.411
  162PYPG   H5S15295   7.644   7.084   4.459
  162PYPG   C2615296   7.424   7.063   4.447
  162PYPG   H6R15297   7.401   6.964   4.403
  162PYPG   H6S15298   7.340   7.119   4.405
  162PYPG   C2715299   7.417   7.053   4.601
  162PYPG   H7R15300   7.489   6.981   4.645
  162PYPG   H7S15301   7.319   7.007   4.622
  162PYPG   C2815302   7.444   7.188   4.674
  162PYPG   H8R15303   7.539   7.231   4.639
  162PYPG   H8S15304   7.458   7.167   4.783
  162PYPG   C2915305   7.338   7.292   4.657
  162PYPG   H9R15306   7.358   7.386   4.606
  162PYPG  C21015307   7.218   7.271   4.701
  162PYPG  H10R15308   7.136   7.344   4.701
  162PYPG  C21115309   7.194   7.142   4.766
  162PYPG  H11R15310   7.274   7.075   4.807
  162PYPG  H11S15311   7.135   7.083   4.693
  162PYPG  C21215312   7.123   7.189   4.884
  162PYPG  H12R15313   7.128   7.084   4.927
  162PYPG  H12S15314   7.027   7.224   4.838
  162PYPG  C21315315   7.167   7.264   5.009
  162PYPG  H13R15316   7.197   7.364   4.981
  162PYPG  H13S15317   7.220   7.193   5.078
  162PYPG  C21415318   7.070   7.320   5.110
  162PYPG  H14R15319   7.023   7.230   5.118
  162PYPG  H14S15320   7.097   7.337   5.218
  162PYPG  C21515321   6.951   7.389   5.070
  162PYPG  H15R15322   6.874   7.346   5.008
  162PYPG  H15S15323   6.962   7.465   5.004
  162PYPG  C21615324   6.899   7.406   5.206
  162PYPG  H16R15325   6.890   7.325   5.274
  162PYPG  H16S15326   6.811   7.474   5.184
  162PYPG  H16T15327   6.886   7.461   5.289
  162PYPG   C3315328   7.363   7.615   4.403
  162PYPG   H3X15329   7.372   7.723   4.438
  162PYPG   H3Y15330   7.447   7.560   4.442
  162PYPG   C3415331   7.248   7.603   4.483
  162PYPG   H4X15332   7.208   7.502   4.473
  162PYPG   H4Y15333   7.192   7.674   4.424
  162PYPG   C3515334   7.282   7.648   4.621
  162PYPG   H5X15335   7.288   7.761   4.625
  162PYPG   H5Y15336   7.370   7.598   4.666
  162PYPG   C3615337   7.177   7.612   4.713
  162PYPG   H6X15338   7.111   7.528   4.724
  162PYPG   H6Y15339   7.109   7.620   4.631
  162PYPG   C3715340   7.188   7.709   4.827
  162PYPG   H7X15341   7.223   7.813   4.824
  162PYPG   H7Y15342   7.086   7.731   4.829
  162PYPG   C3815343   7.236   7.636   4.944
  162PYPG   H8X15344   7.326   7.586   4.900
  162PYPG   H8Y15345   7.160   7.559   4.968
  162PYPG   C3915346   7.274   7.731   5.056
  162PYPG   H9X15347   7.194   7.772   5.113
  162PYPG   H9Y15348   7.306   7.830   5.021
  162PYPG  C31015349   7.389   7.673   5.135
  162PYPG  H10X15350   7.409   7.744   5.217
  162PYPG  H10Y15351   7.474   7.680   5.066
  162PYPG  C31115352   7.367   7.527   5.184
  162PYPG  H11X15353   7.384   7.458   5.099
  162PYPG  H11Y15354   7.259   7.515   5.214
  162PYPG  C31215355   7.453   7.490   5.308
  162PYPG  H12X15356   7.559   7.492   5.278
  162PYPG  H12Y15357   7.453   7.565   5.389
  162PYPG  C31315358   7.409   7.363   5.383
  162PYPG  H13X15359   7.475   7.353   5.472
  162PYPG  H13Y15360   7.306   7.374   5.423
  162PYPG  C31415361   7.418   7.239   5.295
  162PYPG  H14X15362   7.370   7.257   5.197
  162PYPG  H14Y15363   7.525   7.222   5.271
  162PYPG  C31515364   7.353   7.115   5.357
  162PYPG  H15X15365   7.386   7.098   5.461
  162PYPG  H15Y15366   7.245   7.133   5.370
  162PYPG  C31615367   7.380   6.991   5.272
  162PYPG  H16X15368   7.313   6.992   5.183
  162PYPG  H16Y15369   7.361   6.899   5.331
  162PYPG  H16Z15370   7.485   6.987   5.235
  163POPE     N15371   4.078   2.782   7.580
  163POPE   HN115372   4.153   2.717   7.606
  163POPE   HN215373   3.996   2.772   7.645
  163POPE   HN315374   4.044   2.765   7.484
  163POPE   C1215375   4.121   2.926   7.570
  163POPE  H12A15376   4.196   2.953   7.646
  163POPE  H12B15377   4.026   2.982   7.567
  163POPE   C1115378   4.224   2.972   7.473
  163POPE  H11A15379   4.310   2.904   7.491
  163POPE  H11B15380   4.255   3.078   7.499
  163POPE     P15381   4.114   3.093   7.277
  163POPE   O1315382   4.236   3.167   7.239
  163POPE   O1415383   4.015   3.160   7.363
  163POPE   O1115384   4.040   3.024   7.156
  163POPE   O1215385   4.162   2.959   7.349
  163POPE    C115386   4.084   2.898   7.103
  163POPE    HA15387   3.999   2.843   7.060
  163POPE    HB15388   4.134   2.831   7.177
  163POPE    C215389   4.180   2.922   6.986
  163POPE    HS15390   4.249   2.999   7.025
  163POPE   O2115391   4.109   2.972   6.872
  163POPE   C2115392   4.129   3.100   6.843
  163POPE   O2215393   4.190   3.182   6.909
  163POPE   C2215394   4.085   3.124   6.699
  163POPE   H2R15395   3.989   3.179   6.697
  163POPE   H2S15396   4.070   3.025   6.651
  163POPE    C315397   4.255   2.788   6.953
  163POPE    HX15398   4.183   2.704   6.945
  163POPE    HY15399   4.322   2.760   7.037
  163POPE   O3115400   4.338   2.800   6.836
  163POPE   C3115401   4.279   2.759   6.729
  163POPE   O3215402   4.175   2.698   6.724
  163POPE   C3215403   4.357   2.788   6.611
  163POPE   H2X15404   4.460   2.792   6.646
  163POPE   H2Y15405   4.321   2.885   6.570
  163POPE   C2315406   4.198   3.203   6.629
  163POPE   H3R15407   4.295   3.156   6.654
  163POPE   H3S15408   4.198   3.306   6.671
  163POPE   C2415409   4.189   3.214   6.476
  163POPE   H4R15410   4.273   3.280   6.443
  163POPE   H4S15411   4.094   3.264   6.449
  163POPE   C2515412   4.205   3.082   6.398
  163POPE   H5R15413   4.173   2.993   6.457
  163POPE   H5S15414   4.314   3.073   6.380
  163POPE   C2615415   4.139   3.083   6.259
  163POPE   H6R15416   4.194   3.158   6.199
  163POPE   H6S15417   4.033   3.116   6.267
  163POPE   C2715418   4.139   2.945   6.189
  163POPE   H7R15419   4.078   2.874   6.249
  163POPE   H7S15420   4.243   2.905   6.186
  163POPE   C2815421   4.092   2.948   6.042
  163POPE   H8R15422   4.139   2.858   5.995
  163POPE   H8S15423   4.140   3.034   5.992
  163POPE   C2915424   3.942   2.957   6.018
  163POPE   H9115425   3.893   3.054   6.009
  163POPE  C21015426   3.863   2.854   6.001
  163POPE  H10115427   3.757   2.853   5.970
  163POPE  C21115428   3.919   2.723   6.004
  163POPE  H11R15429   3.825   2.664   6.015
  163POPE  H11S15430   3.992   2.701   6.080
  163POPE  C21215431   3.991   2.689   5.882
  163POPE  H12R15432   4.035   2.589   5.901
  163POPE  H12S15433   4.083   2.737   5.847
  163POPE  C21315434   3.885   2.706   5.778
  163POPE  H13R15435   3.796   2.639   5.767
  163POPE  H13S15436   3.955   2.654   5.719
  163POPE  C21415437   3.896   2.815   5.684
  163POPE  H14R15438   3.865   2.906   5.733
  163POPE  H14S15439   3.811   2.778   5.626
  163POPE  C21515440   4.029   2.819   5.608
  163POPE  H15R15441   4.076   2.751   5.540
  163POPE  H15S15442   4.121   2.825   5.666
  163POPE  C21615443   4.001   2.893   5.488
  163POPE  H16R15444   3.994   2.979   5.548
  163POPE  H16S15445   3.902   2.889   5.438
  163POPE  C21715446   4.115   2.893   5.391
  163POPE  H17R15447   4.102   2.970   5.325
  163POPE  H17S15448   4.084   2.823   5.315
  163POPE  C21815449   4.258   2.907   5.445
  163POPE  H18R15450   4.326   2.947   5.366
  163POPE  H18S15451   4.296   2.809   5.478
  163POPE  H18T15452   4.261   2.972   5.535
  163POPE   C3315453   4.377   2.665   6.522
  163POPE   H3X15454   4.286   2.628   6.480
  163POPE   H3Y15455   4.458   2.596   6.567
  163POPE   C3415456   4.418   2.713   6.387
  163POPE   H4X15457   4.492   2.739   6.462
  163POPE   H4Y15458   4.369   2.796   6.336
  163POPE   C3515459   4.472   2.635   6.275
  163POPE   H5X15460   4.373   2.606   6.234
  163POPE   H5Y15461   4.530   2.554   6.320
  163POPE   C3615462   4.556   2.689   6.158
  163POPE   H6X15463   4.666   2.689   6.174
  163POPE   H6Y15464   4.567   2.783   6.122
  163POPE   C3715465   4.475   2.678   6.029
  163POPE   H7X15466   4.393   2.611   6.036
  163POPE   H7Y15467   4.546   2.600   6.041
  163POPE   C3815468   4.498   2.742   5.885
  163POPE   H8X15469   4.598   2.759   5.851
  163POPE   H8Y15470   4.474   2.844   5.878
  163POPE   C3915471   4.451   2.671   5.756
  163POPE   H9X15472   4.444   2.563   5.762
  163POPE   H9Y15473   4.507   2.689   5.660
  163POPE  C31015474   4.313   2.671   5.757
  163POPE  H10X15475   4.320   2.771   5.710
  163POPE  H10Y15476   4.292   2.662   5.866
  163POPE  C31115477   4.264   2.546   5.688
  163POPE  H11X15478   4.168   2.589   5.669
  163POPE  H11Y15479   4.263   2.455   5.754
  163POPE  C31215480   4.336   2.503   5.563
  163POPE  H12X15481   4.426   2.441   5.561
  163POPE  H12Y15482   4.357   2.594   5.505
  163POPE  C31315483   4.255   2.395   5.507
  163POPE  H13X15484   4.151   2.433   5.517
  163POPE  H13Y15485   4.250   2.311   5.567
  163POPE  C31415486   4.309   2.349   5.380
  163POPE  H14X15487   4.291   2.240   5.353
  163POPE  H14Y15488   4.412   2.374   5.351
  163POPE  C31515489   4.209   2.440   5.330
  163POPE  H15X15490   4.139   2.362   5.300
  163POPE  H15Y15491   4.179   2.391   5.238
  163POPE  C31615492   4.209   2.610   5.341
  163POPE  H16X15493   4.301   2.666   5.314
  163POPE  H16Y15494   4.161   2.649   5.424
  163POPE  H16Z15495   4.179   2.682   5.259
  164POPE     N15496   2.838   4.035   7.581
  164POPE   HN115497   2.806   3.942   7.613
  164POPE   HN215498   2.932   4.056   7.622
  164POPE   HN315499   2.770   4.107   7.615
  164POPE   C1215500   2.833   4.043   7.429
  164POPE  H12A15501   2.880   4.139   7.400
  164POPE  H12B15502   2.725   4.045   7.404
  164POPE   C1115503   2.893   3.922   7.355
  164POPE  H11A15504   3.004   3.928   7.350
  164POPE  H11B15505   2.856   3.924   7.249
  164POPE     P15506   2.833   3.663   7.358
  164POPE   O1315507   2.708   3.614   7.415
  164POPE   O1415508   2.957   3.587   7.382
  164POPE   O1115509   2.813   3.694   7.208
  164POPE   O1215510   2.855   3.805   7.423
  164POPE    C115511   2.688   3.670   7.141
  164POPE    HA15512   2.628   3.763   7.146
  164POPE    HB15513   2.628   3.586   7.183
  164POPE    C215514   2.716   3.634   6.996
  164POPE    HS15515   2.726   3.523   6.987
  164POPE   O2115516   2.843   3.701   6.967
  164POPE   C2115517   2.895   3.656   6.857
  164POPE   O2215518   2.844   3.563   6.797
  164POPE   C2215519   3.014   3.751   6.808
  164POPE   H2R15520   3.096   3.741   6.884
  164POPE   H2S15521   2.972   3.851   6.800
  164POPE    C315522   2.592   3.683   6.911
  164POPE    HX15523   2.504   3.621   6.944
  164POPE    HY15524   2.602   3.653   6.803
  164POPE   O3115525   2.563   3.828   6.935
  164POPE   C3115526   2.660   3.917   6.882
  164POPE   O3215527   2.754   3.875   6.821
  164POPE   C3215528   2.609   4.075   6.846
  164POPE   H2X15529   2.632   4.145   6.925
  164POPE   H2Y15530   2.513   4.048   6.897
  164POPE   C2315531   3.084   3.744   6.667
  164POPE   H3R15532   3.061   3.650   6.676
  164POPE   H3S15533   3.193   3.727   6.665
  164POPE   C2415534   3.015   3.766   6.527
  164POPE   H4R15535   3.011   3.875   6.523
  164POPE   H4S15536   2.908   3.736   6.528
  164POPE   C2515537   3.087   3.700   6.401
  164POPE   H5R15538   3.049   3.600   6.374
  164POPE   H5S15539   3.196   3.687   6.424
  164POPE   C2615540   3.058   3.741   6.257
  164POPE   H6R15541   2.950   3.738   6.234
  164POPE   H6S15542   3.122   3.679   6.189
  164POPE   C2715543   3.096   3.879   6.244
  164POPE   H7R15544   3.204   3.875   6.221
  164POPE   H7S15545   3.068   3.907   6.347
  164POPE   C2815546   3.023   3.988   6.175
  164POPE   H8R15547   3.073   4.086   6.201
  164POPE   H8S15548   2.922   3.991   6.218
  164POPE   C2915549   3.042   3.951   6.032
  164POPE   H9115550   3.143   3.933   5.995
  164POPE  C21015551   2.951   3.930   5.945
  164POPE  H10115552   2.984   3.923   5.841
  164POPE  C21115553   2.810   3.942   5.988
  164POPE  H11R15554   2.795   3.899   6.090
  164POPE  H11S15555   2.751   3.882   5.918
  164POPE  C21215556   2.763   4.086   5.993
  164POPE  H12R15557   2.824   4.148   6.064
  164POPE  H12S15558   2.660   4.092   6.031
  164POPE  C21315559   2.764   4.139   5.849
  164POPE  H13R15560   2.671   4.198   5.838
  164POPE  H13S15561   2.768   4.060   5.774
  164POPE  C21415562   2.889   4.220   5.822
  164POPE  H14R15563   2.989   4.184   5.849
  164POPE  H14S15564   2.864   4.270   5.915
  164POPE  C21515565   2.897   4.293   5.686
  164POPE  H15R15566   2.870   4.219   5.610
  164POPE  H15S15567   2.995   4.342   5.672
  164POPE  C21615568   2.797   4.403   5.667
  164POPE  H16R15569   2.833   4.507   5.693
  164POPE  H16S15570   2.722   4.364   5.738
  164POPE  C21715571   2.729   4.434   5.544
  164POPE  H17R15572   2.673   4.340   5.519
  164POPE  H17S15573   2.813   4.475   5.487
  164POPE  C21815574   2.642   4.546   5.537
  164POPE  H18R15575   2.616   4.599   5.463
  164POPE  H18S15576   2.673   4.640   5.583
  164POPE  H18T15577   2.540   4.512   5.555
  164POPE   C3315578   2.616   4.157   6.679
  164POPE   H3X15579   2.721   4.161   6.660
  164POPE   H3Y15580   2.573   4.259   6.684
  164POPE   C3415581   2.532   4.126   6.524
  164POPE   H4X15582   2.434   4.074   6.521
  164POPE   H4Y15583   2.591   4.071   6.455
  164POPE   C3515584   2.497   4.183   6.387
  164POPE   H5X15585   2.587   4.244   6.371
  164POPE   H5Y15586   2.398   4.226   6.409
  164POPE   C3615587   2.491   4.081   6.264
  164POPE   H6X15588   2.584   4.024   6.262
  164POPE   H6Y15589   2.508   4.137   6.174
  164POPE   C3715590   2.361   4.005   6.231
  164POPE   H7X15591   2.289   4.088   6.227
  164POPE   H7Y15592   2.323   3.933   6.306
  164POPE   C3815593   2.342   3.920   6.105
  164POPE   H8X15594   2.245   3.862   6.102
  164POPE   H8Y15595   2.411   3.844   6.110
  164POPE   C3915596   2.419   3.953   5.984
  164POPE   H9X15597   2.529   3.945   6.007
  164POPE   H9Y15598   2.383   4.051   5.958
  164POPE  C31015599   2.406   3.856   5.872
  164POPE  H10X15600   2.304   3.812   5.850
  164POPE  H10Y15601   2.479   3.779   5.891
  164POPE  C31115602   2.484   3.894   5.762
  164POPE  H11X15603   2.585   3.921   5.793
  164POPE  H11Y15604   2.426   3.979   5.723
  164POPE  C31215605   2.499   3.771   5.682
  164POPE  H12X15606   2.395   3.774   5.664
  164POPE  H12Y15607   2.477   3.666   5.696
  164POPE  C31315608   2.594   3.806   5.578
  164POPE  H13X15609   2.604   3.917   5.557
  164POPE  H13Y15610   2.561   3.750   5.489
  164POPE  C31415611   2.731   3.780   5.614
  164POPE  H14X15612   2.720   3.671   5.623
  164POPE  H14Y15613   2.753   3.836   5.704
  164POPE  C31515614   2.821   3.833   5.509
  164POPE  H15X15615   2.815   3.921   5.444
  164POPE  H15Y15616   2.742   3.802   5.441
  164POPE  C31615617   2.956   3.760   5.515
  164POPE  H16X15618   2.944   3.651   5.535
  164POPE  H16Y15619   3.017   3.807   5.593
  164POPE  H16Z15620   3.015   3.768   5.422
  165POPE     N15621   5.340   3.537   7.444
  165POPE   HN115622   5.236   3.532   7.453
  165POPE   HN215623   5.369   3.636   7.469
  165POPE   HN315624   5.367   3.521   7.345
  165POPE   C1215625   5.412   3.435   7.529
  165POPE  H12A15626   5.364   3.336   7.519
  165POPE  H12B15627   5.405   3.469   7.634
  165POPE   C1115628   5.561   3.421   7.493
  165POPE  H11A15629   5.603   3.353   7.572
  165POPE  H11B15630   5.610   3.520   7.502
  165POPE     P15631   5.740   3.338   7.331
  165POPE   O1315632   5.786   3.249   7.440
  165POPE   O1415633   5.808   3.465   7.307
  165POPE   O1115634   5.736   3.254   7.199
  165POPE   O1215635   5.584   3.369   7.362
  165POPE    C115636   5.624   3.237   7.115
  165POPE    HA15637   5.537   3.299   7.147
  165POPE    HB15638   5.596   3.131   7.118
  165POPE    C215639   5.654   3.276   6.968
  165POPE    HS15640   5.568   3.257   6.900
  165POPE   O2115641   5.772   3.208   6.917
  165POPE   C2115642   5.752   3.084   6.890
  165POPE   O2215643   5.642   3.032   6.888
  165POPE   C2215644   5.890   3.015   6.870
  165POPE   H2R15645   5.912   2.968   6.967
  165POPE   H2S15646   5.966   3.094   6.855
  165POPE    C315647   5.671   3.428   6.969
  165POPE    HX15648   5.737   3.459   7.055
  165POPE    HY15649   5.577   3.480   6.985
  165POPE   O3115650   5.716   3.473   6.842
  165POPE   C3115651   5.848   3.472   6.852
  165POPE   O3215652   5.913   3.405   6.927
  165POPE   C3215653   5.895   3.571   6.751
  165POPE   H2X15654   5.813   3.648   6.753
  165POPE   H2Y15655   5.874   3.498   6.670
  165POPE   C2315656   5.910   2.908   6.760
  165POPE   H3R15657   5.860   2.814   6.786
  165POPE   H3S15658   6.015   2.873   6.762
  165POPE   C2415659   5.879   2.955   6.618
  165POPE   H4R15660   5.769   2.965   6.599
  165POPE   H4S15661   5.920   2.884   6.543
  165POPE   C2515662   5.933   3.090   6.582
  165POPE   H5R15663   6.044   3.090   6.574
  165POPE   H5S15664   5.907   3.169   6.657
  165POPE   C2615665   5.867   3.133   6.453
  165POPE   H6R15666   5.757   3.126   6.446
  165POPE   H6S15667   5.918   3.090   6.363
  165POPE   C2715668   5.892   3.276   6.448
  165POPE   H7R15669   5.998   3.261   6.466
  165POPE   H7S15670   5.855   3.343   6.529
  165POPE   C2815671   5.882   3.325   6.310
  165POPE   H8R15672   5.966   3.292   6.246
  165POPE   H8S15673   5.905   3.422   6.336
  165POPE   C2915674   5.746   3.337   6.254
  165POPE   H9115675   5.680   3.397   6.316
  165POPE  C21015676   5.710   3.310   6.129
  165POPE  H10115677   5.603   3.309   6.109
  165POPE  C21115678   5.797   3.261   6.018
  165POPE  H11R15679   5.907   3.269   6.038
  165POPE  H11S15680   5.776   3.318   5.926
  165POPE  C21215681   5.762   3.114   5.996
  165POPE  H12R15682   5.661   3.108   5.949
  165POPE  H12S15683   5.764   3.054   6.089
  165POPE  C21315684   5.860   3.058   5.900
  165POPE  H13R15685   5.848   2.948   5.882
  165POPE  H13S15686   5.965   3.069   5.940
  165POPE  C21415687   5.847   3.137   5.770
  165POPE  H14R15688   5.944   3.097   5.741
  165POPE  H14S15689   5.871   3.241   5.758
  165POPE  C21515690   5.714   3.135   5.690
  165POPE  H15R15691   5.642   3.207   5.728
  165POPE  H15S15692   5.659   3.042   5.712
  165POPE  C21615693   5.725   3.160   5.537
  165POPE  H16R15694   5.646   3.160   5.460
  165POPE  H16S15695   5.746   3.060   5.518
  165POPE  C21715696   5.804   3.280   5.485
  165POPE  H17R15697   5.899   3.287   5.523
  165POPE  H17S15698   5.762   3.366   5.536
  165POPE  C21815699   5.838   3.294   5.336
  165POPE  H18R15700   5.747   3.277   5.275
  165POPE  H18S15701   5.915   3.231   5.293
  165POPE  H18T15702   5.872   3.400   5.325
  165POPE   C3315703   6.056   3.619   6.715
  165POPE   H3X15704   6.046   3.517   6.736
  165POPE   H3Y15705   6.094   3.666   6.795
  165POPE   C3415706   6.157   3.718   6.604
  165POPE   H4X15707   6.135   3.824   6.581
  165POPE   H4Y15708   6.126   3.752   6.513
  165POPE   C3515709   6.303   3.734   6.571
  165POPE   H5X15710   6.331   3.634   6.551
  165POPE   H5Y15711   6.349   3.760   6.666
  165POPE   C3615712   6.337   3.833   6.450
  165POPE   H6X15713   6.442   3.801   6.434
  165POPE   H6Y15714   6.318   3.933   6.495
  165POPE   C3715715   6.288   3.845   6.300
  165POPE   H7X15716   6.337   3.926   6.241
  165POPE   H7Y15717   6.179   3.870   6.297
  165POPE   C3815718   6.343   3.738   6.200
  165POPE   H8X15719   6.346   3.650   6.207
  165POPE   H8Y15720   6.412   3.669   6.245
  165POPE   C3915721   6.227   3.690   6.126
  165POPE   H9X15722   6.241   3.750   6.041
  165POPE   H9Y15723   6.144   3.762   6.146
  165POPE  C31015724   6.177   3.508   6.086
  165POPE  H10X15725   6.125   3.445   6.122
  165POPE  H10Y15726   6.269   3.451   6.135
  165POPE  C31115727   6.177   3.438   5.714
  165POPE  H11X15728   6.180   3.585   5.790
  165POPE  H11Y15729   6.039   3.597   5.779
  165POPE  C31215730   6.072   3.379   5.764
  165POPE  H12X15731   6.012   3.321   5.832
  165POPE  H12Y15732   6.132   3.283   5.774
  165POPE  C31315733   6.052   3.397   5.622
  165POPE  H13X15734   5.944   3.431   5.643
  165POPE  H13Y15735   6.064   3.286   5.604
  165POPE  C31415736   6.160   3.473   5.540
  165POPE  H14X15737   6.199   3.385   5.492
  165POPE  H14Y15738   6.239   3.527   5.593
  165POPE  C31515739   6.108   3.585   5.463
  165POPE  H15X15740   6.049   3.528   5.391
  165POPE  H15Y15741   6.196   3.636   5.423
  165POPE  C31615742   6.038   3.687   5.548
  165POPE  H16X15743   5.949   3.636   5.590
  165POPE  H16Y15744   6.016   3.777   5.490
  165POPE  H16Z15745   6.100   3.720   5.633
  166POPE     N15746   5.984   5.382   7.505
  166POPE   HN115747   6.001   5.279   7.505
  166POPE   HN215748   5.987   5.408   7.606
  166POPE   HN315749   5.885   5.396   7.470
  166POPE   C1215750   6.079   5.454   7.414
  166POPE  H12A15751   6.053   5.560   7.410
  166POPE  H12B15752   6.061   5.422   7.311
  166POPE   C1115753   6.222   5.420   7.455
  166POPE  H11A15754   6.233   5.311   7.477
  166POPE  H11B15755   6.247   5.478   7.547
  166POPE     P15756   6.462   5.416   7.353
  166POPE   O1315757   6.479   5.299   7.263
  166POPE   O1415758   6.504   5.398   7.493
  166POPE   O1115759   6.536   5.545   7.297
  166POPE   O1215760   6.308   5.459   7.351
  166POPE    C115761   6.470   5.669   7.274
  166POPE    HA15762   6.541   5.750   7.302
  166POPE    HB15763   6.381   5.684   7.339
  166POPE    C215764   6.437   5.686   7.123
  166POPE    HS15765   6.414   5.795   7.106
  166POPE   O2115766   6.334   5.597   7.079
  166POPE   C2115767   6.215   5.646   7.079
  166POPE   O2215768   6.185   5.761   7.107
  166POPE   C2215769   6.116   5.532   7.062
  166POPE   H2R15770   6.059   5.531   7.156
  166POPE   H2S15771   6.171   5.438   7.043
  166POPE    C315772   6.559   5.651   7.036
  166POPE    HX15773   6.593   5.549   7.063
  166POPE    HY15774   6.639   5.717   7.066
  166POPE   O3115775   6.534   5.651   6.895
  166POPE   C3115776   6.500   5.764   6.841
  166POPE   O3215777   6.499   5.873   6.895
  166POPE   C3215778   6.457   5.739   6.698
  166POPE   H2X15779   6.379   5.660   6.704
  166POPE   H2Y15780   6.540   5.698   6.637
  166POPE   C2315781   6.012   5.557   6.954
  166POPE   H3R15782   5.991   5.662   6.964
  166POPE   H3S15783   5.916   5.507   6.976
  166POPE   C2415784   6.061   5.531   6.812
  166POPE   H4R15785   6.158   5.581   6.794
  166POPE   H4S15786   5.990   5.577   6.741
  166POPE   C2515787   6.067   5.382   6.781
  166POPE   H5R15788   5.962   5.347   6.775
  166POPE   H5S15789   6.116   5.330   6.866
  166POPE   C2615790   6.144   5.348   6.651
  166POPE   H6R15791   6.115   5.245   6.621
  166POPE   H6S15792   6.252   5.348   6.676
  166POPE   C2715793   6.126   5.450   6.537
  166POPE   H7R15794   6.168   5.548   6.570
  166POPE   H7S15795   6.020   5.466   6.516
  166POPE   C2815796   6.185   5.416   6.398
  166POPE   H8R15797   6.295   5.434   6.398
  166POPE   H8S15798   6.143   5.495   6.331
  166POPE   C2915799   6.145   5.281   6.342
  166POPE   H9115800   6.036   5.266   6.337
  166POPE  C21015801   6.225   5.182   6.299
  166POPE  H10115802   6.179   5.091   6.256
  166POPE  C21115803   6.376   5.179   6.294
  166POPE  H11R15804   6.410   5.101   6.364
  166POPE  H11S15805   6.422   5.272   6.333
  166POPE  C21215806   6.435   5.146   6.155
  166POPE  H12R15807   6.413   5.043   6.121
  166POPE  H12S15808   6.545   5.155   6.163
  166POPE  C21315809   6.383   5.227   6.035
  166POPE  H13R15810   6.273   5.218   6.025
  166POPE  H13S15811   6.429   5.179   5.946
  166POPE  C21415812   6.427   5.373   6.044
  166POPE  H14R15813   6.530   5.373   6.086
  166POPE  H14S15814   6.361   5.428   6.114
  166POPE  C21515815   6.437   5.446   5.909
  166POPE  H15R15816   6.507   5.388   5.845
  166POPE  H15S15817   6.486   5.543   5.933
  166POPE  C21615818   6.305   5.476   5.835
  166POPE  H16R15819   6.244   5.544   5.899
  166POPE  H16S15820   6.244   5.385   5.819
  166POPE  C21715821   6.326   5.543   5.697
  166POPE  H17R15822   6.386   5.636   5.708
  166POPE  H17S15823   6.229   5.574   5.654
  166POPE  C21815824   6.383   5.453   5.589
  166POPE  H18R15825   6.489   5.429   5.611
  166POPE  H18S15826   6.376   5.507   5.492
  166POPE  H18T15827   6.324   5.360   5.582
  166POPE   C3315828   6.387   5.863   6.640
  166POPE   H3X15829   6.448   5.949   6.614
  166POPE   H3Y15830   6.334   5.911   6.721
  166POPE   C3415831   6.295   5.832   6.522
  166POPE   H4X15832   6.268   5.930   6.475
  166POPE   H4Y15833   6.203   5.787   6.563
  166POPE   C3515834   6.356   5.731   6.421
  166POPE   H5X15835   6.289   5.710   6.336
  166POPE   H5Y15836   6.401   5.639   6.465
  166POPE   C3615837   6.474   5.788   6.353
  166POPE   H6X15838   6.568   5.778   6.408
  166POPE   H6Y15839   6.438   5.891   6.372
  166POPE   C3715840   6.500   5.745   6.208
  166POPE   H7X15841   6.535   5.823   6.138
  166POPE   H7Y15842   6.408   5.738   6.149
  166POPE   C3815843   6.600   5.625   6.206
  166POPE   H8X15844   6.611   5.600   6.099
  166POPE   H8Y15845   6.544   5.550   6.266
  166POPE   C3915846   6.744   5.626   6.267
  166POPE   H9X15847   6.746   5.668   6.370
  166POPE   H9Y15848   6.814   5.680   6.201
  166POPE  C31015849   6.817   5.495   6.292
  166POPE  H10X15850   6.751   5.438   6.362
  166POPE  H10Y15851   6.913   5.520   6.344
  166POPE  C31115852   6.843   5.415   6.166
  166POPE  H11X15853   6.749   5.417   6.106
  166POPE  H11Y15854   6.867   5.311   6.194
  166POPE  C31215855   6.956   5.464   6.077
  166POPE  H12X15856   7.051   5.417   6.113
  166POPE  H12Y15857   6.973   5.574   6.080
  166POPE  C31315858   6.925   5.424   5.933
  166POPE  H13X15859   6.880   5.323   5.926
  166POPE  H13Y15860   7.025   5.415   5.892
  166POPE  C31415861   6.844   5.528   5.851
  166POPE  H14X15862   6.909   5.618   5.843
  166POPE  H14Y15863   6.750   5.556   5.903
  166POPE  C31515864   6.807   5.482   5.709
  166POPE  H15X15865   6.748   5.389   5.698
  166POPE  H15Y15866   6.898   5.439   5.676
  166POPE  C31615867   6.773   5.590   5.605
  166POPE  H16X15868   6.672   5.631   5.623
  166POPE  H16Y15869   6.776   5.547   5.503
  166POPE  H16Z15870   6.848   5.672   5.609
  167POPE     N15871   5.831   6.342   7.581
  167POPE   HN115872   5.828   6.446   7.592
  167POPE   HN215873   5.773   6.297   7.655
  167POPE   HN315874   5.929   6.305   7.584
  167POPE   C1215875   5.783   6.293   7.449
  167POPE  H12A15876   5.820   6.356   7.365
  167POPE  H12B15877   5.676   6.301   7.453
  167POPE   C1115878   5.821   6.146   7.442
  167POPE  H11A15879   5.774   6.097   7.354
  167POPE  H11B15880   5.776   6.095   7.530
  167POPE     P15881   6.066   6.162   7.336
  167POPE   O1315882   6.171   6.057   7.330
  167POPE   O1415883   6.112   6.298   7.367
  167POPE   O1115884   5.967   6.163   7.213
  167POPE   O1215885   5.962   6.127   7.452
  167POPE    C115886   5.914   6.042   7.160
  167POPE    HA15887   5.814   6.061   7.116
  167POPE    HB15888   5.902   5.960   7.237
  167POPE    C215889   6.001   5.988   7.047
  167POPE    HS15890   6.089   5.947   7.098
  167POPE   O2115891   6.043   6.092   6.957
  167POPE   C2115892   6.124   6.050   6.862
  167POPE   O2215893   6.181   5.943   6.859
  167POPE   C2215894   6.122   6.152   6.749
  167POPE   H2R15895   6.212   6.139   6.685
  167POPE   H2S15896   6.128   6.252   6.795
  167POPE    C315897   5.919   5.884   6.973
  167POPE    HX15898   5.888   5.804   7.045
  167POPE    HY15899   5.992   5.837   6.902
  167POPE   O3115900   5.799   5.949   6.917
  167POPE   C3115901   5.773   5.892   6.801
  167POPE   O3215902   5.844   5.805   6.756
  167POPE   C3215903   5.637   5.937   6.734
  167POPE   H2X15904   5.637   6.046   6.736
  167POPE   H2Y15905   5.551   5.906   6.797
  167POPE   C2315906   5.997   6.132   6.661
  167POPE   H3R15907   5.976   6.024   6.643
  167POPE   H3S15908   6.013   6.180   6.561
  167POPE   C2415909   5.873   6.199   6.718
  167POPE   H4R15910   5.846   6.164   6.820
  167POPE   H4S15911   5.786   6.180   6.652
  167POPE   C2515912   5.899   6.346   6.727
  167POPE   H5R15913   5.943   6.390   6.635
  167POPE   H5S15914   5.967   6.371   6.812
  167POPE   C2615915   5.772   6.417   6.761
  167POPE   H6R15916   5.820   6.516   6.758
  167POPE   H6S15917   5.744   6.389   6.865
  167POPE   C2715918   5.651   6.409   6.666
  167POPE   H7R15919   5.578   6.488   6.691
  167POPE   H7S15920   5.601   6.312   6.685
  167POPE   C2815921   5.682   6.436   6.518
  167POPE   H8R15922   5.763   6.369   6.485
  167POPE   H8S15923   5.720   6.538   6.505
  167POPE   C2915924   5.561   6.430   6.430
  167POPE   H9115925   5.479   6.498   6.457
  167POPE  C21015926   5.540   6.337   6.335
  167POPE  H10115927   5.453   6.346   6.269
  167POPE  C21115928   5.632   6.224   6.301
  167POPE  H11R15929   5.577   6.146   6.245
  167POPE  H11S15930   5.668   6.176   6.395
  167POPE  C21215931   5.752   6.267   6.218
  167POPE  H12R15932   5.813   6.345   6.270
  167POPE  H12S15933   5.719   6.310   6.121
  167POPE  C21315934   5.841   6.146   6.193
  167POPE  H13R15935   5.786   6.076   6.126
  167POPE  H13S15936   5.858   6.094   6.290
  167POPE  C21415937   5.976   6.190   6.136
  167POPE  H14R15938   6.038   6.214   6.226
  167POPE  H14S15939   5.963   6.285   6.080
  167POPE  C21515940   6.048   6.092   6.042
  167POPE  H15R15941   6.071   5.997   6.096
  167POPE  H15S15942   6.144   6.140   6.014
  167POPE  C21615943   5.973   6.059   5.912
  167POPE  H16R15944   5.884   5.996   5.935
  167POPE  H16S15945   6.039   5.997   5.847
  167POPE  C21715946   5.929   6.182   5.830
  167POPE  H17R15947   6.020   6.228   5.785
  167POPE  H17S15948   5.880   6.258   5.894
  167POPE  C21815949   5.832   6.149   5.717
  167POPE  H18R15950   5.886   6.096   5.635
  167POPE  H18S15951   5.788   6.244   5.678
  167POPE  H18T15952   5.750   6.084   5.753
  167POPE   C3315953   5.607   5.876   6.591
  167POPE   H3X15954   5.508   5.903   6.551
  167POPE   H3Y15955   5.588   5.768   6.587
  167POPE   C3415956   5.727   5.903   6.499
  167POPE   H4X15957   5.823   5.870   6.546
  167POPE   H4Y15958   5.736   6.009   6.484
  167POPE   C3515959   5.727   5.829   6.367
  167POPE   H5X15960   5.725   5.735   6.413
  167POPE   H5Y15961   5.823   5.824   6.315
  167POPE   C3615962   5.603   5.825   6.281
  167POPE   H6X15963   5.585   5.926   6.240
  167POPE   H6Y15964   5.517   5.786   6.340
  167POPE   C3715965   5.619   5.737   6.158
  167POPE   H7X15966   5.528   5.700   6.110
  167POPE   H7Y15967   5.653   5.642   6.184
  167POPE   C3815968   5.731   5.777   6.068
  167POPE   H8X15969   5.827   5.741   6.113
  167POPE   H8Y15970   5.727   5.885   6.049
  167POPE   C3915971   5.724   5.703   5.938
  167POPE   H9X15972   5.710   5.602   5.963
  167POPE   H9Y15973   5.818   5.709   5.892
  167POPE  C31015974   5.619   5.755   5.846
  167POPE  H10X15975   5.645   5.861   5.826
  167POPE  H10Y15976   5.537   5.723   5.914
  167POPE  C31115977   5.577   5.696   5.713
  167POPE  H11X15978   5.586   5.598   5.740
  167POPE  H11Y15979   5.645   5.733   5.641
  167POPE  C31215980   5.470   5.701   5.607
  167POPE  H12X15981   5.381   5.676   5.667
  167POPE  H12Y15982   5.460   5.632   5.528
  167POPE  C31315983   5.483   5.791   5.481
  167POPE  H13X15984   5.566   5.791   5.410
  167POPE  H13Y15985   5.557   5.867   5.520
  167POPE  C31415986   5.327   5.832   5.446
  167POPE  H14X15987   5.301   5.930   5.407
  167POPE  H14Y15988   5.240   5.839   5.518
  167POPE  C31515989   5.268   5.793   5.340
  167POPE  H15X15990   5.218   5.708   5.376
  167POPE  H15Y15991   5.359   5.783   5.274
  167POPE  C31615992   5.138   5.860   5.304
  167POPE  H16X15993   5.069   5.867   5.392
  167POPE  H16Y15994   5.087   5.790   5.236
  167POPE  H16Z15995   5.160   5.955   5.254
  168POPE     N15996   7.158   4.082   7.473
  168POPE   HN115997   7.102   4.166   7.452
  168POPE   HN215998   7.239   4.108   7.533
  168POPE   HN315999   7.196   4.051   7.381
  168POPE   C1216000   7.079   3.966   7.518
  168POPE  H12A16001   7.029   3.994   7.611
  168POPE  H12B16002   7.148   3.881   7.536
  168POPE   C1116003   6.980   3.934   7.407
  168POPE  H11A16004   7.037   3.904   7.316
  168POPE  H11B16005   6.916   4.024   7.386
  168POPE     P16006   6.811   3.741   7.354
  168POPE   O1316007   6.687   3.812   7.318
  168POPE   O1416008   6.803   3.607   7.412
  168POPE   O1116009   6.904   3.733   7.229
  168POPE   O1216010   6.896   3.831   7.452
  168POPE    C116011   7.011   3.637   7.224
  168POPE    HA16012   6.975   3.532   7.228
  168POPE    HB16013   7.080   3.656   7.309
  168POPE    C216014   7.089   3.654   7.094
  168POPE    HS16015   7.196   3.660   7.133
  168POPE   O2116016   7.029   3.763   7.021
  168POPE   C2116017   7.116   3.848   6.999
  168POPE   O2216018   7.229   3.841   7.046
  168POPE   C2216019   7.051   3.964   6.923
  168POPE   H2R16020   7.106   4.039   6.870
  168POPE   H2S16021   7.037   4.036   6.991
  168POPE    C316022   7.091   3.541   6.991
  168POPE    HX16023   6.985   3.519   6.972
  168POPE    HY16024   7.144   3.453   7.032
  168POPE   O3116025   7.141   3.584   6.863
  168POPE   C3116026   7.271   3.601   6.855
  168POPE   O3216027   7.350   3.573   6.944
  168POPE   C3216028   7.295   3.648   6.711
  168POPE   H2X16029   7.203   3.694   6.670
  168POPE   H2Y16030   7.324   3.561   6.649
  168POPE   C2316031   6.912   3.964   6.871
  168POPE   H3R16032   6.883   4.072   6.856
  168POPE   H3S16033   6.850   3.914   6.945
  168POPE   C2416034   6.927   3.903   6.738
  168POPE   H4R16035   6.999   3.817   6.744
  168POPE   H4S16036   6.970   3.991   6.683
  168POPE   C2516037   6.799   3.867   6.671
  168POPE   H5R16038   6.735   3.958   6.674
  168POPE   H5S16039   6.760   3.786   6.734
  168POPE   C2616040   6.809   3.823   6.526
  168POPE   H6R16041   6.830   3.916   6.475
  168POPE   H6S16042   6.709   3.803   6.484
  168POPE   C2716043   6.906   3.703   6.507
  168POPE   H7R16044   7.013   3.711   6.521
  168POPE   H7S16045   6.904   3.673   6.399
  168POPE   C2816046   6.868   3.604   6.619
  168POPE   H8R16047   6.757   3.615   6.626
  168POPE   H8S16048   6.908   3.623   6.718
  168POPE   C2916049   6.892   3.465   6.593
  168POPE   H9116050   6.794   3.424   6.578
  168POPE  C21016051   6.999   3.394   6.564
  168POPE  H10116052   6.986   3.306   6.497
  168POPE  C21116053   7.129   3.455   6.552
  168POPE  H11R16054   7.179   3.410   6.639
  168POPE  H11S16055   7.121   3.562   6.556
  168POPE  C21216056   7.215   3.430   6.433
  168POPE  H12R16057   7.204   3.321   6.438
  168POPE  H12S16058   7.318   3.467   6.452
  168POPE  C21316059   7.159   3.482   6.303
  168POPE  H13R16060   7.143   3.586   6.298
  168POPE  H13S16061   7.065   3.427   6.287
  168POPE  C21416062   7.243   3.462   6.183
  168POPE  H14R16063   7.349   3.481   6.226
  168POPE  H14S16064   7.263   3.519   6.091
  168POPE  C21516065   7.152   3.341   6.127
  168POPE  H15R16066   7.137   3.237   6.151
  168POPE  H15S16067   7.252   3.350   6.147
  168POPE  C21616068   7.063   3.332   5.997
  168POPE  H16R16069   7.092   3.432   6.001
  168POPE  H16S16070   6.980   3.282   6.058
  168POPE  C21716071   7.056   3.261   5.846
  168POPE  H17R16072   7.057   3.177   5.920
  168POPE  H17S16073   7.143   3.229   5.788
  168POPE  C21816074   7.112   3.265   5.688
  168POPE  H18R16075   7.005   3.279   5.681
  168POPE  H18S16076   7.147   3.167   5.627
  168POPE  H18T16077   7.184   3.347   5.662
  168POPE   C3316078   7.408   3.743   6.685
  168POPE   H3X16079   7.480   3.707   6.749
  168POPE   H3Y16080   7.410   3.843   6.732
  168POPE   C3416081   7.451   3.743   6.539
  168POPE   H4X16082   7.497   3.650   6.501
  168POPE   H4Y16083   7.521   3.827   6.537
  168POPE   C3516084   7.359   3.782   6.433
  168POPE   H5X16085   7.330   3.873   6.480
  168POPE   H5Y16086   7.277   3.707   6.433
  168POPE   C3616087   7.427   3.809   6.300
  168POPE   H6X16088   7.460   3.711   6.261
  168POPE   H6Y16089   7.513   3.878   6.312
  168POPE   C3716090   7.340   3.874   6.196
  168POPE   H7X16091   7.391   3.900   6.102
  168POPE   H7Y16092   7.311   3.972   6.239
  168POPE   C3816093   7.227   3.776   6.162
  168POPE   H8X16094   7.166   3.760   6.253
  168POPE   H8Y16095   7.268   3.687   6.123
  168POPE   C3916096   7.147   3.820   6.045
  168POPE   H9X16097   7.211   3.852   5.963
  168POPE   H9Y16098   7.149   3.917   6.077
  168POPE  C31016099   7.001   3.777   6.020
  168POPE  H10X16100   6.922   3.849   5.989
  168POPE  H10Y16101   6.960   3.728   6.111
  168POPE  C31116102   7.015   3.700   5.893
  168POPE  H11X16103   7.090   3.623   5.918
  168POPE  H11Y16104   7.061   3.766   5.816
  168POPE  C31216105   6.889   3.643   5.835
  168POPE  H12X16106   6.809   3.720   5.826
  168POPE  H12Y16107   6.851   3.565   5.904
  168POPE  C31316108   6.926   3.583   5.699
  168POPE  H13X16109   7.015   3.518   5.710
  168POPE  H13Y16110   6.962   3.666   5.633
  168POPE  C31416111   6.810   3.505   5.637
  168POPE  H14X16112   6.711   3.548   5.617
  168POPE  H14Y16113   6.772   3.443   5.716
  168POPE  C31516114   6.843   3.441   5.505
  168POPE  H15X16115   6.749   3.401   5.464
  168POPE  H15Y16116   6.912   3.365   5.545
  168POPE  C31616117   6.916   3.507   5.389
  168POPE  H16X16118   7.016   3.538   5.424
  168POPE  H16Y16119   6.865   3.594   5.346
  168POPE  H16Z16120   6.922   3.437   5.303
  169POPE     N16121   2.140   6.494   7.648
  169POPE   HN116122   2.056   6.433   7.649
  169POPE   HN216123   2.207   6.453   7.579
  169POPE   HN316124   2.183   6.500   7.742
  169POPE   C1216125   2.092   6.629   7.603
  169POPE  H12A16126   2.175   6.678   7.548
  169POPE  H12B16127   2.070   6.687   7.695
  169POPE   C1116128   1.967   6.612   7.515
  169POPE  H11A16129   1.923   6.713   7.496
  169POPE  H11B16130   1.891   6.554   7.573
  169POPE     P16131   1.892   6.559   7.272
  169POPE   O1316132   1.876   6.702   7.245
  169POPE   O1416133   1.774   6.482   7.313
  169POPE   O1116134   1.966   6.489   7.151
  169POPE   O1216135   1.998   6.543   7.394
  169POPE    C116136   2.107   6.493   7.136
  169POPE    HA16137   2.132   6.427   7.050
  169POPE    HB16138   2.158   6.452   7.225
  169POPE    C216139   2.157   6.635   7.102
  169POPE    HS16140   2.149   6.698   7.195
  169POPE   O2116141   2.077   6.687   6.996
  169POPE   C2116142   2.059   6.817   6.995
  169POPE   O2216143   2.126   6.901   7.051
  169POPE   C2216144   1.943   6.848   6.902
  169POPE   H2R16145   1.885   6.928   6.952
  169POPE   H2S16146   1.876   6.760   6.895
  169POPE    C316147   2.304   6.630   7.060
  169POPE    HX16148   2.362   6.586   7.145
  169POPE    HY16149   2.332   6.736   7.040
  169POPE   O3116150   2.328   6.546   6.948
  169POPE   C3116151   2.434   6.577   6.875
  169POPE   O3216152   2.495   6.679   6.861
  169POPE   C3216153   2.479   6.470   6.802
  169POPE   H2X16154   2.469   6.388   6.872
  169POPE   H2Y16155   2.588   6.474   6.782
  169POPE   C2316156   2.000   6.894   6.767
  169POPE   H3R16157   2.091   6.956   6.785
  169POPE   H3S16158   1.925   6.959   6.717
  169POPE   C2416159   2.037   6.780   6.672
  169POPE   H4R16160   2.114   6.714   6.719
  169POPE   H4S16161   2.082   6.822   6.580
  169POPE   C2516162   1.915   6.697   6.632
  169POPE   H5R16163   1.837   6.765   6.590
  169POPE   H5S16164   1.870   6.646   6.720
  169POPE   C2616165   1.945   6.590   6.528
  169POPE   H6R16166   1.853   6.530   6.522
  169POPE   H6S16167   2.029   6.524   6.560
  169POPE   C2716168   1.964   6.643   6.386
  169POPE   H7R16169   2.043   6.721   6.386
  169POPE   H7S16170   1.869   6.687   6.349
  169POPE   C2816171   2.026   6.540   6.291
  169POPE   H8R16172   2.113   6.496   6.341
  169POPE   H8S16173   2.043   6.586   6.192
  169POPE   C2916174   1.955   6.429   6.241
  169POPE   H9116175   1.847   6.452   6.226
  169POPE  C21016176   2.008   6.303   6.237
  169POPE  H10116177   1.952   6.211   6.236
  169POPE  C21116178   2.117   6.219   6.267
  169POPE  H11R16179   2.090   6.132   6.334
  169POPE  H11S16180   2.191   6.288   6.307
  169POPE  C21216181   2.134   6.151   6.138
  169POPE  H12R16182   2.089   6.054   6.106
  169POPE  H12S16183   2.228   6.116   6.176
  169POPE  C21316184   2.157   6.252   6.030
  169POPE  H13R16185   2.261   6.223   6.029
  169POPE  H13S16186   2.153   6.358   6.063
  169POPE  C21416187   2.064   6.233   5.913
  169POPE  H14R16188   1.976   6.289   5.953
  169POPE  H14S16189   2.058   6.126   5.884
  169POPE  C21516190   2.039   6.326   5.793
  169POPE  H15R16191   2.097   6.260   5.731
  169POPE  H15S16192   2.082   6.417   5.832
  169POPE  C21616193   1.984   6.317   5.649
  169POPE  H16R16194   1.908   6.397   5.651
  169POPE  H16S16195   1.955   6.209   5.635
  169POPE  C21716196   2.062   6.332   5.517
  169POPE  H17R16197   2.112   6.428   5.499
  169POPE  H17S16198   1.985   6.319   5.436
  169POPE  C21816199   2.166   6.226   5.497
  169POPE  H18R16200   2.209   6.245   5.397
  169POPE  H18S16201   2.123   6.126   5.521
  169POPE  H18T16202   2.264   6.223   5.539
  169POPE   C3316203   2.396   6.491   6.679
  169POPE   H3X16204   2.288   6.470   6.688
  169POPE   H3Y16205   2.458   6.445   6.600
  169POPE   C3416206   2.416   6.599   6.584
  169POPE   H4X16207   2.522   6.611   6.613
  169POPE   H4Y16208   2.357   6.679   6.628
  169POPE   C3516209   2.384   6.574   6.434
  169POPE   H5X16210   2.294   6.510   6.430
  169POPE   H5Y16211   2.465   6.521   6.378
  169POPE   C3616212   2.349   6.709   6.367
  169POPE   H6X16213   2.425   6.790   6.361
  169POPE   H6Y16214   2.272   6.748   6.435
  169POPE   C3716215   2.309   6.706   6.222
  169POPE   H7X16216   2.315   6.808   6.177
  169POPE   H7Y16217   2.206   6.673   6.220
  169POPE   C3816218   2.393   6.610   6.142
  169POPE   H8X16219   2.357   6.505   6.153
  169POPE   H8Y16220   2.501   6.616   6.170
  169POPE   C3916221   2.383   6.649   5.999
  169POPE   H9X16222   2.432   6.747   5.980
  169POPE   H9Y16223   2.279   6.649   5.959
  169POPE  C31016224   2.455   6.544   5.926
  169POPE  H10X16225   2.379   6.469   5.904
  169POPE  H10Y16226   2.532   6.483   5.979
  169POPE  C31116227   2.504   6.606   5.803
  169POPE  H11X16228   2.592   6.669   5.826
  169POPE  H11Y16229   2.437   6.663   5.736
  169POPE  C31216230   2.548   6.490   5.729
  169POPE  H12X16231   2.519   6.387   5.709
  169POPE  H12Y16232   2.615   6.450   5.802
  169POPE  C31316233   2.536   6.532   5.584
  169POPE  H13X16234   2.612   6.483   5.538
  169POPE  H13Y16235   2.623   6.570   5.623
  169POPE  C31416236   2.486   6.456   5.455
  169POPE  H14X16237   2.410   6.535   5.446
  169POPE  H14Y16238   2.476   6.350   5.488
  169POPE  C31516239   2.555   6.449   5.314
  169POPE  H15X16240   2.619   6.356   5.312
  169POPE  H15Y16241   2.612   6.544   5.306
  169POPE  C31616242   2.502   6.436   5.179
  169POPE  H16X16243   2.448   6.340   5.180
  169POPE  H16Y16244   2.587   6.436   5.105
  169POPE  H16Z16245   2.446   6.529   5.171
  170POPE     N16246   1.481   1.543   7.469
  170POPE   HN116247   1.555   1.597   7.519
  170POPE   HN216248   1.404   1.607   7.440
  170POPE   HN316249   1.444   1.470   7.535
  170POPE   C1216250   1.543   1.473   7.348
  170POPE  H12A16251   1.605   1.543   7.291
  170POPE  H12B16252   1.469   1.461   7.268
  170POPE   C1116253   1.597   1.333   7.382
  170POPE  H11A16254   1.607   1.276   7.286
  170POPE  H11B16255   1.538   1.266   7.446
  170POPE     P16256   1.850   1.365   7.386
  170POPE   O1316257   1.953   1.314   7.476
  170POPE   O1416258   1.852   1.506   7.343
  170POPE   O1116259   1.837   1.272   7.257
  170POPE   O1216260   1.714   1.344   7.457
  170POPE    C116261   1.955   1.241   7.181
  170POPE    HA16262   1.928   1.172   7.097
  170POPE    HB16263   2.028   1.187   7.245
  170POPE    C216264   2.019   1.365   7.113
  170POPE    HS16265   2.043   1.439   7.194
  170POPE   O2116266   1.918   1.412   7.022
  170POPE   C2116267   1.923   1.532   6.968
  170POPE   O2216268   2.013   1.610   6.965
  170POPE   C2216269   1.797   1.578   6.908
  170POPE   H2R16270   1.788   1.684   6.942
  170POPE   H2S16271   1.715   1.516   6.946
  170POPE    C316272   2.155   1.328   7.043
  170POPE    HX16273   2.222   1.301   7.129
  170POPE    HY16274   2.200   1.418   6.996
  170POPE   O3116275   2.153   1.212   6.955
  170POPE   C3116276   2.129   1.236   6.825
  170POPE   O3216277   2.117   1.343   6.772
  170POPE   C3216278   2.112   1.109   6.746
  170POPE   H2X16279   2.072   1.032   6.815
  170POPE   H2Y16280   2.209   1.075   6.704
  170POPE   C2316281   1.808   1.580   6.755
  170POPE   H3R16282   1.830   1.477   6.719
  170POPE   H3S16283   1.891   1.645   6.717
  170POPE   C2416284   1.672   1.625   6.705
  170POPE   H4R16285   1.639   1.712   6.765
  170POPE   H4S16286   1.602   1.541   6.725
  170POPE   C2516287   1.671   1.664   6.558
  170POPE   H5R16288   1.758   1.731   6.539
  170POPE   H5S16289   1.577   1.721   6.538
  170POPE   C2616290   1.676   1.543   6.464
  170POPE   H6R16291   1.574   1.498   6.466
  170POPE   H6S16292   1.745   1.466   6.505
  170POPE   C2716293   1.714   1.580   6.320
  170POPE   H7R16294   1.665   1.676   6.293
  170POPE   H7S16295   1.677   1.503   6.248
  170POPE   C2816296   1.864   1.594   6.295
  170POPE   H8R16297   1.909   1.675   6.356
  170POPE   H8S16298   1.870   1.633   6.190
  170POPE   C2916299   1.937   1.464   6.323
  170POPE   H9116300   1.900   1.401   6.402
  170POPE  C21016301   2.019   1.402   6.241
  170POPE  H10116302   2.092   1.325   6.271
  170POPE  C21116303   2.044   1.460   6.112
  170POPE  H11R16304   2.151   1.435   6.103
  170POPE  H11S16305   2.036   1.569   6.121
  170POPE  C21216306   1.963   1.410   5.990
  170POPE  H12R16307   1.974   1.302   5.980
  170POPE  H12S16308   1.999   1.428   5.888
  170POPE  C21316309   1.838   1.489   5.965
  170POPE  H13R16310   1.861   1.599   5.962
  170POPE  H13S16311   1.773   1.466   6.050
  170POPE  C21416312   1.783   1.445   5.830
  170POPE  H14R16313   1.774   1.335   5.836
  170POPE  H14S16314   1.855   1.466   5.747
  170POPE  C21516315   1.650   1.515   5.805
  170POPE  H15R16316   1.668   1.623   5.784
  170POPE  H15S16317   1.592   1.510   5.900
  170POPE  C21616318   1.566   1.448   5.696
  170POPE  H16R16319   1.468   1.499   5.686
  170POPE  H16S16320   1.546   1.347   5.738
  170POPE  C21716321   1.633   1.431   5.558
  170POPE  H17R16322   1.566   1.371   5.493
  170POPE  H17S16323   1.725   1.371   5.573
  170POPE  C21816324   1.667   1.562   5.485
  170POPE  H18R16325   1.740   1.622   5.544
  170POPE  H18S16326   1.576   1.624   5.470
  170POPE  H18T16327   1.712   1.542   5.386
  170POPE   C3316328   2.009   1.138   6.635
  170POPE   H3X16329   2.050   1.202   6.554
  170POPE   H3Y16330   1.924   1.196   6.680
  170POPE   C3416331   1.950   1.007   6.582
  170POPE   H4X16332   1.889   0.966   6.665
  170POPE   H4Y16333   2.029   0.934   6.557
  170POPE   C3516334   1.861   1.025   6.460
  170POPE   H5X16335   1.802   0.932   6.447
  170POPE   H5Y16336   1.913   1.040   6.364
  170POPE   C3616337   1.770   1.141   6.491
  170POPE   H6X16338   1.814   1.238   6.465
  170POPE   H6Y16339   1.738   1.131   6.598
  170POPE   C3716340   1.644   1.140   6.415
  170POPE   H7X16341   1.573   1.191   6.483
  170POPE   H7Y16342   1.624   1.032   6.421
  170POPE   C3816343   1.643   1.196   6.271
  170POPE   H8X16344   1.690   1.294   6.262
  170POPE   H8Y16345   1.542   1.228   6.234
  170POPE   C3916346   1.684   1.091   6.167
  170POPE   H9X16347   1.651   0.988   6.192
  170POPE   H9Y16348   1.793   1.079   6.173
  170POPE  C31016349   1.637   1.135   6.028
  170POPE  H10X16350   1.687   1.233   6.013
  170POPE  H10Y16351   1.527   1.154   6.020
  170POPE  C31116352   1.680   1.039   5.918
  170POPE  H11X16353   1.729   0.951   5.967
  170POPE  H11Y16354   1.750   1.087   5.849
  170POPE  C31216355   1.555   0.995   5.841
  170POPE  H12X16356   1.486   1.079   5.824
  170POPE  H12Y16357   1.516   0.928   5.919
  170POPE  C31316358   1.563   0.923   5.707
  170POPE  H13X16359   1.593   0.983   5.622
  170POPE  H13Y16360   1.469   0.888   5.676
  170POPE  C31416361   1.643   0.803   5.710
  170POPE  H14X16362   1.621   0.753   5.806
  170POPE  H14Y16363   1.731   0.861   5.745
  170POPE  C31516364   1.660   0.716   5.574
  170POPE  H15X16365   1.744   0.654   5.528
  170POPE  H15Y16366   1.657   0.798   5.506
  170POPE  C31616367   1.571   0.601   5.571
  170POPE  H16X16368   1.495   0.641   5.505
  170POPE  H16Y16369   1.552   0.600   5.679
  170POPE  H16Z16370   1.622   0.504   5.540
  171POPE     N16371   0.862   2.491   7.334
  171POPE   HN116372   0.858   2.448   7.429
  171POPE   HN216373   0.767   2.528   7.310
  171POPE   HN316374   0.895   2.419   7.266
  171POPE   C1216375   0.949   2.613   7.338
  171POPE  H12A16376   1.021   2.609   7.254
  171POPE  H12B16377   1.003   2.611   7.433
  171POPE   C1116378   0.864   2.740   7.327
  171POPE  H11A16379   0.808   2.737   7.231
  171POPE  H11B16380   0.934   2.827   7.325
  171POPE     P16381   0.671   2.877   7.426
  171POPE   O1316382   0.722   2.975   7.328
  171POPE   O1416383   0.639   2.925   7.562
  171POPE   O1116384   0.552   2.798   7.363
  171POPE   O1216385   0.773   2.753   7.437
  171POPE    C116386   0.482   2.704   7.443
  171POPE    HA16387   0.453   2.749   7.542
  171POPE    HB16388   0.544   2.615   7.457
  171POPE    C216389   0.353   2.659   7.376
  171POPE    HS16390   0.295   2.584   7.437
  171POPE   O2116391   0.361   2.619   7.239
  171POPE   C2116392   0.426   2.512   7.232
  171POPE   O2216393   0.459   2.439   7.325
  171POPE   C2216394   0.481   2.497   7.095
  171POPE   H2R16395   0.422   2.547   7.021
  171POPE   H2S16396   0.484   2.388   7.074
  171POPE    C316397   0.269   2.775   7.380
  171POPE    HX16398   0.239   2.788   7.487
  171POPE    HY16399   0.181   2.731   7.326
  171POPE   O3116400   0.325   2.901   7.327
  171POPE   C3116401   0.310   2.920   7.198
  171POPE   O3216402   0.266   2.837   7.121
  171POPE   C3216403   0.356   3.063   7.154
  171POPE   H2X16404   0.450   3.084   7.205
  171POPE   H2Y16405   0.299   3.150   7.190
  171POPE   C2316406   0.605   2.582   7.069
  171POPE   H3R16407   0.681   2.542   7.138
  171POPE   H3S16408   0.573   2.687   7.092
  171POPE   C2416409   0.658   2.587   6.925
  171POPE   H4R16410   0.694   2.486   6.894
  171POPE   H4S16411   0.746   2.653   6.927
  171POPE   C2516412   0.560   2.648   6.821
  171POPE   H5R16413   0.528   2.747   6.857
  171POPE   H5S16414   0.459   2.605   6.816
  171POPE   C2616415   0.617   2.653   6.679
  171POPE   H6R16416   0.534   2.676   6.609
  171POPE   H6S16417   0.663   2.557   6.644
  171POPE   C2716418   0.717   2.767   6.675
  171POPE   H7R16419   0.800   2.747   6.747
  171POPE   H7S16420   0.661   2.855   6.714
  171POPE   C2816421   0.772   2.793   6.535
  171POPE   H8R16422   0.693   2.845   6.477
  171POPE   H8S16423   0.792   2.695   6.484
  171POPE   C2916424   0.899   2.874   6.541
  171POPE   H9116425   0.964   2.854   6.628
  171POPE  C21016426   0.940   2.963   6.449
  171POPE  H10116427   1.028   3.023   6.473
  171POPE  C21116428   0.870   3.001   6.322
  171POPE  H11R16429   0.905   3.102   6.289
  171POPE  H11S16430   0.761   3.009   6.337
  171POPE  C21216431   0.894   2.903   6.206
  171POPE  H12R16432   0.823   2.932   6.125
  171POPE  H12S16433   0.867   2.800   6.238
  171POPE  C21316434   1.039   2.901   6.154
  171POPE  H13R16435   1.099   2.833   6.217
  171POPE  H13S16436   1.081   3.004   6.164
  171POPE  C21416437   1.051   2.861   6.006
  171POPE  H14R16438   1.008   2.760   5.989
  171POPE  H14S16439   1.158   2.857   5.978
  171POPE  C21516440   0.983   2.966   5.917
  171POPE  H15R16441   1.016   3.067   5.949
  171POPE  H15S16442   0.873   2.958   5.930
  171POPE  C21616443   1.010   2.957   5.767
  171POPE  H16R16444   1.118   2.978   5.749
  171POPE  H16S16445   0.948   3.034   5.716
  171POPE  C21716446   0.975   2.821   5.709
  171POPE  H17R16447   1.046   2.752   5.751
  171POPE  H17S16448   0.984   2.826   5.600
  171POPE  C21816449   0.840   2.760   5.729
  171POPE  H18R16450   0.768   2.827   5.678
  171POPE  H18S16451   0.821   2.751   5.838
  171POPE  H18T16452   0.839   2.659   5.682
  171POPE   C3316453   0.357   3.086   7.000
  171POPE   H3X16454   0.325   3.190   6.979
  171POPE   H3Y16455   0.289   3.026   6.939
  171POPE   C3416456   0.469   3.035   6.922
  171POPE   H4X16457   0.477   2.931   6.958
  171POPE   H4Y16458   0.556   3.090   6.953
  171POPE   C3516459   0.446   3.060   6.774
  171POPE   H5X16460   0.545   3.056   6.726
  171POPE   H5Y16461   0.401   3.162   6.757
  171POPE   C3616462   0.354   2.960   6.706
  171POPE   H6X16463   0.259   3.008   6.728
  171POPE   H6Y16464   0.355   2.859   6.751
  171POPE   C3716465   0.374   2.949   6.555
  171POPE   H7X16466   0.286   2.898   6.510
  171POPE   H7Y16467   0.463   2.887   6.536
  171POPE   C3816468   0.396   3.085   6.488
  171POPE   H8X16469   0.505   3.104   6.493
  171POPE   H8Y16470   0.343   3.168   6.541
  171POPE   C3916471   0.343   3.077   6.345
  171POPE   H9X16472   0.232   3.078   6.347
  171POPE   H9Y16473   0.377   2.980   6.302
  171POPE  C31016474   0.392   3.185   6.252
  171POPE  H10X16475   0.410   3.282   6.303
  171POPE  H10Y16476   0.310   3.203   6.179
  171POPE  C31116477   0.519   3.131   6.186
  171POPE  H11X16478   0.503   3.035   6.132
  171POPE  H11Y16479   0.600   3.123   6.261
  171POPE  C31216480   0.563   3.221   6.080
  171POPE  H12X16481   0.660   3.201   6.029
  171POPE  H12Y16482   0.575   3.317   6.135
  171POPE  C31316483   0.449   3.222   5.978
  171POPE  H13X16484   0.513   3.283   5.922
  171POPE  H13Y16485   0.357   3.277   6.006
  171POPE  C31416486   0.440   3.119   5.866
  171POPE  H14X16487   0.380   3.042   5.918
  171POPE  H14Y16488   0.545   3.095   5.840
  171POPE  C31516489   0.367   3.156   5.736
  171POPE  H15X16490   0.402   3.224   5.657
  171POPE  H15Y16491   0.288   3.216   5.781
  171POPE  C31616492   0.341   3.040   5.644
  171POPE  H16X16493   0.442   3.007   5.612
  171POPE  H16Y16494   0.286   3.075   5.553
  171POPE  H16Z16495   0.286   2.961   5.697
  172POPE     N16496   0.586   3.512   7.672
  172POPE   HN116497   0.507   3.446   7.652
  172POPE   HN216498   0.662   3.462   7.722
  172POPE   HN316499   0.551   3.592   7.728
  172POPE   C1216500   0.635   3.568   7.542
  172POPE  H12A16501   0.746   3.562   7.545
  172POPE  H12B16502   0.602   3.673   7.538
  172POPE   C1116503   0.581   3.487   7.424
  172POPE  H11A16504   0.606   3.379   7.437
  172POPE  H11B16505   0.633   3.520   7.330
  172POPE     P16506   0.371   3.586   7.304
  172POPE   O1316507   0.418   3.724   7.322
  172POPE   O1416508   0.227   3.555   7.293
  172POPE   O1116509   0.442   3.527   7.176
  172POPE   O1216510   0.439   3.496   7.417
  172POPE    C116511   0.411   3.394   7.140
  172POPE    HA16512   0.308   3.387   7.097
  172POPE    HB16513   0.413   3.325   7.228
  172POPE    C216514   0.514   3.339   7.037
  172POPE    HS16515   0.515   3.234   7.063
  172POPE   O2116516   0.649   3.381   7.053
  172POPE   C2116517   0.734   3.319   6.972
  172POPE   O2216518   0.717   3.220   6.906
  172POPE   C2216519   0.863   3.397   6.971
  172POPE   H2R16520   0.941   3.334   6.926
  172POPE   H2S16521   0.887   3.415   7.077
  172POPE    C316522   0.463   3.379   6.894
  172POPE    HX16523   0.358   3.344   6.881
  172POPE    HY16524   0.519   3.331   6.811
  172POPE   O3116525   0.470   3.521   6.882
  172POPE   C3116526   0.359   3.580   6.844
  172POPE   O3216527   0.267   3.528   6.783
  172POPE   C3216528   0.363   3.724   6.888
  172POPE   H2X16529   0.372   3.725   7.000
  172POPE   H2Y16530   0.266   3.771   6.863
  172POPE   C2316531   0.854   3.526   6.888
  172POPE   H3R16532   0.953   3.575   6.893
  172POPE   H3S16533   0.776   3.597   6.928
  172POPE   C2416534   0.822   3.499   6.740
  172POPE   H4R16535   0.721   3.451   6.733
  172POPE   H4S16536   0.895   3.428   6.696
  172POPE   C2516537   0.823   3.627   6.657
  172POPE   H5R16538   0.928   3.663   6.644
  172POPE   H5S16539   0.768   3.705   6.715
  172POPE   C2616540   0.751   3.613   6.522
  172POPE   H6R16541   0.731   3.717   6.485
  172POPE   H6S16542   0.656   3.558   6.539
  172POPE   C2716543   0.825   3.544   6.409
  172POPE   H7R16544   0.873   3.452   6.441
  172POPE   H7S16545   0.893   3.623   6.373
  172POPE   C2816546   0.747   3.499   6.287
  172POPE   H8R16547   0.668   3.429   6.322
  172POPE   H8S16548   0.818   3.444   6.220
  172POPE   C2916549   0.704   3.628   6.226
  172POPE   H9116550   0.783   3.704   6.224
  172POPE  C21016551   0.582   3.665   6.187
  172POPE  H10116552   0.571   3.761   6.137
  172POPE  C21116553   0.459   3.581   6.197
  172POPE  H11R16554   0.383   3.626   6.264
  172POPE  H11S16555   0.481   3.479   6.237
  172POPE  C21216556   0.403   3.577   6.055
  172POPE  H12R16557   0.391   3.672   6.001
  172POPE  H12S16558   0.304   3.524   6.061
  172POPE  C21316559   0.498   3.502   5.964
  172POPE  H13R16560   0.412   3.441   5.928
  172POPE  H13S16561   0.584   3.456   6.016
  172POPE  C21416562   0.549   3.529   5.825
  172POPE  H14R16563   0.653   3.565   5.833
  172POPE  H14S16564   0.473   3.593   5.777
  172POPE  C21516565   0.555   3.402   5.744
  172POPE  H15R16566   0.458   3.360   5.765
  172POPE  H15S16567   0.635   3.326   5.771
  172POPE  C21616568   0.532   3.410   5.599
  172POPE  H16R16569   0.569   3.309   5.565
  172POPE  H16S16570   0.594   3.499   5.585
  172POPE  C21716571   0.427   3.487   5.518
  172POPE  H17R16572   0.417   3.583   5.574
  172POPE  H17S16573   0.342   3.418   5.520
  172POPE  C21816574   0.453   3.530   5.371
  172POPE  H18R16575   0.540   3.593   5.368
  172POPE  H18S16576   0.381   3.599   5.327
  172POPE  H18T16577   0.474   3.447   5.300
  172POPE   C3316578   0.484   3.795   6.825
  172POPE   H3X16579   0.576   3.734   6.830
  172POPE   H3Y16580   0.508   3.881   6.891
  172POPE   C3416581   0.461   3.843   6.680
  172POPE   H4X16582   0.366   3.900   6.666
  172POPE   H4Y16583   0.452   3.758   6.611
  172POPE   C3516584   0.577   3.931   6.630
  172POPE   H5X16585   0.673   3.877   6.638
  172POPE   H5Y16586   0.597   4.012   6.700
  172POPE   C3616587   0.555   3.980   6.487
  172POPE   H6X16588   0.453   4.024   6.474
  172POPE   H6Y16589   0.563   3.889   6.425
  172POPE   C3716590   0.663   4.077   6.437
  172POPE   H7X16591   0.759   4.025   6.433
  172POPE   H7Y16592   0.679   4.154   6.513
  172POPE   C3816593   0.635   4.142   6.300
  172POPE   H8X16594   0.721   4.202   6.266
  172POPE   H8Y16595   0.560   4.218   6.317
  172POPE   C3916596   0.585   4.042   6.194
  172POPE   H9X16597   0.493   3.991   6.230
  172POPE   H9Y16598   0.664   3.965   6.181
  172POPE  C31016599   0.560   4.097   6.053
  172POPE  H10X16600   0.491   4.182   6.052
  172POPE  H10Y16601   0.515   4.016   5.991
  172POPE  C31116602   0.691   4.147   5.993
  172POPE  H11X16603   0.775   4.100   6.051
  172POPE  H11Y16604   0.695   4.255   6.012
  172POPE  C31216605   0.715   4.114   5.846
  172POPE  H12X16606   0.820   4.139   5.820
  172POPE  H12Y16607   0.649   4.173   5.780
  172POPE  C31316608   0.699   3.966   5.820
  172POPE  H13X16609   0.593   3.935   5.816
  172POPE  H13Y16610   0.752   3.907   5.898
  172POPE  C31416611   0.755   3.923   5.690
  172POPE  H14X16612   0.859   3.960   5.670
  172POPE  H14Y16613   0.691   3.958   5.605
  172POPE  C31516614   0.754   3.773   5.702
  172POPE  H15X16615   0.657   3.721   5.681
  172POPE  H15Y16616   0.813   3.727   5.784
  172POPE  C31616617   0.839   3.732   5.600
  172POPE  H16X16618   0.937   3.779   5.593
  172POPE  H16Y16619   0.787   3.709   5.510
  172POPE  H16Z16620   0.866   3.632   5.618
  173POPE     N16621   1.654   7.490   7.423
  173POPE   HN116622   1.707   7.577   7.406
  173POPE   HN216623   1.597   7.497   7.510
  173POPE   HN316624   1.716   7.406   7.430
  173POPE   C1216625   1.563   7.468   7.305
  173POPE  H12A16626   1.624   7.432   7.219
  173POPE  H12B16627   1.519   7.567   7.281
  173POPE   C1116628   1.456   7.365   7.340
  173POPE  H11A16629   1.374   7.364   7.264
  173POPE  H11B16630   1.410   7.393   7.437
  173POPE     P16631   1.454   7.117   7.419
  173POPE   O1316632   1.479   7.139   7.561
  173POPE   O1416633   1.490   6.990   7.352
  173POPE   O1116634   1.303   7.154   7.401
  173POPE   O1216635   1.521   7.238   7.343
  173POPE    C116636   1.203   7.062   7.363
  173POPE    HA16637   1.135   7.040   7.449
  173POPE    HB16638   1.244   6.963   7.334
  173POPE    C216639   1.124   7.129   7.248
  173POPE    HS16640   1.042   7.072   7.203
  173POPE   O2116641   1.205   7.186   7.145
  173POPE   C2116642   1.282   7.106   7.075
  173POPE   O2216643   1.310   6.990   7.099
  173POPE   C2216644   1.337   7.179   6.955
  173POPE   H2R16645   1.259   7.246   6.913
  173POPE   H2S16646   1.366   7.106   6.877
  173POPE    C316647   1.030   7.234   7.297
  173POPE    HX16648   1.065   7.305   7.372
  173POPE    HY16649   0.955   7.171   7.352
  173POPE   O3116650   0.972   7.286   7.176
  173POPE   C3116651   1.009   7.405   7.144
  173POPE   O3216652   1.105   7.464   7.194
  173POPE   C3216653   0.927   7.459   7.026
  173POPE   H2X16654   0.830   7.498   7.063
  173POPE   H2Y16655   0.906   7.375   6.957
  173POPE   C2316656   1.458   7.255   7.008
  173POPE   H3R16657   1.511   7.192   7.084
  173POPE   H3S16658   1.424   7.347   7.059
  173POPE   C2416659   1.559   7.285   6.898
  173POPE   H4R16660   1.578   7.196   6.835
  173POPE   H4S16661   1.653   7.318   6.948
  173POPE   C2516662   1.513   7.398   6.809
  173POPE   H5R16663   1.517   7.473   6.888
  173POPE   H5S16664   1.411   7.388   6.766
  173POPE   C2616665   1.613   7.437   6.702
  173POPE   H6R16666   1.639   7.349   6.641
  173POPE   H6S16667   1.702   7.483   6.753
  173POPE   C2716668   1.563   7.544   6.612
  173POPE   H7R16669   1.519   7.619   6.680
  173POPE   H7S16670   1.487   7.506   6.539
  173POPE   C2816671   1.669   7.620   6.537
  173POPE   H8R16672   1.735   7.683   6.604
  173POPE   H8S16673   1.600   7.680   6.483
  173POPE   C2916674   1.738   7.533   6.439
  173POPE   H9116675   1.805   7.468   6.486
  173POPE  C21016676   1.735   7.514   6.307
  173POPE  H10116677   1.821   7.463   6.263
  173POPE  C21116678   1.650   7.586   6.208
  173POPE  H11R16679   1.705   7.595   6.112
  173POPE  H11S16680   1.624   7.690   6.238
  173POPE  C21216681   1.519   7.524   6.196
  173POPE  H12R16682   1.469   7.541   6.294
  173POPE  H12S16683   1.534   7.417   6.173
  173POPE  C21316684   1.449   7.589   6.080
  173POPE  H13R16685   1.370   7.518   6.049
  173POPE  H13S16686   1.519   7.606   5.994
  173POPE  C21416687   1.378   7.716   6.118
  173POPE  H14R16688   1.448   7.797   6.150
  173POPE  H14S16689   1.311   7.693   6.203
  173POPE  C21516690   1.292   7.754   6.001
  173POPE  H15R16691   1.215   7.823   6.040
  173POPE  H15S16692   1.223   7.678   5.965
  173POPE  C21616693   1.379   7.810   5.887
  173POPE  H16R16694   1.424   7.726   5.830
  173POPE  H16S16695   1.464   7.871   5.925
  173POPE  C21716696   1.294   7.890   5.792
  173POPE  H17R16697   1.356   7.940   5.717
  173POPE  H17S16698   1.256   7.985   5.816
  173POPE  C21816699   1.163   7.826   5.763
  173POPE  H18R16700   1.111   7.891   5.688
  173POPE  H18S16701   1.095   7.798   5.843
  173POPE  H18T16702   1.201   7.728   5.728
  173POPE   C3316703   1.007   7.573   6.960
  173POPE   H3X16704   1.112   7.541   6.952
  173POPE   H3Y16705   1.002   7.664   7.024
  173POPE   C3416706   0.969   7.612   6.818
  173POPE   H4X16707   1.039   7.687   6.782
  173POPE   H4Y16708   0.870   7.661   6.816
  173POPE   C3516709   0.974   7.499   6.715
  173POPE   H5X16710   0.954   7.549   6.619
  173POPE   H5Y16711   0.896   7.430   6.749
  173POPE   C3616712   1.090   7.404   6.689
  173POPE   H6X16713   1.098   7.329   6.769
  173POPE   H6Y16714   1.191   7.440   6.690
  173POPE   C3716715   1.084   7.354   6.544
  173POPE   H7X16716   1.075   7.439   6.473
  173POPE   H7Y16717   0.993   7.292   6.528
  173POPE   C3816718   1.210   7.278   6.511
  173POPE   H8X16719   1.214   7.194   6.584
  173POPE   H8Y16720   1.301   7.342   6.523
  173POPE   C3916721   1.213   7.220   6.370
  173POPE   H9X16722   1.220   7.305   6.300
  173POPE   H9Y16723   1.116   7.169   6.351
  173POPE  C31016724   1.328   7.118   6.359
  173POPE  H10X16725   1.280   7.020   6.386
  173POPE  H10Y16726   1.403   7.138   6.438
  173POPE  C31116727   1.409   7.105   6.226
  173POPE  H11X16728   1.456   7.004   6.230
  173POPE  H11Y16729   1.485   7.184   6.213
  173POPE  C31216730   1.326   7.113   6.099
  173POPE  H12X16731   1.238   7.088   6.155
  173POPE  H12Y16732   1.348   7.034   6.024
  173POPE  C31316733   1.298   7.252   6.040
  173POPE  H13X16734   1.398   7.298   6.031
  173POPE  H13Y16735   1.230   7.307   6.107
  173POPE  C31416736   1.233   7.264   5.901
  173POPE  H14X16737   1.122   7.258   5.908
  173POPE  H14Y16738   1.271   7.185   5.832
  173POPE  C31516739   1.229   7.402   5.849
  173POPE  H15X16740   1.335   7.433   5.845
  173POPE  H15Y16741   1.171   7.461   5.925
  173POPE  C31616742   1.158   7.408   5.715
  173POPE  H16X16743   1.168   7.511   5.676
  173POPE  H16Y16744   1.050   7.384   5.725
  173POPE  H16Z16745   1.203   7.337   5.642
  174POPE     N16746   2.782   0.376   7.480
  174POPE   HN116747   2.869   0.429   7.459
  174POPE   HN216748   2.735   0.348   7.390
  174POPE   HN316749   2.714   0.429   7.538
  174POPE   C1216750   2.824   0.252   7.553
  174POPE  H12A16751   2.826   0.276   7.659
  174POPE  H12B16752   2.928   0.226   7.523
  174POPE   C1116753   2.729   0.134   7.526
  174POPE  H11A16754   2.628   0.158   7.566
  174POPE  H11B16755   2.771   0.048   7.583
  174POPE     P16756   2.644   0.006   7.296
  174POPE   O1316757   2.563  -0.089   7.372
  174POPE   O1416758   2.730  -0.053   7.193
  174POPE   O1116759   2.532   0.101   7.242
  174POPE   O1216760   2.728   0.109   7.387
  174POPE    C116761   2.404   0.032   7.233
  174POPE    HA16762   2.329   0.106   7.249
  174POPE    HB16763   2.365  -0.026   7.320
  174POPE    C216764   2.391  -0.048   7.101
  174POPE    HS16765   2.435  -0.149   7.116
  174POPE   O2116766   2.473   0.024   7.007
  174POPE   C2116767   2.538  -0.043   6.913
  174POPE   O2216768   2.527  -0.161   6.889
  174POPE   C2216769   2.621   0.054   6.829
  174POPE   H2R16770   2.715   0.076   6.879
  174POPE   H2S16771   2.578   0.150   6.844
  174POPE    C316772   2.243  -0.062   7.055
  174POPE    HX16773   2.164   0.008   7.088
  174POPE    HY16774   2.200  -0.153   7.101
  174POPE   O3116775   2.246  -0.063   6.913
  174POPE   C3116776   2.175   0.030   6.850
  174POPE   O3216777   2.112   0.122   6.892
  174POPE   C3216778   2.179   0.001   6.712
  174POPE   H2X16779   2.073  -0.014   6.683
  174POPE   H2Y16780   2.254  -0.086   6.702
  174POPE   C2316781   2.645   0.015   6.680
  174POPE   H3R16782   2.581   0.056   6.601
  174POPE   H3S16783   2.638  -0.093   6.664
  174POPE   C2416784   2.784   0.057   6.637
  174POPE   H4R16785   2.797   0.024   6.533
  174POPE   H4S16786   2.860   0.016   6.706
  174POPE   C2516787   2.810   0.205   6.639
  174POPE   H5R16788   2.919   0.212   6.620
  174POPE   H5S16789   2.788   0.248   6.742
  174POPE   C2616790   2.741   0.276   6.518
  174POPE   H6R16791   2.687   0.303   6.608
  174POPE   H6S16792   2.711   0.201   6.445
  174POPE   C2716793   2.694   0.430   6.475
  174POPE   H7R16794   2.790   0.417   6.517
  174POPE   H7S16795   2.661   0.507   6.541
  174POPE   C2816796   2.673   0.496   6.326
  174POPE   H8R16797   2.685   0.423   6.244
  174POPE   H8S16798   2.719   0.586   6.290
  174POPE   C2916799   2.545   0.530   6.317
  174POPE   H9116800   2.505   0.539   6.416
  174POPE  C21016801   2.476   0.560   6.215
  174POPE  H10116802   2.371   0.529   6.224
  174POPE  C21116803   2.499   0.576   6.079
  174POPE  H11R16804   2.603   0.564   6.063
  174POPE  H11S16805   2.480   0.685   6.078
  174POPE  C21216806   2.410   0.517   5.974
  174POPE  H12R16807   2.301   0.500   5.997
  174POPE  H12S16808   2.466   0.433   5.929
  174POPE  C21316809   2.431   0.597   5.860
  174POPE  H13R16810   2.517   0.664   5.880
  174POPE  H13S16811   2.333   0.637   5.857
  174POPE  C21416812   2.384   0.580   5.724
  174POPE  H14R16813   2.487   0.559   5.696
  174POPE  H14S16814   2.357   0.667   5.663
  174POPE  C21516815   2.261   0.494   5.716
  174POPE  H15R16816   2.187   0.534   5.789
  174POPE  H15S16817   2.294   0.396   5.752
  174POPE  C21616818   2.200   0.482   5.576
  174POPE  H16R16819   2.251   0.505   5.485
  174POPE  H16S16820   2.124   0.559   5.563
  174POPE  C21716821   2.185   0.338   5.531
  174POPE  H17R16822   2.116   0.312   5.600
  174POPE  H17S16823   2.261   0.262   5.557
  174POPE  C21816824   2.133   0.302   5.394
  174POPE  H18R16825   2.057   0.377   5.366
  174POPE  H18S16826   2.088   0.201   5.392
  174POPE  H18T16827   2.204   0.318   5.314
  174POPE   C3316828   2.227   0.098   6.619
  174POPE   H3X16829   2.327   0.069   6.652
  174POPE   H3Y16830   2.175   0.195   6.612
  174POPE   C3416831   2.267   0.057   6.485
  174POPE   H4X16832   2.159   0.036   6.464
  174POPE   H4Y16833   2.355  -0.014   6.472
  174POPE   C3516834   2.265   0.124   6.362
  174POPE   H5X16835   2.317   0.159   6.442
  174POPE   H5Y16836   2.204   0.216   6.363
  174POPE   C3616837   2.311   0.062   6.213
  174POPE   H6X16838   2.282   0.156   6.184
  174POPE   H6Y16839   2.245   0.023   6.145
  174POPE   C3716840   2.432  -0.022   6.147
  174POPE   H7X16841   2.413  -0.040   6.037
  174POPE   H7Y16842   2.437  -0.112   6.202
  174POPE   C3816843   2.583   0.004   6.166
  174POPE   H8X16844   2.614   0.055   6.262
  174POPE   H8Y16845   2.613   0.076   6.087
  174POPE   C3916846   2.663  -0.103   6.223
  174POPE   H9X16847   2.646  -0.175   6.142
  174POPE   H9Y16848   2.616  -0.132   6.321
  174POPE  C31016849   2.805  -0.048   6.239
  174POPE  H10X16850   2.865  -0.139   6.230
  174POPE  H10Y16851   2.823   0.005   6.336
  174POPE  C31116852   2.851   0.049   6.130
  174POPE  H11X16853   2.957   0.074   6.149
  174POPE  H11Y16854   2.793   0.144   6.137
  174POPE  C31216855   2.836  -0.008   5.989
  174POPE  H12X16856   2.730  -0.036   5.969
  174POPE  H12Y16857   2.896  -0.101   5.984
  174POPE  C31316858   2.880   0.090   5.883
  174POPE  H13X16859   2.816   0.182   5.891
  174POPE  H13Y16860   2.861   0.046   5.783
  174POPE  C31416861   3.029   0.124   5.891
  174POPE  H14X16862   3.093   0.034   5.896
  174POPE  H14Y16863   3.051   0.188   5.981
  174POPE  C31516864   3.072   0.202   5.769
  174POPE  H15X16865   3.146   0.279   5.803
  174POPE  H15Y16866   2.977   0.249   5.735
  174POPE  C31616867   3.132   0.128   5.652
  174POPE  H16X16868   3.228   0.083   5.684
  174POPE  H16Y16869   3.151   0.198   5.568
  174POPE  H16Z16870   3.061   0.049   5.618
  175POPE     N16871   7.950   7.649   7.486
  175POPE   HN116872   7.914   7.739   7.450
  175POPE   HN216873   7.991   7.659   7.581
  175POPE   HN316874   8.024   7.612   7.421
  175POPE   C1216875   7.834   7.553   7.491
  175POPE  H12A16876   7.780   7.557   7.395
  175POPE  H12B16877   7.764   7.590   7.566
  175POPE   C1116878   7.881   7.412   7.528
  175POPE  H11A16879   7.794   7.350   7.562
  175POPE  H11B16880   7.953   7.411   7.613
  175POPE     P16881   7.879   7.246   7.328
  175POPE   O1316882   7.908   7.111   7.381
  175POPE   O1416883   7.923   7.282   7.191
  175POPE   O1116884   7.726   7.284   7.355
  175POPE   O1216885   7.950   7.358   7.417
  175POPE    C116886   7.651   7.370   7.268
  175POPE    HA16887   7.714   7.438   7.205
  175POPE    HB16888   7.569   7.421   7.321
  175POPE    C216889   7.585   7.288   7.165
  175POPE    HS16890   7.523   7.219   7.234
  175POPE   O2116891   7.702   7.234   7.089
  175POPE   C2116892   7.654   7.129   7.040
  175POPE   O2216893   7.539   7.107   7.070
  175POPE   C2216894   7.745   7.037   6.952
  175POPE   H2R16895   7.773   6.951   7.018
  175POPE   H2S16896   7.837   7.097   6.938
  175POPE    C316897   7.487   7.364   7.068
  175POPE    HX16898   7.402   7.405   7.127
  175POPE    HY16899   7.435   7.300   6.994
  175POPE   O3116900   7.560   7.464   6.995
  175POPE   C3116901   7.619   7.421   6.883
  175POPE   O3216902   7.597   7.319   6.822
  175POPE   C3216903   7.736   7.508   6.853
  175POPE   H2X16904   7.821   7.464   6.910
  175POPE   H2Y16905   7.713   7.610   6.891
  175POPE   C2316906   7.689   6.982   6.812
  175POPE   H3R16907   7.664   7.061   6.741
  175POPE   H3S16908   7.619   6.898   6.800
  175POPE   C2416909   7.776   6.890   6.747
  175POPE   H4R16910   7.782   6.792   6.799
  175POPE   H4S16911   7.851   6.972   6.766
  175POPE   C2516912   7.765   6.834   6.612
  175POPE   H5R16913   7.703   6.743   6.609
  175POPE   H5S16914   7.858   6.794   6.580
  175POPE   C2616915   7.762   6.947   6.520
  175POPE   H6R16916   7.841   7.024   6.530
  175POPE   H6S16917   7.663   6.987   6.551
  175POPE   C2716918   7.770   6.897   6.380
  175POPE   H7R16919   7.698   6.813   6.389
  175POPE   H7S16920   7.858   6.852   6.338
  175POPE   C2816921   7.748   7.005   6.279
  175POPE   H8R16922   7.713   6.973   6.187
  175POPE   H8S16923   7.824   7.084   6.266
  175POPE   C2916924   7.629   7.049   6.335
  175POPE   H9116925   7.535   6.990   6.321
  175POPE  C21016926   7.612   7.169   6.344
  175POPE  H10116927   7.513   7.155   6.370
  175POPE  C21116928   7.670   7.302   6.314
  175POPE  H11R16929   7.759   7.281   6.253
  175POPE  H11S16930   7.683   7.349   6.412
  175POPE  C21216931   7.607   7.416   6.231
  175POPE  H12R16932   7.536   7.482   6.288
  175POPE  H12S16933   7.558   7.403   6.136
  175POPE  C21316934   7.713   7.513   6.202
  175POPE  H13R16935   7.747   7.551   6.301
  175POPE  H13S16936   7.637   7.575   6.150
  175POPE  C21416937   7.820   7.498   6.094
  175POPE  H14R16938   7.891   7.418   6.120
  175POPE  H14S16939   7.887   7.587   6.104
  175POPE  C21516940   7.767   7.493   5.947
  175POPE  H15R16941   7.694   7.411   5.933
  175POPE  H15S16942   7.860   7.468   5.892
  175POPE  C21616943   7.703   7.619   5.880
  175POPE  H16R16944   7.778   7.702   5.880
  175POPE  H16S16945   7.611   7.651   5.931
  175POPE  C21716946   7.669   7.604   5.736
  175POPE  H17R16947   7.617   7.689   5.685
  175POPE  H17S16948   7.612   7.510   5.714
  175POPE  C21816949   7.804   7.602   5.678
  175POPE  H18R16950   7.778   7.597   5.568
  175POPE  H18S16951   7.870   7.521   5.712
  175POPE  H18T16952   7.874   7.684   5.693
  175POPE   C3316953   7.769   7.511   6.702
  175POPE   H3X16954   7.678   7.540   6.644
  175POPE   H3Y16955   7.802   7.412   6.664
  175POPE   C3416956   7.884   7.611   6.685
  175POPE   H4X16957   7.970   7.574   6.746
  175POPE   H4Y16958   7.852   7.709   6.728
  175POPE   C3516959   7.932   7.640   6.543
  175POPE   H5X16960   8.003   7.726   6.550
  175POPE   H5Y16961   7.843   7.672   6.485
  175POPE   C3616962   8.001   7.526   6.466
  175POPE   H6X16963   8.037   7.569   6.371
  175POPE   H6Y16964   7.929   7.447   6.437
  175POPE   C3716965   8.125   7.468   6.533
  175POPE   H7X16966   8.104   7.441   6.639
  175POPE   H7Y16967   8.203   7.548   6.536
  175POPE   C3816968   8.181   7.346   6.457
  175POPE   H8X16969   8.280   7.317   6.498
  175POPE   H8Y16970   8.196   7.377   6.351
  175POPE   C3916971   8.087   7.224   6.460
  175POPE   H9X16972   7.990   7.246   6.410
  175POPE   H9Y16973   8.065   7.200   6.567
  175POPE  C31016974   8.143   7.097   6.396
  175POPE  H10X16975   8.070   7.017   6.418
  175POPE  H10Y16976   8.242   7.074   6.441
  175POPE  C31116977   8.153   7.098   6.244
  175POPE  H11X16978   8.208   7.188   6.208
  175POPE  H11Y16979   8.051   7.100   6.199
  175POPE  C31216980   8.224   6.977   6.187
  175POPE  H12X16981   8.187   6.880   6.227
  175POPE  H12Y16982   8.333   6.981   6.215
  175POPE  C31316983   8.205   6.986   6.037
  175POPE  H13X16984   8.268   7.073   6.004
  175POPE  H13Y16985   8.101   6.998   6.004
  175POPE  C31416986   8.251   6.864   5.968
  175POPE  H14X16987   8.226   6.769   6.019
  175POPE  H14Y16988   8.355   6.890   6.001
  175POPE  C31516989   8.242   6.857   5.812
  175POPE  H15X16990   8.282   6.764   5.765
  175POPE  H15Y16991   8.308   6.934   5.766
  175POPE  C31616992   8.108   6.847   5.752
  175POPE  H16X16993   8.115   6.792   5.654
  175POPE  H16Y16994   8.060   6.944   5.746
  175POPE  H16Z16995   8.049   6.790   5.824
  176POPE     N16996   3.079   2.849   3.621
  176POPE   HN116997   3.148   2.828   3.696
  176POPE   HN216998   3.014   2.920   3.658
  176POPE   HN316999   3.018   2.766   3.606
  176POPE   C1217000   3.152   2.899   3.499
  176POPE  H12A17001   3.079   2.932   3.422
  176POPE  H12B17002   3.209   2.814   3.460
  176POPE   C1117003   3.250   3.010   3.537
  176POPE  H11A17004   3.199   3.090   3.595
  176POPE  H11B17005   3.288   3.057   3.442
  176POPE     P17006   3.495   3.025   3.616
  176POPE   O1317007   3.474   3.161   3.672
  176POPE   O1417008   3.550   3.007   3.481
  176POPE   O1117009   3.574   2.936   3.720
  176POPE   O1217010   3.354   2.950   3.615
  176POPE    C117011   3.518   2.900   3.845
  176POPE    HA17012   3.455   2.810   3.832
  176POPE    HB17013   3.455   2.982   3.887
  176POPE    C217014   3.631   2.866   3.946
  176POPE    HS17015   3.590   2.859   4.049
  176POPE   O2117016   3.740   2.960   3.941
  176POPE   C2117017   3.712   3.079   3.990
  176POPE   O2217018   3.622   3.112   4.064
  176POPE   C2217019   3.821   3.176   3.943
  176POPE   H2R17020   3.786   3.223   3.848
  176POPE   H2S17021   3.911   3.115   3.932
  176POPE    C317022   3.683   2.724   3.910
  176POPE    HX17023   3.724   2.724   3.807
  176POPE    HY17024   3.593   2.659   3.910
  176POPE   O3117025   3.785   2.680   3.999
  176POPE   C3117026   3.741   2.607   4.100
  176POPE   O3217027   3.626   2.570   4.120
  176POPE   C3217028   3.850   2.595   4.200
  176POPE   H2X17029   3.946   2.613   4.148
  176POPE   H2Y17030   3.854   2.490   4.237
  176POPE   C2317031   3.875   3.277   4.045
  176POPE   H3R17032   3.795   3.306   4.111
  176POPE   H3S17033   3.924   3.362   3.992
  176POPE   C2417034   3.961   3.210   4.151
  176POPE   H4R17035   4.049   3.167   4.100
  176POPE   H4S17036   3.899   3.128   4.195
  176POPE   C2517037   4.011   3.299   4.266
  176POPE   H5R17038   4.083   3.376   4.229
  176POPE   H5S17039   4.068   3.228   4.330
  176POPE   C2617040   3.912   3.368   4.362
  176POPE   H6R17041   3.883   3.464   4.318
  176POPE   H6S17042   3.969   3.398   4.452
  176POPE   C2717043   3.782   3.297   4.401
  176POPE   H7R17044   3.733   3.252   4.312
  176POPE   H7S17045   3.711   3.376   4.438
  176POPE   C2817046   3.793   3.193   4.515
  176POPE   H8R17047   3.853   3.107   4.479
  176POPE   H8S17048   3.690   3.154   4.530
  176POPE   C2917049   3.849   3.246   4.645
  176POPE   H9117050   3.959   3.252   4.650
  176POPE  C21017051   3.780   3.284   4.755
  176POPE  H10117052   3.836   3.323   4.842
  176POPE  C21117053   3.630   3.285   4.773
  176POPE  H11R17054   3.579   3.286   4.675
  176POPE  H11S17055   3.601   3.379   4.825
  176POPE  C21217056   3.576   3.165   4.853
  176POPE  H12R17057   3.587   3.072   4.792
  176POPE  H12S17058   3.467   3.181   4.870
  176POPE  C21317059   3.648   3.140   4.987
  176POPE  H13R17060   3.679   3.239   5.027
  176POPE  H13S17061   3.742   3.083   4.968
  176POPE  C21417062   3.568   3.066   5.096
  176POPE  H14R17063   3.496   3.138   5.141
  176POPE  H14S17064   3.640   3.036   5.175
  176POPE  C21517065   3.489   2.940   5.054
  176POPE  H15R17066   3.401   2.971   4.993
  176POPE  H15S17067   3.447   2.897   5.149
  176POPE  C21617068   3.564   2.829   4.977
  176POPE  H16R17069   3.607   2.865   4.882
  176POPE  H16S17070   3.489   2.752   4.951
  176POPE  C21717071   3.680   2.759   5.051
  176POPE  H17R17072   3.770   2.824   5.048
  176POPE  H17S17073   3.703   2.666   4.994
  176POPE  C21817074   3.645   2.721   5.193
  176POPE  H18R17075   3.549   2.666   5.197
  176POPE  H18S17076   3.633   2.816   5.250
  176POPE  H18T17077   3.724   2.660   5.242
  176POPE   C3317078   3.814   2.698   4.312
  176POPE   H3X17079   3.707   2.701   4.340
  176POPE   H3Y17080   3.856   2.798   4.288
  176POPE   C3417081   3.866   2.656   4.446
  176POPE   H4X17082   3.950   2.617   4.399
  176POPE   H4Y17083   3.837   2.557   4.485
  176POPE   C3517084   3.908   2.767   4.548
  176POPE   H5X17085   3.914   2.713   4.646
  176POPE   H5Y17086   3.824   2.836   4.552
  176POPE   C3617087   4.036   2.857   4.535
  176POPE   H6X17088   4.052   2.913   4.442
  176POPE   H6Y17089   4.127   2.804   4.510
  176POPE   C3717090   4.073   2.932   4.669
  176POPE   H7X17091   4.018   3.027   4.665
  176POPE   H7Y17092   4.183   2.951   4.670
  176POPE   C3817093   4.047   2.867   4.810
  176POPE   H8X17094   4.075   2.764   4.822
  176POPE   H8Y17095   3.941   2.845   4.832
  176POPE   C3917096   4.135   2.924   4.923
  176POPE   H9X17097   4.243   2.898   4.913
  176POPE   H9Y17098   4.103   2.874   5.018
  176POPE  C31017099   4.125   3.075   4.920
  176POPE  H10X17100   4.018   3.101   4.907
  176POPE  H10Y17101   4.182   3.108   4.831
  176POPE  C31117102   4.182   3.143   5.043
  176POPE  H11X17103   4.203   3.251   5.028
  176POPE  H11Y17104   4.276   3.094   5.069
  176POPE  C31217105   4.082   3.126   5.156
  176POPE  H12X17106   4.061   3.018   5.157
  176POPE  H12Y17107   3.986   3.175   5.134
  176POPE  C31317108   4.134   3.184   5.288
  176POPE  H13X17109   4.170   3.282   5.260
  176POPE  H13Y17110   4.226   3.128   5.319
  176POPE  C31417111   4.025   3.184   5.402
  176POPE  H14X17112   3.984   3.091   5.405
  176POPE  H14Y17113   3.930   3.229   5.377
  176POPE  C31517114   4.076   3.193   5.550
  176POPE  H15X17115   4.038   3.295   5.567
  176POPE  H15Y17116   4.186   3.178   5.546
  176POPE  C31617117   4.016   3.159   5.686
  176POPE  H16X17118   3.907   3.181   5.681
  176POPE  H16Y17119   4.065   3.221   5.764
  176POPE  H16Z17120   4.044   3.056   5.711
  177POPE     N17121   4.160   3.145   3.846
  177POPE   HN117122   4.114   3.181   3.933
  177POPE   HN217123   4.251   3.101   3.873
  177POPE   HN317124   4.184   3.226   3.785
  177POPE   C1217125   4.075   3.054   3.758
  177POPE  H12A17126   3.968   3.068   3.767
  177POPE  H12B17127   4.087   2.952   3.785
  177POPE   C1117128   4.108   3.066   3.611
  177POPE  H11A17129   4.044   2.993   3.555
  177POPE  H11B17130   4.214   3.035   3.597
  177POPE     P17131   4.172   3.287   3.485
  177POPE   O1317132   4.148   3.431   3.509
  177POPE   O1417133   4.190   3.236   3.348
  177POPE   O1117134   4.297   3.243   3.564
  177POPE   O1217135   4.074   3.199   3.570
  177POPE    C117136   4.420   3.306   3.539
  177POPE    HA17137   4.418   3.401   3.479
  177POPE    HB17138   4.489   3.237   3.485
  177POPE    C217139   4.458   3.344   3.678
  177POPE    HS17140   4.466   3.254   3.745
  177POPE   O2117141   4.379   3.452   3.728
  177POPE   C2117142   4.364   3.464   3.857
  177POPE   O2217143   4.388   3.382   3.943
  177POPE   C2217144   4.300   3.599   3.880
  177POPE   H2R17145   4.208   3.605   3.818
  177POPE   H2S17146   4.376   3.674   3.854
  177POPE    C317147   4.589   3.389   3.675
  177POPE    HX17148   4.610   3.484   3.617
  177POPE    HY17149   4.646   3.312   3.616
  177POPE   O3117150   4.629   3.394   3.814
  177POPE   C3117151   4.698   3.286   3.861
  177POPE   O3217152   4.722   3.180   3.810
  177POPE   C3217153   4.760   3.325   3.984
  177POPE   H2X17154   4.665   3.358   4.033
  177POPE   H2Y17155   4.834   3.402   3.948
  177POPE   C2317156   4.272   3.628   4.027
  177POPE   H3R17157   4.368   3.632   4.084
  177POPE   H3S17158   4.211   3.545   4.068
  177POPE   C2417159   4.200   3.759   4.052
  177POPE   H4R17160   4.120   3.779   3.977
  177POPE   H4S17161   4.269   3.846   4.047
  177POPE   C2517162   4.137   3.758   4.190
  177POPE   H5R17163   4.056   3.682   4.189
  177POPE   H5S17164   4.096   3.858   4.213
  177POPE   C2617165   4.227   3.727   4.308
  177POPE   H6R17166   4.265   3.623   4.297
  177POPE   H6S17167   4.172   3.732   4.406
  177POPE   C2717168   4.338   3.827   4.324
  177POPE   H7R17169   4.300   3.924   4.365
  177POPE   H7S17170   4.393   3.850   4.230
  177POPE   C2817171   4.428   3.775   4.429
  177POPE   H8R17172   4.370   3.764   4.521
  177POPE   H8S17173   4.501   3.854   4.440
  177POPE   C2917174   4.494   3.651   4.393
  177POPE   H9117175   4.568   3.678   4.316
  177POPE  C21017176   4.470   3.528   4.445
  177POPE  H10117177   4.522   3.440   4.404
  177POPE  C21117178   4.372   3.492   4.552
  177POPE  H11R17179   4.312   3.406   4.518
  177POPE  H11S17180   4.319   3.580   4.589
  177POPE  C21217181   4.442   3.441   4.673
  177POPE  H12R17182   4.523   3.514   4.684
  177POPE  H12S17183   4.472   3.340   4.633
  177POPE  C21317184   4.389   3.412   4.814
  177POPE  H13R17185   4.452   3.335   4.864
  177POPE  H13S17186   4.291   3.368   4.788
  177POPE  C21417187   4.376   3.531   4.913
  177POPE  H14R17188   4.307   3.505   4.994
  177POPE  H14S17189   4.322   3.597   4.846
  177POPE  C21517190   4.499   3.596   4.984
  177POPE  H15R17191   4.570   3.619   4.905
  177POPE  H15S17192   4.552   3.525   5.050
  177POPE  C21617193   4.485   3.728   5.065
  177POPE  H16R17194   4.418   3.717   5.150
  177POPE  H16S17195   4.441   3.811   5.016
  177POPE  C21717196   4.606   3.821   5.068
  177POPE  H17R17197   4.577   3.925   5.101
  177POPE  H17S17198   4.659   3.837   4.971
  177POPE  C21817199   4.686   3.753   5.167
  177POPE  H18R17200   4.770   3.816   5.188
  177POPE  H18S17201   4.715   3.651   5.131
  177POPE  H18T17202   4.630   3.748   5.262
  177POPE   C3317203   4.808   3.226   4.087
  177POPE   H3X17204   4.870   3.156   4.031
  177POPE   H3Y17205   4.718   3.183   4.137
  177POPE   C3417206   4.891   3.293   4.194
  177POPE   H4X17207   4.807   3.311   4.254
  177POPE   H4Y17208   4.960   3.370   4.155
  177POPE   C3517209   4.937   3.241   4.325
  177POPE   H5X17210   4.980   3.168   4.263
  177POPE   H5Y17211   4.859   3.168   4.351
  177POPE   C3617212   5.014   3.327   4.454
  177POPE   H6X17213   5.088   3.388   4.409
  177POPE   H6Y17214   5.060   3.258   4.523
  177POPE   C3717215   4.982   3.444   4.565
  177POPE   H7X17216   4.889   3.435   4.611
  177POPE   H7Y17217   4.954   3.549   4.540
  177POPE   C3817218   5.035   3.456   4.693
  177POPE   H8X17219   4.983   3.550   4.730
  177POPE   H8Y17220   5.137   3.477   4.674
  177POPE   C3917221   5.031   3.331   4.770
  177POPE   H9X17222   5.079   3.377   4.856
  177POPE   H9Y17223   5.086   3.244   4.734
  177POPE  C31017224   4.905   3.278   4.829
  177POPE  H10X17225   4.818   3.227   4.806
  177POPE  H10Y17226   4.846   3.324   4.889
  177POPE  C31117227   4.881   3.223   4.942
  177POPE  H11X17228   4.987   3.267   4.952
  177POPE  H11Y17229   4.929   3.127   4.939
  177POPE  C31217230   4.748   3.284   5.050
  177POPE  H12X17231   4.748   3.205   5.130
  177POPE  H12Y17232   4.668   3.307   4.985
  177POPE  C31317233   4.697   3.333   5.197
  177POPE  H13X17234   4.672   3.439   5.188
  177POPE  H13Y17235   4.771   3.328   5.275
  177POPE  C31417236   4.576   3.272   5.270
  177POPE  H14X17237   4.566   3.162   5.274
  177POPE  H14Y17238   4.486   3.313   5.220
  177POPE  C31517239   4.590   3.318   5.415
  177POPE  H15X17240   4.674   3.262   5.463
  177POPE  H15Y17241   4.502   3.283   5.471
  177POPE  C31617242   4.610   3.470   5.429
  177POPE  H16X17243   4.562   3.504   5.523
  177POPE  H16Y17244   4.559   3.523   5.345
  177POPE  H16Z17245   4.716   3.501   5.429
  178POPE     N17246   5.406   3.947   3.605
  178POPE   HN117247   5.445   3.863   3.654
  178POPE   HN217248   5.407   4.024   3.676
  178POPE   HN317249   5.310   3.926   3.571
  178POPE   C1217250   5.501   3.980   3.493
  178POPE  H12A17251   5.460   4.063   3.433
  178POPE  H12B17252   5.511   3.888   3.431
  178POPE   C1117253   5.638   4.016   3.551
  178POPE  H11A17254   5.635   4.118   3.596
  178POPE  H11B17255   5.709   4.021   3.465
  178POPE     P17256   5.766   3.795   3.611
  178POPE   O1317257   5.899   3.806   3.671
  178POPE   O1417258   5.755   3.775   3.465
  178POPE   O1117259   5.683   3.681   3.677
  178POPE   O1217260   5.675   3.920   3.650
  178POPE    C117261   5.636   3.573   3.597
  178POPE    HA17262   5.713   3.530   3.528
  178POPE    HB17263   5.544   3.601   3.540
  178POPE    C217264   5.600   3.458   3.685
  178POPE    HS17265   5.532   3.391   3.631
  178POPE   O2117266   5.532   3.501   3.805
  178POPE   C2117267   5.454   3.599   3.839
  178POPE   O2217268   5.397   3.676   3.762
  178POPE   C2217269   5.414   3.586   3.994
  178POPE   H2R17270   5.489   3.565   4.069
  178POPE   H2S17271   5.356   3.490   4.007
  178POPE    C317272   5.733   3.375   3.719
  178POPE    HX17273   5.776   3.334   3.628
  178POPE    HY17274   5.707   3.279   3.769
  178POPE   O3117275   5.848   3.439   3.781
  178POPE   C3117276   5.833   3.505   3.893
  178POPE   O3217277   5.728   3.543   3.940
  178POPE   C3217278   5.956   3.533   3.978
  178POPE   H2X17279   6.044   3.477   3.945
  178POPE   H2Y17280   5.973   3.504   4.078
  178POPE   C2317281   5.355   3.711   4.051
  178POPE   H3R17282   5.301   3.765   3.973
  178POPE   H3S17283   5.439   3.777   4.073
  178POPE   C2417284   5.263   3.690   4.169
  178POPE   H4R17285   5.187   3.607   4.157
  178POPE   H4S17286   5.204   3.782   4.190
  178POPE   C2517287   5.324   3.660   4.290
  178POPE   H5R17288   5.398   3.734   4.324
  178POPE   H5S17289   5.379   3.569   4.271
  178POPE   C2617290   5.201   3.642   4.371
  178POPE   H6R17291   5.153   3.547   4.336
  178POPE   H6S17292   5.125   3.718   4.395
  178POPE   C2717293   5.261   3.622   4.491
  178POPE   H7R17294   5.371   3.616   4.486
  178POPE   H7S17295   5.200   3.530   4.510
  178POPE   C2817296   5.249   3.702   4.606
  178POPE   H8R17297   5.311   3.654   4.676
  178POPE   H8S17298   5.145   3.678   4.634
  178POPE   C2917299   5.301   3.838   4.613
  178POPE   H9117300   5.278   3.878   4.516
  178POPE  C21017301   5.371   3.910   4.703
  178POPE  H10117302   5.364   4.017   4.692
  178POPE  C21117303   5.427   3.883   4.839
  178POPE  H11R17304   5.382   3.790   4.863
  178POPE  H11S17305   5.390   3.958   4.912
  178POPE  C21217306   5.561   3.821   4.873
  178POPE  H12R17307   5.641   3.886   4.843
  178POPE  H12S17308   5.563   3.736   4.803
  178POPE  C21317309   5.578   3.771   5.018
  178POPE  H13R17310   5.671   3.715   5.035
  178POPE  H13S17311   5.493   3.710   5.053
  178POPE  C21417312   5.536   3.859   5.129
  178POPE  H14R17313   5.439   3.883   5.083
  178POPE  H14S17314   5.572   3.958   5.132
  178POPE  C21517315   5.540   3.791   5.269
  178POPE  H15R17316   5.492   3.692   5.271
  178POPE  H15S17317   5.478   3.835   5.346
  178POPE  C21617318   5.679   3.810   5.321
  178POPE  H16R17319   5.700   3.915   5.293
  178POPE  H16S17320   5.747   3.742   5.267
  178POPE  C21717321   5.698   3.813   5.472
  178POPE  H17R17322   5.606   3.862   5.515
  178POPE  H17S17323   5.793   3.859   5.500
  178POPE  C21817324   5.714   3.683   5.538
  178POPE  H18R17325   5.769   3.604   5.480
  178POPE  H18S17326   5.607   3.673   5.525
  178POPE  H18T17327   5.707   3.659   5.646
  178POPE   C3317328   5.924   3.679   4.017
  178POPE   H3X17329   5.905   3.721   3.915
  178POPE   H3Y17330   6.019   3.719   4.053
  178POPE   C3417331   5.800   3.727   4.109
  178POPE   H4X17332   5.700   3.686   4.086
  178POPE   H4Y17333   5.789   3.834   4.090
  178POPE   C3517334   5.797   3.713   4.260
  178POPE   H5X17335   5.888   3.750   4.308
  178POPE   H5Y17336   5.772   3.608   4.276
  178POPE   C3617337   5.677   3.741   4.343
  178POPE   H6X17338   5.687   3.682   4.440
  178POPE   H6Y17339   5.593   3.698   4.285
  178POPE   C3717340   5.669   3.889   4.364
  178POPE   H7X17341   5.560   3.907   4.364
  178POPE   H7Y17342   5.715   3.939   4.276
  178POPE   C3817343   5.730   3.932   4.498
  178POPE   H8X17344   5.834   3.895   4.510
  178POPE   H8Y17345   5.667   3.881   4.575
  178POPE   C3917346   5.726   4.082   4.527
  178POPE   H9X17347   5.629   4.126   4.494
  178POPE   H9Y17348   5.808   4.137   4.474
  178POPE  C31017349   5.740   4.107   4.678
  178POPE  H10X17350   5.643   4.087   4.727
  178POPE  H10Y17351   5.766   4.212   4.696
  178POPE  C31117352   5.849   4.024   4.743
  178POPE  H11X17353   5.944   4.035   4.684
  178POPE  H11Y17354   5.823   3.916   4.738
  178POPE  C31217355   5.881   4.060   4.889
  178POPE  H12X17356   5.965   4.132   4.892
  178POPE  H12Y17357   5.910   3.960   4.923
  178POPE  C31317358   5.775   4.106   4.990
  178POPE  H13X17359   5.695   4.029   4.996
  178POPE  H13Y17360   5.733   4.199   4.949
  178POPE  C31417361   5.822   4.136   5.135
  178POPE  H14X17362   5.909   4.205   5.133
  178POPE  H14Y17363   5.847   4.050   5.200
  178POPE  C31517364   5.704   4.187   5.215
  178POPE  H15X17365   5.618   4.122   5.199
  178POPE  H15Y17366   5.685   4.289   5.177
  178POPE  C31617367   5.719   4.189   5.365
  178POPE  H16X17368   5.754   4.097   5.417
  178POPE  H16Y17369   5.621   4.222   5.408
  178POPE  H16Z17370   5.797   4.263   5.377
  179POPE     N17371   3.879   5.901   3.659
  179POPE   HN117372   3.890   5.954   3.568
  179POPE   HN217373   3.959   5.917   3.721
  179POPE   HN317374   3.863   5.800   3.641
  179POPE   C1217375   3.762   5.961   3.731
  179POPE  H12A17376   3.760   5.920   3.834
  179POPE  H12B17377   3.671   5.931   3.674
  179POPE   C1117378   3.776   6.113   3.737
  179POPE  H11A17379   3.854   6.141   3.811
  179POPE  H11B17380   3.681   6.157   3.776
  179POPE     P17381   3.697   6.215   3.511
  179POPE   O1317382   3.648   6.091   3.448
  179POPE   O1417383   3.760   6.318   3.426
  179POPE   O1117384   3.585   6.275   3.608
  179POPE   O1217385   3.812   6.165   3.610
  179POPE    C117386   3.503   6.379   3.554
  179POPE    HA17387   3.433   6.336   3.482
  179POPE    HB17388   3.563   6.457   3.501
  179POPE    C217389   3.415   6.455   3.658
  179POPE    HS17390   3.376   6.547   3.609
  179POPE   O2117391   3.476   6.495   3.779
  179POPE   C2117392   3.577   6.570   3.760
  179POPE   O2217393   3.624   6.607   3.656
  179POPE   C2217394   3.639   6.583   3.890
  179POPE   H2R17395   3.574   6.621   3.971
  179POPE   H2S17396   3.718   6.657   3.879
  179POPE    C317397   3.299   6.369   3.707
  179POPE    HX17398   3.237   6.346   3.618
  179POPE    HY17399   3.247   6.438   3.777
  179POPE   O3117400   3.339   6.248   3.775
  179POPE   C3117401   3.362   6.262   3.907
  179POPE   O3217402   3.325   6.354   3.976
  179POPE   C3217403   3.437   6.139   3.961
  179POPE   H2X17404   3.540   6.141   3.923
  179POPE   H2Y17405   3.383   6.051   3.925
  179POPE   C2317406   3.690   6.439   3.909
  179POPE   H3R17407   3.777   6.412   3.841
  179POPE   H3S17408   3.612   6.364   3.922
  179POPE   C2417409   3.745   6.419   4.041
  179POPE   H4R17410   3.777   6.519   4.017
  179POPE   H4S17411   3.829   6.347   4.044
  179POPE   C2517412   3.664   6.436   4.168
  179POPE   H5R17413   3.599   6.353   4.173
  179POPE   H5S17414   3.618   6.540   4.174
  179POPE   C2617415   3.732   6.400   4.300
  179POPE   H6R17416   3.772   6.490   4.272
  179POPE   H6S17417   3.834   6.362   4.316
  179POPE   C2717418   3.658   6.441   4.427
  179POPE   H7R17419   3.614   6.543   4.415
  179POPE   H7S17420   3.730   6.439   4.513
  179POPE   C2817421   3.562   6.335   4.459
  179POPE   H8R17422   3.628   6.252   4.492
  179POPE   H8S17423   3.520   6.316   4.358
  179POPE   C2917424   3.450   6.363   4.552
  179POPE   H9117425   3.361   6.400   4.498
  179POPE  C21017426   3.450   6.355   4.687
  179POPE  H10117427   3.356   6.372   4.740
  179POPE  C21117428   3.562   6.315   4.779
  179POPE  H11R17429   3.602   6.409   4.825
  179POPE  H11S17430   3.646   6.267   4.724
  179POPE  C21217431   3.522   6.222   4.894
  179POPE  H12R17432   3.476   6.127   4.856
  179POPE  H12S17433   3.445   6.271   4.958
  179POPE  C21317434   3.647   6.185   4.976
  179POPE  H13R17435   3.725   6.153   4.904
  179POPE  H13S17436   3.623   6.095   5.036
  179POPE  C21417437   3.702   6.301   5.063
  179POPE  H14R17438   3.619   6.358   5.110
  179POPE  H14S17439   3.757   6.370   4.995
  179POPE  C21517440   3.804   6.258   5.170
  179POPE  H15R17441   3.890   6.328   5.173
  179POPE  H15S17442   3.837   6.155   5.147
  179POPE  C21617443   3.753   6.256   5.312
  179POPE  H16R17444   3.730   6.360   5.346
  179POPE  H16S17445   3.827   6.212   5.380
  179POPE  C21717446   3.633   6.166   5.319
  179POPE  H17R17447   3.553   6.211   5.256
  179POPE  H17S17448   3.609   6.156   5.427
  179POPE  C21817449   3.638   6.018   5.308
  179POPE  H18R17450   3.717   5.987   5.380
  179POPE  H18S17451   3.659   5.994   5.204
  179POPE  H18T17452   3.540   5.975   5.343
  179POPE   C3317453   3.434   6.131   4.115
  179POPE   H3X17454   3.333   6.165   4.149
  179POPE   H3Y17455   3.507   6.201   4.158
  179POPE   C3417456   3.467   5.994   4.176
  179POPE   H4X17457   3.574   5.968   4.169
  179POPE   H4Y17458   3.423   5.915   4.114
  179POPE   C3517459   3.414   5.977   4.320
  179POPE   H5X17460   3.309   5.943   4.314
  179POPE   H5Y17461   3.412   6.076   4.372
  179POPE   C3617462   3.496   5.878   4.404
  179POPE   H6X17463   3.511   5.782   4.350
  179POPE   H6Y17464   3.441   5.855   4.499
  179POPE   C3717465   3.633   5.933   4.443
  179POPE   H7X17466   3.622   6.032   4.490
  179POPE   H7Y17467   3.696   5.943   4.351
  179POPE   C3817468   3.710   5.837   4.533
  179POPE   H8X17469   3.698   5.736   4.487
  179POPE   H8Y17470   3.667   5.831   4.635
  179POPE   C3917471   3.860   5.866   4.534
  179POPE   H9X17472   3.896   5.883   4.429
  179POPE   H9Y17473   3.907   5.771   4.568
  179POPE  C31017474   3.908   5.988   4.615
  179POPE  H10X17475   3.858   6.080   4.578
  179POPE  H10Y17476   4.018   6.000   4.597
  179POPE  C31117477   3.893   5.980   4.768
  179POPE  H11X17478   3.786   5.984   4.797
  179POPE  H11Y17479   3.943   6.071   4.810
  179POPE  C31217480   3.946   5.851   4.830
  179POPE  H12X17481   4.038   5.816   4.781
  179POPE  H12Y17482   3.880   5.767   4.801
  179POPE  C31317483   3.956   5.857   4.983
  179POPE  H13X17484   3.998   5.760   5.018
  179POPE  H13Y17485   3.855   5.873   5.027
  179POPE  C31417486   4.044   5.968   5.040
  179POPE  H14X17487   4.029   6.068   4.996
  179POPE  H14Y17488   4.142   5.930   5.016
  179POPE  C31517489   4.041   5.978   5.190
  179POPE  H15X17490   4.074   5.881   5.235
  179POPE  H15Y17491   3.938   6.001   5.224
  179POPE  C31617492   4.125   6.084   5.255
  179POPE  H16X17493   4.091   6.190   5.240
  179POPE  H16Y17494   4.235   6.078   5.247
  179POPE  H16Z17495   4.109   6.043   5.354
  180POPE     N17496   1.231   4.669   3.794
  180POPE   HN117497   1.223   4.773   3.782
  180POPE   HN217498   1.136   4.626   3.800
  180POPE   HN317499   1.285   4.648   3.880
  180POPE   C1217500   1.300   4.619   3.669
  180POPE  H12A17501   1.222   4.604   3.591
  180POPE  H12B17502   1.349   4.522   3.692
  180POPE   C1117503   1.400   4.721   3.615
  180POPE  H11A17504   1.466   4.671   3.540
  180POPE  H11B17505   1.466   4.758   3.698
  180POPE     P17506   1.411   4.961   3.511
  180POPE   O1317507   1.317   5.071   3.476
  180POPE   O1417508   1.523   4.929   3.422
  180POPE   O1117509   1.461   4.991   3.656
  180POPE   O1217510   1.330   4.828   3.551
  180POPE    C117511   1.365   5.015   3.757
  180POPE    HA17512   1.281   4.946   3.767
  180POPE    HB17513   1.335   5.124   3.749
  180POPE    C217514   1.441   4.997   3.886
  180POPE    HS17515   1.520   5.072   3.852
  180POPE   O2117516   1.479   4.849   3.946
  180POPE   C2117517   1.590   4.777   4.020
  180POPE   O2217518   1.707   4.795   4.038
  180POPE   C2217519   1.574   4.667   4.098
  180POPE   H2R17520   1.637   4.604   4.029
  180POPE   H2S17521   1.467   4.654   4.103
  180POPE    C317522   1.364   5.081   3.995
  180POPE    HX17523   1.352   5.189   3.968
  180POPE    HY17524   1.415   5.095   4.092
  180POPE   O3117525   1.244   5.018   4.015
  180POPE   C3117526   1.180   5.066   4.117
  180POPE   O3217527   1.220   5.143   4.203
  180POPE   C3217528   1.054   4.994   4.108
  180POPE   H2X17529   1.035   4.960   4.003
  180POPE   H2Y17530   0.978   5.068   4.137
  180POPE   C2317531   1.659   4.686   4.229
  180POPE   H3R17532   1.613   4.763   4.295
  180POPE   H3S17533   1.770   4.710   4.229
  180POPE   C2417534   1.663   4.545   4.273
  180POPE   H4R17535   1.729   4.493   4.199
  180POPE   H4S17536   1.559   4.507   4.265
  180POPE   C2517537   1.714   4.524   4.411
  180POPE   H5R17538   1.823   4.521   4.403
  180POPE   H5S17539   1.681   4.422   4.439
  180POPE   C2617540   1.664   4.625   4.514
  180POPE   H6R17541   1.557   4.652   4.498
  180POPE   H6S17542   1.722   4.719   4.508
  180POPE   C2717543   1.676   4.561   4.652
  180POPE   H7R17544   1.783   4.546   4.673
  180POPE   H7S17545   1.643   4.456   4.649
  180POPE   C2817546   1.600   4.641   4.758
  180POPE   H8R17547   1.496   4.654   4.722
  180POPE   H8S17548   1.642   4.745   4.768
  180POPE   C2917549   1.591   4.563   4.886
  180POPE   H9117550   1.566   4.458   4.877
  180POPE  C21017551   1.605   4.607   5.008
  180POPE  H10117552   1.645   4.532   5.082
  180POPE  C21117553   1.638   4.753   5.033
  180POPE  H11R17554   1.578   4.831   5.082
  180POPE  H11S17555   1.701   4.802   4.953
  180POPE  C21217556   1.722   4.710   5.145
  180POPE  H12R17557   1.748   4.803   5.194
  180POPE  H12S17558   1.802   4.673   5.075
  180POPE  C21317559   1.706   4.667   5.293
  180POPE  H13R17560   1.799   4.661   5.351
  180POPE  H13S17561   1.680   4.563   5.303
  180POPE  C21417562   1.624   4.772   5.373
  180POPE  H14R17563   1.628   4.739   5.479
  180POPE  H14S17564   1.529   4.746   5.322
  180POPE  C21517565   1.651   4.927   5.357
  180POPE  H15R17566   1.668   4.960   5.252
  180POPE  H15S17567   1.733   4.973   5.409
  180POPE  C21617568   1.546   5.019   5.407
  180POPE  H16R17569   1.587   5.122   5.387
  180POPE  H16S17570   1.535   5.005   5.517
  180POPE  C21717571   1.425   4.989   5.324
  180POPE  H17R17572   1.389   4.885   5.341
  180POPE  H17S17573   1.452   4.999   5.216
  180POPE  C21817574   1.315   5.082   5.363
  180POPE  H18R17575   1.287   5.069   5.469
  180POPE  H18S17576   1.229   5.070   5.295
  180POPE  H18T17577   1.358   5.182   5.350
  180POPE   C3317578   1.084   4.880   4.204
  180POPE   H3X17579   1.008   4.807   4.211
  180POPE   H3Y17580   1.082   4.908   4.309
  180POPE   C3417581   1.180   4.774   4.157
  180POPE   H4X17582   1.283   4.800   4.137
  180POPE   H4Y17583   1.141   4.739   4.057
  180POPE   C3517584   1.178   4.664   4.265
  180POPE   H5X17585   1.225   4.577   4.218
  180POPE   H5Y17586   1.069   4.651   4.283
  180POPE   C3617587   1.210   4.683   4.416
  180POPE   H6X17588   1.156   4.778   4.446
  180POPE   H6Y17589   1.316   4.671   4.430
  180POPE   C3717590   1.162   4.579   4.523
  180POPE   H7X17591   1.067   4.589   4.465
  180POPE   H7Y17592   1.118   4.621   4.614
  180POPE   C3817593   1.235   4.430   4.542
  180POPE   H8X17594   1.278   4.375   4.453
  180POPE   H8Y17595   1.168   4.345   4.561
  180POPE   C3917596   1.328   4.379   4.636
  180POPE   H9X17597   1.406   4.438   4.583
  180POPE   H9Y17598   1.335   4.266   4.616
  180POPE  C31017599   1.280   4.418   4.773
  180POPE  H10X17600   1.264   4.527   4.768
  180POPE  H10Y17601   1.364   4.375   4.829
  180POPE  C31117602   1.164   4.347   4.841
  180POPE  H11X17603   1.179   4.241   4.813
  180POPE  H11Y17604   1.064   4.386   4.823
  180POPE  C31217605   1.113   4.359   4.983
  180POPE  H12X17606   1.184   4.307   5.045
  180POPE  H12Y17607   1.016   4.309   4.989
  180POPE  C31317608   1.051   4.488   5.027
  180POPE  H13X17609   1.007   4.468   5.127
  180POPE  H13Y17610   0.964   4.515   4.966
  180POPE  C31417611   1.157   4.593   5.017
  180POPE  H14X17612   1.131   4.667   4.939
  180POPE  H14Y17613   1.250   4.542   4.984
  180POPE  C31517614   1.183   4.655   5.152
  180POPE  H15X17615   1.089   4.702   5.190
  180POPE  H15Y17616   1.258   4.735   5.133
  180POPE  C31617617   1.239   4.556   5.253
  180POPE  H16X17618   1.323   4.497   5.210
  180POPE  H16Y17619   1.161   4.482   5.283
  180POPE  H16Z17620   1.275   4.610   5.342
  181POPE     N17621   4.638   1.246   3.495
  181POPE   HN117622   4.653   1.249   3.393
  181POPE   HN217623   4.630   1.342   3.533
  181POPE   HN317624   4.717   1.193   3.538
  181POPE   C1217625   4.512   1.166   3.517
  181POPE  H12A17626   4.431   1.220   3.463
  181POPE  H12B17627   4.488   1.165   3.625
  181POPE   C1117628   4.523   1.024   3.458
  181POPE  H11A17629   4.544   1.034   3.351
  181POPE  H11B17630   4.424   0.973   3.466
  181POPE     P17631   4.602   0.876   3.654
  181POPE   O1317632   4.700   0.767   3.672
  181POPE   O1417633   4.458   0.860   3.683
  181POPE   O1117634   4.642   1.004   3.734
  181POPE   O1217635   4.627   0.942   3.511
  181POPE    C117636   4.778   1.033   3.747
  181POPE    HA17637   4.795   1.132   3.701
  181POPE    HB17638   4.849   0.963   3.697
  181POPE    C217639   4.813   1.023   3.896
  181POPE    HS17640   4.918   1.041   3.901
  181POPE   O2117641   4.787   0.899   3.956
  181POPE   C2117642   4.867   0.867   4.054
  181POPE   O2217643   4.972   0.918   4.086
  181POPE   C2217644   4.809   0.748   4.124
  181POPE   H2R17645   4.889   0.708   4.190
  181POPE   H2S17646   4.787   0.677   4.043
  181POPE    C317647   4.742   1.131   3.975
  181POPE    HX17648   4.756   1.218   3.910
  181POPE    HY17649   4.806   1.142   4.067
  181POPE   O3117650   4.605   1.112   4.015
  181POPE   C3117651   4.510   1.202   4.000
  181POPE   O3217652   4.496   1.289   3.918
  181POPE   C3217653   4.395   1.177   4.089
  181POPE   H2X17654   4.366   1.074   4.065
  181POPE   H2Y17655   4.326   1.255   4.052
  181POPE   C2317656   4.684   0.787   4.205
  181POPE   H3R17657   4.608   0.828   4.134
  181POPE   H3S17658   4.705   0.866   4.279
  181POPE   C2417659   4.625   0.668   4.281
  181POPE   H4R17660   4.607   0.587   4.208
  181POPE   H4S17661   4.525   0.697   4.321
  181POPE   C2517662   4.714   0.612   4.394
  181POPE   H5R17663   4.806   0.568   4.348
  181POPE   H5S17664   4.659   0.530   4.446
  181POPE   C2617665   4.760   0.709   4.501
  181POPE   H6R17666   4.673   0.759   4.548
  181POPE   H6S17667   4.826   0.785   4.456
  181POPE   C2717668   4.832   0.632   4.612
  181POPE   H7R17669   4.925   0.584   4.574
  181POPE   H7S17670   4.766   0.550   4.649
  181POPE   C2817671   4.858   0.716   4.735
  181POPE   H8R17672   4.894   0.639   4.805
  181POPE   H8S17673   4.765   0.748   4.784
  181POPE   C2917674   4.949   0.833   4.706
  181POPE   H9117675   5.026   0.817   4.632
  181POPE  C21017676   4.945   0.958   4.749
  181POPE  H10117677   5.017   1.029   4.705
  181POPE  C21117678   4.844   1.017   4.841
  181POPE  H11R17679   4.883   1.113   4.882
  181POPE  H11S17680   4.828   0.950   4.928
  181POPE  C21217681   4.712   1.039   4.766
  181POPE  H12R17682   4.670   0.941   4.736
  181POPE  H12S17683   4.729   1.096   4.672
  181POPE  C21317684   4.609   1.110   4.854
  181POPE  H13R17685   4.508   1.098   4.811
  181POPE  H13S17686   4.631   1.219   4.855
  181POPE  C21417687   4.604   1.057   4.999
  181POPE  H14R17688   4.698   1.086   5.050
  181POPE  H14S17689   4.602   0.947   5.001
  181POPE  C21517690   4.479   1.105   5.073
  181POPE  H15R17691   4.392   1.066   5.018
  181POPE  H15S17692   4.471   1.215   5.060
  181POPE  C21617693   4.469   1.052   5.219
  181POPE  H16R17694   4.517   1.105   5.297
  181POPE  H16S17695   4.528   0.962   5.241
  181POPE  C21717696   4.339   1.080   5.291
  181POPE  H17R17697   4.298   1.179   5.256
  181POPE  H17S17698   4.354   1.091   5.402
  181POPE  C21817699   4.258   0.959   5.260
  181POPE  H18R17700   4.152   0.970   5.286
  181POPE  H18S17701   4.303   0.870   5.310
  181POPE  H18T17702   4.263   0.937   5.153
  181POPE   C3317703   4.379   1.209   4.237
  181POPE   H3X17704   4.373   1.320   4.243
  181POPE   H3Y17705   4.448   1.139   4.289
  181POPE   C3417706   4.266   1.216   4.333
  181POPE   H4X17707   4.258   1.110   4.336
  181POPE   H4Y17708   4.178   1.270   4.291
  181POPE   C3517709   4.302   1.249   4.478
  181POPE   H5X17710   4.206   1.272   4.529
  181POPE   H5Y17711   4.343   1.350   4.489
  181POPE   C3617712   4.396   1.142   4.547
  181POPE   H6X17713   4.407   1.171   4.653
  181POPE   H6Y17714   4.493   1.140   4.498
  181POPE   C3717715   4.379   0.989   4.526
  181POPE   H7X17716   4.377   0.970   4.421
  181POPE   H7Y17717   4.286   0.957   4.553
  181POPE   C3817718   4.414   0.872   4.622
  181POPE   H8X17719   4.420   0.921   4.720
  181POPE   H8Y17720   4.517   0.854   4.599
  181POPE   C3917721   4.323   0.739   4.626
  181POPE   H9X17722   4.328   0.677   4.536
  181POPE   H9Y17723   4.211   0.740   4.634
  181POPE  C31017724   4.351   0.655   4.745
  181POPE  H10X17725   4.287   0.563   4.743
  181POPE  H10Y17726   4.338   0.706   4.843
  181POPE  C31117727   4.492   0.620   4.726
  181POPE  H11X17728   4.561   0.699   4.761
  181POPE  H11Y17729   4.515   0.599   4.618
  181POPE  C31217730   4.501   0.492   4.797
  181POPE  H12X17731   4.585   0.460   4.741
  181POPE  H12Y17732   4.431   0.412   4.765
  181POPE  C31317733   4.490   0.501   4.949
  181POPE  H13X17734   4.474   0.394   4.972
  181POPE  H13Y17735   4.393   0.543   4.981
  181POPE  C31417736   4.604   0.575   5.027
  181POPE  H14X17737   4.623   0.675   4.985
  181POPE  H14Y17738   4.702   0.525   5.012
  181POPE  C31517739   4.580   0.584   5.181
  181POPE  H15X17740   4.557   0.485   5.226
  181POPE  H15Y17741   4.492   0.649   5.199
  181POPE  C31617742   4.701   0.640   5.256
  181POPE  H16X17743   4.795   0.603   5.209
  181POPE  H16Y17744   4.701   0.610   5.363
  181POPE  H16Z17745   4.699   0.751   5.251
  182POPE     N17746   1.030   2.462   3.750
  182POPE   HN117747   1.079   2.551   3.727
  182POPE   HN217748   0.979   2.471   3.840
  182POPE   HN317749   1.102   2.385   3.758
  182POPE   C1217750   0.933   2.424   3.641
  182POPE  H12A17751   0.955   2.488   3.555
  182POPE  H12B17752   0.830   2.449   3.676
  182POPE   C1117753   0.950   2.277   3.597
  182POPE  H11A17754   0.857   2.243   3.544
  182POPE  H11B17755   0.959   2.207   3.684
  182POPE     P17756   1.198   2.209   3.545
  182POPE   O1317757   1.291   2.312   3.497
  182POPE   O1417758   1.213   2.073   3.492
  182POPE   O1117759   1.196   2.216   3.704
  182POPE   O1217760   1.056   2.263   3.505
  182POPE    C117761   1.268   2.117   3.780
  182POPE    HA17762   1.351   2.069   3.722
  182POPE    HB17763   1.198   2.038   3.812
  182POPE    C217764   1.329   2.179   3.908
  182POPE    HS17765   1.381   2.101   3.970
  182POPE   O2117766   1.222   2.240   3.983
  182POPE   C2117767   1.222   2.241   4.116
  182POPE   O2217768   1.305   2.190   4.189
  182POPE   C2217769   1.101   2.322   4.157
  182POPE   H2R17770   1.008   2.274   4.118
  182POPE   H2S17771   1.108   2.423   4.111
  182POPE    C317772   1.434   2.282   3.862
  182POPE    HX17773   1.390   2.360   3.796
  182POPE    HY17774   1.518   2.236   3.807
  182POPE   O3117775   1.490   2.338   3.975
  182POPE   C3117776   1.427   2.440   4.013
  182POPE   O3217777   1.340   2.510   3.961
  182POPE   C3217778   1.482   2.451   4.138
  182POPE   H2X17779   1.564   2.399   4.189
  182POPE   H2Y17780   1.425   2.402   4.213
  182POPE   C2317781   1.093   2.336   4.308
  182POPE   H3R17782   1.188   2.372   4.354
  182POPE   H3S17783   1.066   2.238   4.352
  182POPE   C2417784   0.986   2.436   4.345
  182POPE   H4R17785   0.949   2.480   4.249
  182POPE   H4S17786   1.032   2.521   4.400
  182POPE   C2517787   0.872   2.374   4.427
  182POPE   H5R17788   0.822   2.293   4.370
  182POPE   H5S17789   0.786   2.437   4.447
  182POPE   C2617790   0.916   2.330   4.565
  182POPE   H6R17791   1.004   2.264   4.553
  182POPE   H6S17792   0.829   2.273   4.605
  182POPE   C2717793   0.955   2.444   4.661
  182POPE   H7R17794   0.869   2.512   4.668
  182POPE   H7S17795   1.039   2.503   4.618
  182POPE   C2817796   0.994   2.398   4.803
  182POPE   H8R17797   1.009   2.491   4.861
  182POPE   H8S17798   1.094   2.353   4.806
  182POPE   C2917799   0.895   2.300   4.862
  182POPE   H9117800   0.891   2.199   4.823
  182POPE  C21017801   0.800   2.334   4.945
  182POPE  H10117802   0.724   2.266   4.989
  182POPE  C21117803   0.786   2.472   4.984
  182POPE  H11R17804   0.682   2.464   4.970
  182POPE  H11S17805   0.806   2.551   4.909
  182POPE  C21217806   0.841   2.487   5.126
  182POPE  H12R17807   0.943   2.445   5.126
  182POPE  H12S17808   0.782   2.434   5.202
  182POPE  C21317809   0.872   2.626   5.168
  182POPE  H13R17810   0.936   2.627   5.260
  182POPE  H13S17811   0.785   2.698   5.185
  182POPE  C21417812   0.949   2.680   5.061
  182POPE  H14R17813   0.857   2.713   5.011
  182POPE  H14S17814   0.992   2.624   4.983
  182POPE  C21517815   1.041   2.779   5.119
  182POPE  H15R17816   0.979   2.821   5.209
  182POPE  H15S17817   1.059   2.842   5.029
  182POPE  C21617818   1.191   2.789   5.118
  182POPE  H16R17819   1.215   2.703   5.061
  182POPE  H16S17820   1.159   2.751   5.218
  182POPE  C21717821   1.284   2.929   5.102
  182POPE  H17R17822   1.251   3.035   5.122
  182POPE  H17S17823   1.299   2.965   4.999
  182POPE  C21817824   1.404   2.951   5.201
  182POPE  H18R17825   1.396   2.899   5.299
  182POPE  H18S17826   1.413   3.059   5.234
  182POPE  H18T17827   1.489   2.915   5.143
  182POPE   C3317828   1.522   2.579   4.140
  182POPE   H3X17829   1.518   2.673   4.074
  182POPE   H3Y17830   1.609   2.586   4.046
  182POPE   C3417831   1.536   2.573   4.331
  182POPE   H4X17832   1.604   2.656   4.377
  182POPE   H4Y17833   1.619   2.528   4.384
  182POPE   C3517834   1.498   2.662   4.458
  182POPE   H5X17835   1.430   2.580   4.474
  182POPE   H5Y17836   1.466   2.763   4.432
  182POPE   C3617837   1.586   2.661   4.589
  182POPE   H6X17838   1.665   2.740   4.603
  182POPE   H6Y17839   1.631   2.558   4.593
  182POPE   C3717840   1.509   2.668   4.713
  182POPE   H7X17841   1.405   2.651   4.678
  182POPE   H7Y17842   1.523   2.773   4.749
  182POPE   C3817843   1.556   2.556   4.805
  182POPE   H8X17844   1.657   2.563   4.850
  182POPE   H8Y17845   1.555   2.459   4.752
  182POPE   C3917846   1.466   2.564   4.922
  182POPE   H9X17847   1.363   2.553   4.886
  182POPE   H9Y17848   1.479   2.668   4.962
  182POPE  C31017849   1.494   2.456   5.024
  182POPE  H10X17850   1.594   2.467   5.061
  182POPE  H10Y17851   1.506   2.355   4.981
  182POPE  C31117852   1.398   2.469   5.141
  182POPE  H11X17853   1.373   2.573   5.172
  182POPE  H11Y17854   1.435   2.424   5.233
  182POPE  C31217855   1.282   2.380   5.119
  182POPE  H12X17856   1.330   2.280   5.111
  182POPE  H12Y17857   1.237   2.401   5.020
  182POPE  C31317858   1.179   2.402   5.229
  182POPE  H13X17859   1.099   2.326   5.217
  182POPE  H13Y17860   1.137   2.503   5.211
  182POPE  C31417861   1.225   2.410   5.375
  182POPE  H14X17862   1.312   2.474   5.398
  182POPE  H14Y17863   1.262   2.314   5.405
  182POPE  C31517864   1.104   2.443   5.461
  182POPE  H15X17865   1.024   2.368   5.434
  182POPE  H15Y17866   1.069   2.545   5.439
  182POPE  C31617867   1.131   2.430   5.607
  182POPE  H16X17868   1.205   2.351   5.602
  182POPE  H16Y17869   1.041   2.404   5.667
  182POPE  H16Z17870   1.198   2.492   5.665
  183POPE     N17871   6.521   6.176   3.398
  183POPE   HN117872   6.426   6.203   3.365
  183POPE   HN217873   6.591   6.252   3.383
  183POPE   HN317874   6.551   6.088   3.350
  183POPE   C1217875   6.512   6.144   3.544
  183POPE  H12A17876   6.412   6.098   3.562
  183POPE  H12B17877   6.520   6.241   3.599
  183POPE   C1117878   6.623   6.049   3.590
  183POPE  H11A17879   6.623   6.053   3.702
  183POPE  H11B17880   6.721   6.086   3.555
  183POPE     P17881   6.578   5.795   3.643
  183POPE   O1317882   6.542   5.677   3.563
  183POPE   O1417883   6.482   5.846   3.743
  183POPE   O1117884   6.721   5.778   3.709
  183POPE   O1217885   6.603   5.917   3.540
  183POPE    C117886   6.841   5.818   3.643
  183POPE    HA17887   6.826   5.886   3.556
  183POPE    HB17888   6.887   5.731   3.602
  183POPE    C217889   6.952   5.868   3.737
  183POPE    HS17890   7.049   5.863   3.680
  183POPE   O2117891   6.963   5.793   3.859
  183POPE   C2117892   6.992   5.666   3.848
  183POPE   O2217893   7.038   5.614   3.748
  183POPE   C2217894   6.963   5.601   3.985
  183POPE   H2R17895   7.050   5.608   4.048
  183POPE   H2S17896   6.944   5.494   3.968
  183POPE    C317897   6.922   6.013   3.776
  183POPE    HX17898   6.908   6.068   3.680
  183POPE    HY17899   7.011   6.053   3.829
  183POPE   O3117900   6.799   6.022   3.850
  183POPE   C3117901   6.808   6.022   3.983
  183POPE   O3217902   6.911   6.041   4.046
  183POPE   C3217903   6.667   5.998   4.043
  183POPE   H2X17904   6.627   5.903   4.003
  183POPE   H2Y17905   6.600   6.080   4.008
  183POPE   C2317906   6.859   5.672   4.074
  183POPE   H3R17907   6.764   5.659   4.019
  183POPE   H3S17908   6.879   5.781   4.086
  183POPE   C2417909   6.843   5.612   4.215
  183POPE   H4R17910   6.863   5.502   4.213
  183POPE   H4S17911   6.739   5.632   4.247
  183POPE   C2517912   6.923   5.680   4.326
  183POPE   H5R17913   6.945   5.786   4.301
  183POPE   H5S17914   7.011   5.618   4.330
  183POPE   C2617915   6.887   5.658   4.472
  183POPE   H6R17916   6.888   5.547   4.489
  183POPE   H6S17917   6.784   5.694   4.487
  183POPE   C2717918   6.989   5.731   4.564
  183POPE   H7R17919   7.015   5.829   4.519
  183POPE   H7S17920   7.088   5.683   4.570
  183POPE   C2817921   6.940   5.737   4.709
  183POPE   H8R17922   7.023   5.722   4.782
  183POPE   H8S17923   6.871   5.651   4.722
  183POPE   C2917924   6.876   5.868   4.741
  183POPE   H9117925   6.942   5.950   4.771
  183POPE  C21017926   6.744   5.885   4.744
  183POPE  H10117927   6.706   5.984   4.770
  183POPE  C21117928   6.644   5.777   4.717
  183POPE  H11R17929   6.678   5.679   4.755
  183POPE  H11S17930   6.623   5.770   4.609
  183POPE  C21217931   6.513   5.801   4.786
  183POPE  H12R17932   6.440   5.720   4.762
  183POPE  H12S17933   6.467   5.897   4.751
  183POPE  C21317934   6.533   5.801   4.936
  183POPE  H13R17935   6.435   5.833   4.965
  183POPE  H13S17936   6.588   5.886   4.979
  183POPE  C21417937   6.568   5.662   4.999
  183POPE  H14R17938   6.661   5.621   4.961
  183POPE  H14S17939   6.484   5.592   4.971
  183POPE  C21517940   6.573   5.663   5.153
  183POPE  H15R17941   6.517   5.580   5.203
  183POPE  H15S17942   6.512   5.752   5.146
  183POPE  C21617943   6.669   5.736   5.250
  183POPE  H16R17944   6.755   5.669   5.254
  183POPE  H16S17945   6.620   5.744   5.351
  183POPE  C21717946   6.711   5.881   5.218
  183POPE  H17R17947   6.738   5.890   5.111
  183POPE  H17S17948   6.803   5.901   5.277
  183POPE  C21817949   6.610   5.990   5.256
  183POPE  H18R17950   6.525   5.987   5.185
  183POPE  H18S17951   6.655   6.091   5.252
  183POPE  H18T17952   6.570   5.972   5.359
  183POPE   C3317953   6.663   5.988   4.197
  183POPE   H3X17954   6.748   5.932   4.241
  183POPE   H3Y17955   6.564   5.952   4.234
  183POPE   C3417956   6.678   6.123   4.255
  183POPE   H4X17957   6.590   6.176   4.212
  183POPE   H4Y17958   6.770   6.158   4.203
  183POPE   C3517959   6.691   6.125   4.409
  183POPE   H5X17960   6.761   6.049   4.445
  183POPE   H5Y17961   6.588   6.126   4.454
  183POPE   C3617962   6.767   6.238   4.476
  183POPE   H6X17963   6.689   6.302   4.435
  183POPE   H6Y17964   6.861   6.275   4.431
  183POPE   C3717965   6.788   6.241   4.630
  183POPE   H7X17966   6.838   6.328   4.680
  183POPE   H7Y17967   6.869   6.176   4.653
  183POPE   C3817968   6.657   6.223   4.700
  183POPE   H8X17969   6.628   6.120   4.686
  183POPE   H8Y17970   6.569   6.276   4.660
  183POPE   C3917971   6.662   6.272   4.839
  183POPE   H9X17972   6.645   6.380   4.849
  183POPE   H9Y17973   6.763   6.272   4.884
  183POPE  C31017974   6.545   6.218   4.917
  183POPE  H10X17975   6.553   6.308   4.972
  183POPE  H10Y17976   6.573   6.140   4.983
  183POPE  C31117977   6.398   6.220   4.864
  183POPE  H11X17978   6.400   6.206   4.758
  183POPE  H11Y17979   6.404   6.323   4.866
  183POPE  C31217980   6.257   6.216   4.944
  183POPE  H12X17981   6.181   6.295   4.929
  183POPE  H12Y17982   6.241   6.256   5.047
  183POPE  C31317983   6.286   6.111   5.039
  183POPE  H13X17984   6.392   6.094   5.061
  183POPE  H13Y17985   6.272   6.046   4.955
  183POPE  C31417986   6.192   6.093   5.160
  183POPE  H14X17987   6.208   5.995   5.203
  183POPE  H14Y17988   6.089   6.118   5.129
  183POPE  C31517989   6.228   6.150   5.293
  183POPE  H15X17990   6.215   6.260   5.285
  183POPE  H15Y17991   6.329   6.108   5.320
  183POPE  C31617992   6.156   6.099   5.413
  183POPE  H16X17993   6.193   5.995   5.430
  183POPE  H16Y17994   6.048   6.102   5.389
  183POPE  H16Z17995   6.185   6.164   5.499
  184POPE     N17996   4.468  -0.179   3.577
  184POPE   HN117997   4.528  -0.147   3.496
  184POPE   HN217998   4.543  -0.185   3.648
  184POPE   HN317999   4.426  -0.269   3.543
  184POPE   C1218000   4.372  -0.059   3.598
  184POPE  H12A18001   4.284  -0.090   3.655
  184POPE  H12B18002   4.321  -0.029   3.504
  184POPE   C1118003   4.453   0.066   3.647
  184POPE  H11A18004   4.483   0.040   3.750
  184POPE  H11B18005   4.379   0.150   3.648
  184POPE     P18006   4.627   0.259   3.601
  184POPE   O1318007   4.544   0.319   3.705
  184POPE   O1418008   4.650   0.326   3.472
  184POPE   O1118009   4.772   0.248   3.657
  184POPE   O1218010   4.574   0.104   3.574
  184POPE    C118011   4.879   0.171   3.609
  184POPE    HA18012   4.945   0.230   3.542
  184POPE    HB18013   4.843   0.079   3.555
  184POPE    C218014   4.960   0.129   3.730
  184POPE    HS18015   5.046   0.072   3.685
  184POPE   O2118016   4.863   0.060   3.807
  184POPE   C2118017   4.909  -0.048   3.848
  184POPE   O2218018   5.017  -0.093   3.813
  184POPE   C2218019   4.791  -0.119   3.927
  184POPE   H2R18020   4.787  -0.229   3.900
  184POPE   H2S18021   4.713  -0.045   3.949
  184POPE    C318022   5.022   0.236   3.823
  184POPE    HX18023   5.091   0.296   3.762
  184POPE    HY18024   5.086   0.188   3.900
  184POPE   O3118025   4.924   0.323   3.882
  184POPE   C3118026   4.879   0.287   4.002
  184POPE   O3218027   4.906   0.185   4.063
  184POPE   C3218028   4.803   0.404   4.058
  184POPE   H2X18029   4.794   0.483   3.980
  184POPE   H2Y18030   4.859   0.448   4.144
  184POPE   C2318031   4.807  -0.134   4.082
  184POPE   H3R18032   4.840  -0.036   4.110
  184POPE   H3S18033   4.894  -0.182   4.041
  184POPE   C2418034   4.719  -0.144   4.225
  184POPE   H4R18035   4.695  -0.244   4.185
  184POPE   H4S18036   4.668  -0.055   4.200
  184POPE   C2518037   4.747  -0.131   4.398
  184POPE   H5R18038   4.790  -0.223   4.443
  184POPE   H5S18039   4.678  -0.169   4.475
  184POPE   C2618040   4.848  -0.020   4.463
  184POPE   H6R18041   4.788   0.069   4.456
  184POPE   H6S18042   4.935   0.017   4.405
  184POPE   C2718043   4.924  -0.036   4.598
  184POPE   H7R18044   5.015  -0.106   4.597
  184POPE   H7S18045   4.857  -0.070   4.676
  184POPE   C2818046   4.983   0.104   4.637
  184POPE   H8R18047   5.064   0.071   4.590
  184POPE   H8S18048   5.028   0.117   4.737
  184POPE   C2918049   4.960   0.232   4.560
  184POPE   H9118050   5.034   0.275   4.492
  184POPE  C21018051   4.853   0.301   4.584
  184POPE  H10118052   4.837   0.396   4.532
  184POPE  C21118053   4.761   0.246   4.687
  184POPE  H11R18054   4.786   0.144   4.725
  184POPE  H11S18055   4.662   0.228   4.644
  184POPE  C21218056   4.767   0.318   4.821
  184POPE  H12R18057   4.733   0.418   4.810
  184POPE  H12S18058   4.864   0.354   4.856
  184POPE  C21318059   4.688   0.232   4.921
  184POPE  H13R18060   4.742   0.135   4.923
  184POPE  H13S18061   4.585   0.214   4.882
  184POPE  C21418062   4.689   0.286   5.064
  184POPE  H14R18063   4.612   0.357   5.079
  184POPE  H14S18064   4.780   0.342   5.088
  184POPE  C21518065   4.629   0.206   5.176
  184POPE  H15R18066   4.534   0.157   5.147
  184POPE  H15S18067   4.606   0.275   5.262
  184POPE  C21618068   4.730   0.105   5.209
  184POPE  H16R18069   4.832   0.138   5.212
  184POPE  H16S18070   4.739   0.035   5.124
  184POPE  C21718071   4.704   0.043   5.339
  184POPE  H17R18072   4.595   0.025   5.352
  184POPE  H17S18073   4.743   0.098   5.429
  184POPE  C21818074   4.767  -0.089   5.320
  184POPE  H18R18075   4.875  -0.098   5.344
  184POPE  H18S18076   4.741  -0.142   5.227
  184POPE  H18T18077   4.703  -0.134   5.395
  184POPE   C3318078   4.665   0.355   4.099
  184POPE   H3X18079   4.626   0.273   4.035
  184POPE   H3Y18080   4.593   0.438   4.083
  184POPE   C3418081   4.670   0.311   4.245
  184POPE   H4X18082   4.700   0.396   4.305
  184POPE   H4Y18083   4.747   0.234   4.264
  184POPE   C3518084   4.539   0.263   4.298
  184POPE   H5X18085   4.453   0.309   4.244
  184POPE   H5Y18086   4.532   0.296   4.404
  184POPE   C3618087   4.544   0.112   4.295
  184POPE   H6X18088   4.632   0.071   4.342
  184POPE   H6Y18089   4.525   0.068   4.192
  184POPE   C3718090   4.446   0.053   4.384
  184POPE   H7X18091   4.439  -0.058   4.390
  184POPE   H7Y18092   4.376   0.094   4.313
  184POPE   C3818093   4.410   0.123   4.510
  184POPE   H8X18094   4.369   0.227   4.499
  184POPE   H8Y18095   4.491   0.105   4.583
  184POPE   C3918096   4.302   0.058   4.577
  184POPE   H9X18097   4.301  -0.052   4.572
  184POPE   H9Y18098   4.211   0.106   4.532
  184POPE  C31018099   4.321   0.085   4.718
  184POPE  H10X18100   4.218   0.105   4.723
  184POPE  H10Y18101   4.340   0.189   4.746
  184POPE  C31118102   4.383  -0.034   4.796
  184POPE  H11X18103   4.479  -0.056   4.750
  184POPE  H11Y18104   4.345  -0.138   4.778
  184POPE  C31218105   4.368  -0.018   4.949
  184POPE  H12X18106   4.385   0.089   4.972
  184POPE  H12Y18107   4.440  -0.090   4.992
  184POPE  C31318108   4.262  -0.078   5.047
  184POPE  H13X18109   4.233  -0.183   5.038
  184POPE  H13Y18110   4.146  -0.060   5.041
  184POPE  C31418111   4.333  -0.024   5.171
  184POPE  H14X18112   4.252   0.025   5.141
  184POPE  H14Y18113   4.305   0.072   5.215
  184POPE  C31518114   4.346  -0.135   5.272
  184POPE  H15X18115   4.444  -0.164   5.234
  184POPE  H15Y18116   4.299  -0.227   5.249
  184POPE  C31618117   4.313  -0.122   5.421
  184POPE  H16X18118   4.341  -0.026   5.457
  184POPE  H16Y18119   4.364  -0.201   5.479
  184POPE  H16Z18120   4.204  -0.125   5.449
  185POPE     N18121   0.155   1.743   3.794
  185POPE   HN118122   0.165   1.791   3.885
  185POPE   HN218123   0.092   1.660   3.807
  185POPE   HN318124   0.248   1.709   3.764
  185POPE   C1218125   0.102   1.846   3.696
  185POPE  H12A18126   0.021   1.902   3.748
  185POPE  H12B18127   0.063   1.794   3.607
  185POPE   C1118128   0.207   1.951   3.652
  185POPE  H11A18129   0.249   2.004   3.740
  185POPE  H11B18130   0.153   2.026   3.589
  185POPE     P18131   0.422   1.985   3.509
  185POPE   O1318132   0.420   1.970   3.361
  185POPE   O1418133   0.544   1.958   3.586
  185POPE   O1118134   0.374   2.133   3.542
  185POPE   O1218135   0.309   1.891   3.574
  185POPE    C118136   0.474   2.237   3.532
  185POPE    HA18137   0.441   2.314   3.459
  185POPE    HB18138   0.575   2.201   3.499
  185POPE    C218139   0.506   2.308   3.666
  185POPE    HS18140   0.596   2.374   3.651
  185POPE   O2118141   0.512   2.220   3.777
  185POPE   C2118142   0.633   2.180   3.798
  185POPE   O2218143   0.733   2.219   3.742
  185POPE   C2218144   0.633   2.096   3.924
  185POPE   H2R18145   0.735   2.054   3.934
  185POPE   H2S18146   0.560   2.014   3.912
  185POPE    C318147   0.401   2.404   3.701
  185POPE    HX18148   0.397   2.468   3.610
  185POPE    HY18149   0.438   2.468   3.786
  185POPE   O3118150   0.271   2.347   3.726
  185POPE   C3118151   0.218   2.358   3.846
  185POPE   O3218152   0.265   2.406   3.947
  185POPE   C3218153   0.082   2.287   3.837
  185POPE   H2X18154   0.090   2.204   3.764
  185POPE   H2Y18155   0.007   2.358   3.794
  185POPE   C2318156   0.591   2.185   4.042
  185POPE   H3R18157   0.482   2.209   4.031
  185POPE   H3S18158   0.650   2.279   4.033
  185POPE   C2418159   0.623   2.133   4.182
  185POPE   H4R18160   0.618   2.218   4.254
  185POPE   H4S18161   0.729   2.099   4.182
  185POPE   C2518162   0.525   2.025   4.227
  185POPE   H5R18163   0.543   1.934   4.167
  185POPE   H5S18164   0.421   2.060   4.205
  185POPE   C2618165   0.535   1.990   4.377
  185POPE   H6R18166   0.633   1.941   4.396
  185POPE   H6S18167   0.455   1.917   4.400
  185POPE   C2718168   0.520   2.112   4.471
  185POPE   H7R18169   0.444   2.179   4.425
  185POPE   H7S18170   0.616   2.168   4.476
  185POPE   C2818171   0.474   2.078   4.615
  185POPE   H8R18172   0.368   2.044   4.611
  185POPE   H8S18173   0.470   2.167   4.679
  185POPE   C2918174   0.566   1.981   4.682
  185POPE   H9118175   0.672   2.011   4.689
  185POPE  C21018176   0.527   1.867   4.738
  185POPE  H10118177   0.601   1.804   4.789
  185POPE  C21118178   0.385   1.816   4.743
  185POPE  H11R18179   0.359   1.755   4.654
  185POPE  H11S18180   0.309   1.897   4.748
  185POPE  C21218181   0.373   1.729   4.867
  185POPE  H12R18182   0.468   1.677   4.896
  185POPE  H12S18183   0.303   1.648   4.844
  185POPE  C21318184   0.320   1.805   4.987
  185POPE  H13R18185   0.301   1.729   5.067
  185POPE  H13S18186   0.221   1.852   4.963
  185POPE  C21418187   0.420   1.909   5.037
  185POPE  H14R18188   0.428   1.991   4.963
  185POPE  H14S18189   0.522   1.866   5.045
  185POPE  C21518190   0.376   1.969   5.171
  185POPE  H15R18191   0.282   2.026   5.152
  185POPE  H15S18192   0.457   2.037   5.204
  185POPE  C21618193   0.346   1.870   5.285
  185POPE  H16R18194   0.262   1.802   5.258
  185POPE  H16S18195   0.311   1.932   5.370
  185POPE  C21718196   0.468   1.785   5.323
  185POPE  H17R18197   0.562   1.839   5.302
  185POPE  H17S18198   0.463   1.695   5.258
  185POPE  C21818199   0.475   1.735   5.466
  185POPE  H18R18200   0.427   1.640   5.458
  185POPE  H18S18201   0.405   1.777   5.534
  185POPE  H18T18202   0.571   1.734   5.521
  185POPE   C3318203   0.031   2.237   3.973
  185POPE   H3X18204  -0.076   2.209   3.961
  185POPE   H3Y18205   0.037   2.318   4.049
  185POPE   C3418206   0.109   2.115   4.025
  185POPE   H4X18207   0.214   2.147   4.041
  185POPE   H4Y18208   0.109   2.036   3.946
  185POPE   C3518209   0.052   2.057   4.156
  185POPE   H5X18210   0.093   1.955   4.173
  185POPE   H5Y18211  -0.059   2.046   4.147
  185POPE   C3618212   0.087   2.141   4.281
  185POPE   H6X18213   0.042   2.243   4.273
  185POPE   H6Y18214   0.197   2.156   4.285
  185POPE   C3718215   0.045   2.076   4.414
  185POPE   H7X18216   0.107   1.986   4.432
  185POPE   H7Y18217  -0.061   2.044   4.413
  185POPE   C3818218   0.068   2.169   4.533
  185POPE   H8X18219   0.001   2.258   4.525
  185POPE   H8Y18220   0.173   2.204   4.533
  185POPE   C3918221   0.045   2.096   4.665
  185POPE   H9X18222   0.133   2.030   4.682
  185POPE   H9Y18223  -0.046   2.032   4.657
  185POPE  C31018224   0.029   2.192   4.783
  185POPE  H10X18225  -0.071   2.242   4.776
  185POPE  H10Y18226   0.109   2.269   4.778
  185POPE  C31118227   0.041   2.124   4.919
  185POPE  H11X18228   0.043   2.201   4.998
  185POPE  H11Y18229   0.137   2.069   4.924
  185POPE  C31218230  -0.077   2.028   4.943
  185POPE  H12X18231  -0.062   1.941   4.876
  185POPE  H12Y18232  -0.172   2.078   4.913
  185POPE  C31318233  -0.085   1.989   5.092
  185POPE  H13X18234  -0.092   2.084   5.150
  185POPE  H13Y18235   0.012   1.942   5.118
  185POPE  C31418236  -0.204   1.901   5.132
  185POPE  H14X18237  -0.206   1.805   5.075
  185POPE  H14Y18238  -0.298   1.955   5.108
  185POPE  C31518239  -0.208   1.868   5.283
  185POPE  H15X18240  -0.298   1.806   5.302
  185POPE  H15Y18241  -0.226   1.963   5.336
  185POPE  C31618242  -0.085   1.796   5.343
  185POPE  H16X18243  -0.077   1.694   5.299
  185POPE  H16Y18244  -0.095   1.785   5.453
  185POPE  H16Z18245   0.010   1.851   5.325
  186POPE     N18246   1.637   8.001   3.565
  186POPE   HN118247   1.691   7.912   3.577
  186POPE   HN218248   1.581   7.973   3.482
  186POPE   HN318249   1.691   8.083   3.531
  186POPE   C1218250   1.526   8.034   3.656
  186POPE  H12A18251   1.577   8.055   3.753
  186POPE  H12B18252   1.462   7.943   3.663
  186POPE   C1118253   1.447   8.156   3.605
  186POPE  H11A18254   1.403   8.208   3.692
  186POPE  H11B18255   1.356   8.133   3.549
  186POPE     P18256   1.618   8.352   3.586
  186POPE   O1318257   1.610   8.482   3.516
  186POPE   O1418258   1.749   8.284   3.595
  186POPE   O1118259   1.559   8.360   3.732
  186POPE   O1218260   1.524   8.242   3.520
  186POPE    C118261   1.617   8.439   3.836
  186POPE    HA18262   1.559   8.534   3.843
  186POPE    HB18263   1.723   8.467   3.815
  186POPE    C218264   1.611   8.368   3.975
  186POPE    HS18265   1.645   8.442   4.051
  186POPE   O2118266   1.700   8.255   3.974
  186POPE   C2118267   1.723   8.186   4.084
  186POPE   O2218268   1.698   8.220   4.198
  186POPE   C2218269   1.783   8.052   4.040
  186POPE   H2R18270   1.891   8.067   4.017
  186POPE   H2S18271   1.733   8.022   3.946
  186POPE    C318272   1.464   8.325   4.009
  186POPE    HX18273   1.398   8.412   3.987
  186POPE    HY18274   1.454   8.305   4.118
  186POPE   O3118275   1.427   8.208   3.932
  186POPE   C3118276   1.301   8.173   3.949
  186POPE   O3218277   1.219   8.237   4.011
  186POPE   C3218278   1.271   8.048   3.865
  186POPE   H2X18279   1.368   8.001   3.841
  186POPE   H2Y18280   1.220   8.082   3.772
  186POPE   C2318281   1.766   7.936   4.141
  186POPE   H3R18282   1.828   7.961   4.229
  186POPE   H3S18283   1.809   7.846   4.092
  186POPE   C2418284   1.620   7.905   4.183
  186POPE   H4R18285   1.557   7.893   4.092
  186POPE   H4S18286   1.578   7.991   4.239
  186POPE   C2518287   1.595   7.775   4.267
  186POPE   H5R18288   1.612   7.688   4.200
  186POPE   H5S18289   1.494   7.778   4.309
  186POPE   C2618290   1.681   7.751   4.389
  186POPE   H6R18291   1.767   7.738   4.330
  186POPE   H6S18292   1.677   7.653   4.440
  186POPE   C2718293   1.677   7.870   4.483
  186POPE   H7R18294   1.580   7.872   4.531
  186POPE   H7S18295   1.702   7.965   4.430
  186POPE   C2818296   1.772   7.873   4.596
  186POPE   H8R18297   1.797   7.973   4.634
  186POPE   H8S18298   1.843   7.820   4.541
  186POPE   C2918299   1.802   7.783   4.697
  186POPE   H9118300   1.865   7.695   4.682
  186POPE  C21018301   1.732   7.803   4.799
  186POPE  H10118302   1.658   7.727   4.786
  186POPE  C21118303   1.632   7.898   4.840
  186POPE  H11R18304   1.548   7.846   4.891
  186POPE  H11S18305   1.594   7.949   4.751
  186POPE  C21218306   1.724   7.979   4.929
  186POPE  H12R18307   1.672   8.076   4.930
  186POPE  H12S18308   1.826   7.998   4.886
  186POPE  C21318309   1.754   7.936   5.074
  186POPE  H13R18310   1.809   7.839   5.081
  186POPE  H13S18311   1.658   7.930   5.128
  186POPE  C21418312   1.841   8.045   5.138
  186POPE  H14R18313   1.779   8.137   5.140
  186POPE  H14S18314   1.932   8.060   5.077
  186POPE  C21518315   1.892   8.012   5.276
  186POPE  H15R18316   1.956   8.093   5.320
  186POPE  H15S18317   1.954   7.920   5.272
  186POPE  C21618318   1.774   7.983   5.360
  186POPE  H16R18319   1.803   7.972   5.458
  186POPE  H16S18320   1.721   7.888   5.344
  186POPE  C21718321   1.693   8.096   5.407
  186POPE  H17R18322   1.634   8.135   5.323
  186POPE  H17S18323   1.757   8.178   5.450
  186POPE  C21818324   1.604   8.027   5.509
  186POPE  H18R18325   1.514   8.084   5.517
  186POPE  H18S18326   1.633   8.018   5.617
  186POPE  H18T18327   1.518   7.984   5.466
  186POPE   C3318328   1.186   7.941   3.935
  186POPE   H3X18329   1.173   7.851   3.871
  186POPE   H3Y18330   1.085   7.980   3.947
  186POPE   C3418331   1.239   7.900   4.073
  186POPE   H4X18332   1.258   7.991   4.134
  186POPE   H4Y18333   1.334   7.845   4.059
  186POPE   C3518334   1.141   7.810   4.151
  186POPE   H5X18335   1.115   7.723   4.087
  186POPE   H5Y18336   1.045   7.858   4.175
  186POPE   C3618337   1.192   7.765   4.288
  186POPE   H6X18338   1.288   7.713   4.272
  186POPE   H6Y18339   1.118   7.694   4.334
  186POPE   C3718340   1.220   7.879   4.388
  186POPE   H7X18341   1.127   7.937   4.400
  186POPE   H7Y18342   1.298   7.945   4.346
  186POPE   C3818343   1.270   7.820   4.521
  186POPE   H8X18344   1.339   7.739   4.491
  186POPE   H8Y18345   1.183   7.771   4.571
  186POPE   C3918346   1.360   7.908   4.614
  186POPE   H9X18347   1.430   7.975   4.559
  186POPE   H9Y18348   1.396   7.850   4.701
  186POPE  C31018349   1.281   8.008   4.685
  186POPE  H10X18350   1.200   7.935   4.705
  186POPE  H10Y18351   1.273   8.075   4.600
  186POPE  C31118352   1.311   8.105   4.802
  186POPE  H11X18353   1.233   8.187   4.812
  186POPE  H11Y18354   1.402   8.161   4.783
  186POPE  C31218355   1.299   8.025   4.930
  186POPE  H12X18356   1.345   7.927   4.909
  186POPE  H12Y18357   1.195   8.002   4.956
  186POPE  C31318358   1.359   8.096   5.047
  186POPE  H13X18359   1.310   8.195   5.061
  186POPE  H13Y18360   1.464   8.112   5.019
  186POPE  C31418361   1.359   8.007   5.172
  186POPE  H14X18362   1.436   8.049   5.241
  186POPE  H14Y18363   1.384   7.903   5.148
  186POPE  C31518364   1.228   7.996   5.244
  186POPE  H15X18365   1.223   7.917   5.318
  186POPE  H15Y18366   1.137   7.998   5.180
  186POPE  C31618367   1.225   8.112   5.328
  186POPE  H16X18368   1.224   8.191   5.248
  186POPE  H16Y18369   1.309   8.134   5.396
  186POPE  H16Z18370   1.130   8.111   5.387
  187POPE     N18371   8.007   5.520   3.494
  187POPE   HN118372   8.095   5.534   3.440
  187POPE   HN218373   8.033   5.510   3.594
  187POPE   HN318374   7.957   5.434   3.462
  187POPE   C1218375   7.923   5.645   3.482
  187POPE  H12A18376   7.816   5.618   3.482
  187POPE  H12B18377   7.949   5.695   3.386
  187POPE   C1118378   7.950   5.740   3.599
  187POPE  H11A18379   7.914   5.694   3.694
  187POPE  H11B18380   7.889   5.833   3.583
  187POPE     P18381   8.160   5.904   3.628
  187POPE   O1318382   8.176   5.962   3.493
  187POPE   O1418383   8.275   5.894   3.718
  187POPE   O1118384   8.043   5.977   3.692
  187POPE   O1218385   8.091   5.762   3.610
  187POPE    C118386   8.070   6.110   3.723
  187POPE    HA18387   8.042   6.179   3.639
  187POPE    HB18388   8.173   6.140   3.756
  187POPE    C218389   7.982   6.132   3.840
  187POPE    HS18390   8.014   6.238   3.845
  187POPE   O2118391   8.015   6.076   3.966
  187POPE   C2118392   8.101   6.154   4.032
  187POPE   O2218393   8.158   6.254   3.992
  187POPE   C2218394   8.084   6.122   4.177
  187POPE   H2R18395   8.108   6.213   4.235
  187POPE   H2S18396   8.161   6.043   4.186
  187POPE    C318397   7.831   6.086   3.792
  187POPE    HX18398   7.833   5.991   3.743
  187POPE    HY18399   7.772   6.147   3.718
  187POPE   O3118400   7.745   6.086   3.899
  187POPE   C3118401   7.650   6.002   3.901
  187POPE   O3218402   7.598   5.942   3.809
  187POPE   C3218403   7.609   6.014   4.040
  187POPE   H2X18404   7.528   6.087   4.020
  187POPE   H2Y18405   7.692   6.051   4.104
  187POPE   C2318406   7.946   6.069   4.220
  187POPE   H3R18407   7.925   5.973   4.168
  187POPE   H3S18408   7.865   6.136   4.189
  187POPE   C2418409   7.938   6.051   4.371
  187POPE   H4R18410   7.842   6.003   4.400
  187POPE   H4S18411   7.943   6.150   4.423
  187POPE   C2518412   8.055   5.968   4.422
  187POPE   H5R18413   8.152   6.017   4.401
  187POPE   H5S18414   8.056   5.870   4.368
  187POPE   C2618415   8.051   5.953   4.572
  187POPE   H6R18416   8.043   6.047   4.628
  187POPE   H6S18417   8.144   5.897   4.603
  187POPE   C2718418   7.929   5.888   4.629
  187POPE   H7R18419   7.829   5.934   4.615
  187POPE   H7S18420   7.973   5.893   4.736
  187POPE   C2818421   7.903   5.765   4.560
  187POPE   H8R18422   8.001   5.741   4.514
  187POPE   H8S18423   7.839   5.739   4.470
  187POPE   C2918424   7.864   5.713   4.697
  187POPE   H9118425   7.775   5.659   4.661
  187POPE  C21018426   7.952   5.647   4.783
  187POPE  H10118427   7.922   5.562   4.836
  187POPE  C21118428   8.094   5.597   4.790
  187POPE  H11R18429   8.174   5.616   4.717
  187POPE  H11S18430   8.106   5.485   4.770
  187POPE  C21218431   8.089   5.657   4.925
  187POPE  H12R18432   8.075   5.765   4.932
  187POPE  H12S18433   8.197   5.658   4.920
  187POPE  C21318434   8.003   5.584   5.037
  187POPE  H13R18435   8.035   5.486   5.041
  187POPE  H13S18436   7.899   5.551   5.025
  187POPE  C21418437   8.001   5.632   5.173
  187POPE  H14R18438   7.948   5.559   5.242
  187POPE  H14S18439   7.961   5.728   5.161
  187POPE  C21518440   8.136   5.672   5.207
  187POPE  H15R18441   8.212   5.692   5.132
  187POPE  H15S18442   8.146   5.571   5.238
  187POPE  C21618443   8.158   5.735   5.333
  187POPE  H16R18444   8.077   5.809   5.353
  187POPE  H16S18445   8.263   5.772   5.352
  187POPE  C21718446   8.146   5.621   5.426
  187POPE  H17R18447   8.240   5.569   5.460
  187POPE  H17S18448   8.058   5.552   5.411
  187POPE  C21818449   8.117   5.681   5.530
  187POPE  H18R18450   8.151   5.789   5.526
  187POPE  H18S18451   8.170   5.650   5.618
  187POPE  H18T18452   8.008   5.664   5.552
  187POPE   C3318453   7.560   5.891   4.105
  187POPE   H3X18454   7.646   5.821   4.102
  187POPE   H3Y18455   7.479   5.876   4.031
  187POPE   C3418456   7.486   5.871   4.237
  187POPE   H4X18457   7.448   5.767   4.232
  187POPE   H4Y18458   7.396   5.929   4.242
  187POPE   C3518459   7.562   5.882   4.364
  187POPE   H5X18460   7.590   5.987   4.387
  187POPE   H5Y18461   7.659   5.830   4.352
  187POPE   C3618462   7.475   5.823   4.476
  187POPE   H6X18463   7.447   5.719   4.454
  187POPE   H6Y18464   7.380   5.877   4.483
  187POPE   C3718465   7.547   5.841   4.607
  187POPE   H7X18466   7.568   5.950   4.610
  187POPE   H7Y18467   7.642   5.786   4.601
  187POPE   C3818468   7.473   5.799   4.734
  187POPE   H8X18469   7.520   5.711   4.782
  187POPE   H8Y18470   7.368   5.772   4.708
  187POPE   C3918471   7.466   5.910   4.838
  187POPE   H9X18472   7.424   5.863   4.930
  187POPE   H9Y18473   7.393   5.981   4.795
  187POPE  C31018474   7.593   5.988   4.876
  187POPE  H10X18475   7.569   6.077   4.939
  187POPE  H10Y18476   7.641   6.029   4.785
  187POPE  C31118477   7.690   5.907   4.962
  187POPE  H11X18478   7.778   5.972   4.983
  187POPE  H11Y18479   7.729   5.819   4.907
  187POPE  C31218480   7.627   5.864   5.096
  187POPE  H12X18481   7.561   5.775   5.083
  187POPE  H12Y18482   7.567   5.947   5.138
  187POPE  C31318483   7.735   5.829   5.195
  187POPE  H13X18484   7.791   5.920   5.230
  187POPE  H13Y18485   7.797   5.768   5.132
  187POPE  C31418486   7.695   5.741   5.310
  187POPE  H14X18487   7.782   5.691   5.360
  187POPE  H14Y18488   7.617   5.665   5.287
  187POPE  C31518489   7.650   5.831   5.415
  187POPE  H15X18490   7.565   5.893   5.378
  187POPE  H15Y18491   7.732   5.900   5.445
  187POPE  C31618492   7.613   5.746   5.530
  187POPE  H16X18493   7.670   5.652   5.545
  187POPE  H16Y18494   7.504   5.726   5.522
  187POPE  H16Z18495   7.628   5.799   5.626
  188POPE     N18496   7.512   0.527   3.541
  188POPE   HN118497   7.440   0.502   3.611
  188POPE   HN218498   7.533   0.446   3.480
  188POPE   HN318499   7.598   0.567   3.585
  188POPE   C1218500   7.450   0.639   3.463
  188POPE  H12A18501   7.339   0.629   3.474
  188POPE  H12B18502   7.481   0.629   3.358
  188POPE   C1118503   7.492   0.775   3.520
  188POPE  H11A18504   7.426   0.797   3.608
  188POPE  H11B18505   7.472   0.854   3.443
  188POPE     P18506   7.680   0.906   3.640
  188POPE   O1318507   7.569   1.000   3.657
  188POPE   O1418508   7.802   0.949   3.571
  188POPE   O1118509   7.716   0.839   3.778
  188POPE   O1218510   7.629   0.777   3.558
  188POPE    C118511   7.717   0.700   3.803
  188POPE    HA18512   7.787   0.648   3.734
  188POPE    HB18513   7.615   0.657   3.787
  188POPE    C218514   7.761   0.678   3.950
  188POPE    HS18515   7.755   0.568   3.973
  188POPE   O2118516   7.678   0.750   4.042
  188POPE   C2118517   7.552   0.716   4.043
  188POPE   O2218518   7.500   0.623   3.984
  188POPE   C2218519   7.479   0.812   4.137
  188POPE   H2R18520   7.384   0.838   4.085
  188POPE   H2S18521   7.538   0.904   4.154
  188POPE    C318522   7.907   0.727   3.974
  188POPE    HX18523   7.912   0.836   3.956
  188POPE    HY18524   7.974   0.683   3.896
  188POPE   O3118525   7.949   0.706   4.112
  188POPE   C3118526   7.981   0.578   4.122
  188POPE   O3218527   7.979   0.503   4.026
  188POPE   C3218528   8.018   0.538   4.263
  188POPE   H2X18529   7.977   0.612   4.332
  188POPE   H2Y18530   8.127   0.548   4.274
  188POPE   C2318531   7.446   0.743   4.270
  188POPE   H3R18532   7.393   0.648   4.246
  188POPE   H3S18533   7.378   0.809   4.328
  188POPE   C2418534   7.564   0.707   4.360
  188POPE   H4R18535   7.631   0.637   4.307
  188POPE   H4S18536   7.524   0.663   4.453
  188POPE   C2518537   7.647   0.822   4.410
  188POPE   H5R18538   7.582   0.911   4.425
  188POPE   H5S18539   7.724   0.849   4.333
  188POPE   C2618540   7.720   0.791   4.543
  188POPE   H6R18541   7.651   0.760   4.624
  188POPE   H6S18542   7.772   0.879   4.584
  188POPE   C2718543   7.839   0.702   4.523
  188POPE   H7R18544   7.915   0.766   4.472
  188POPE   H7S18545   7.810   0.619   4.456
  188POPE   C2818546   7.898   0.649   4.652
  188POPE   H8R18547   7.830   0.590   4.715
  188POPE   H8S18548   7.928   0.737   4.715
  188POPE   C2918549   8.014   0.566   4.604
  188POPE   H9118550   8.077   0.616   4.528
  188POPE  C21018551   8.077   0.481   4.686
  188POPE  H10118552   8.183   0.463   4.658
  188POPE  C21118553   8.039   0.457   4.833
  188POPE  H11R18554   8.052   0.354   4.848
  188POPE  H11S18555   7.931   0.452   4.843
  188POPE  C21218556   8.091   0.507   4.972
  188POPE  H12R18557   8.200   0.501   4.983
  188POPE  H12S18558   8.071   0.434   5.054
  188POPE  C21318559   8.042   0.647   5.010
  188POPE  H13R18560   7.939   0.669   5.006
  188POPE  H13S18561   8.068   0.720   4.941
  188POPE  C21418562   8.122   0.705   5.117
  188POPE  H14R18563   8.164   0.805   5.145
  188POPE  H14S18564   8.203   0.648   5.083
  188POPE  C21518565   8.083   0.671   5.238
  188POPE  H15R18566   8.157   0.710   5.314
  188POPE  H15S18567   8.059   0.561   5.231
  188POPE  C21618568   7.990   0.773   5.251
  188POPE  H16R18569   7.916   0.795   5.172
  188POPE  H16S18570   8.038   0.872   5.281
  188POPE  C21718571   7.953   0.678   5.358
  188POPE  H17R18572   8.014   0.688   5.455
  188POPE  H17S18573   7.904   0.580   5.333
  188POPE  C21818574   7.844   0.734   5.382
  188POPE  H18R18575   7.818   0.676   5.476
  188POPE  H18S18576   7.763   0.744   5.313
  188POPE  H18T18577   7.890   0.839   5.400
  188POPE   C3318578   7.964   0.397   4.303
  188POPE   H3X18579   7.997   0.377   4.408
  188POPE   H3Y18580   8.001   0.315   4.239
  188POPE   C3418581   7.816   0.374   4.285
  188POPE   H4X18582   7.796   0.378   4.175
  188POPE   H4Y18583   7.760   0.456   4.334
  188POPE   C3518584   7.763   0.238   4.334
  188POPE   H5X18585   7.822   0.155   4.287
  188POPE   H5Y18586   7.658   0.233   4.297
  188POPE   C3618587   7.761   0.220   4.485
  188POPE   H6X18588   7.862   0.244   4.526
  188POPE   H6Y18589   7.740   0.113   4.510
  188POPE   C3718590   7.658   0.305   4.559
  188POPE   H7X18591   7.555   0.267   4.545
  188POPE   H7Y18592   7.660   0.412   4.531
  188POPE   C3818593   7.693   0.302   4.706
  188POPE   H8X18594   7.799   0.328   4.727
  188POPE   H8Y18595   7.694   0.194   4.732
  188POPE   C3918596   7.597   0.398   4.779
  188POPE   H9X18597   7.493   0.361   4.768
  188POPE   H9Y18598   7.595   0.497   4.729
  188POPE  C31018599   7.634   0.416   4.926
  188POPE  H10X18600   7.736   0.452   4.942
  188POPE  H10Y18601   7.634   0.312   4.969
  188POPE  C31118602   7.539   0.510   5.003
  188POPE  H11X18603   7.436   0.482   4.982
  188POPE  H11Y18604   7.536   0.612   4.960
  188POPE  C31218605   7.575   0.512   5.153
  188POPE  H12X18606   7.511   0.575   5.214
  188POPE  H12Y18607   7.662   0.575   5.168
  188POPE  C31318608   7.595   0.375   5.219
  188POPE  H13X18609   7.679   0.320   5.172
  188POPE  H13Y18610   7.508   0.305   5.216
  188POPE  C31418611   7.623   0.390   5.367
  188POPE  H14X18612   7.545   0.450   5.419
  188POPE  H14Y18613   7.721   0.440   5.385
  188POPE  C31518614   7.627   0.253   5.425
  188POPE  H15X18615   7.554   0.176   5.394
  188POPE  H15Y18616   7.614   0.265   5.534
  188POPE  C31618617   7.762   0.198   5.409
  188POPE  H16X18618   7.765   0.091   5.413
  188POPE  H16Y18619   7.798   0.238   5.506
  188POPE  H16Z18620   7.833   0.225   5.331
  189PMPG   C1318621   5.669   5.335   7.376
  189PMPG  H13A18622   5.580   5.273   7.350
  189PMPG  H13B18623   5.727   5.349   7.281
  189PMPG   OC318624   5.744   5.279   7.485
  189PMPG   HO318625   5.824   5.252   7.443
  189PMPG   C1218626   5.663   5.482   7.399
  189PMPG  H12A18627   5.766   5.520   7.378
  189PMPG   OC218628   5.641   5.509   7.536
  189PMPG   HO218629   5.575   5.579   7.534
  189PMPG   C1118630   5.569   5.555   7.304
  189PMPG  H11A18631   5.605   5.555   7.198
  189PMPG  H11B18632   5.577   5.660   7.340
  189PMPG     P18633   5.330   5.566   7.402
  189PMPG   O1318634   5.380   5.575   7.539
  189PMPG   O1418635   5.198   5.495   7.395
  189PMPG   O1118636   5.337   5.715   7.343
  189PMPG   O1218637   5.438   5.498   7.308
  189PMPG    C118638   5.250   5.779   7.250
  189PMPG    HA18639   5.249   5.890   7.261
  189PMPG    HB18640   5.145   5.758   7.279
  189PMPG    C218641   5.294   5.746   7.100
  189PMPG    HS18642   5.234   5.809   7.031
  189PMPG   O2118643   5.301   5.609   7.050
  189PMPG   C2118644   5.204   5.533   7.092
  189PMPG   O2218645   5.128   5.566   7.178
  189PMPG   C2218646   5.168   5.413   7.006
  189PMPG   H2R18647   5.061   5.417   6.971
  189PMPG   H2S18648   5.179   5.328   7.075
  189PMPG    C318649   5.435   5.794   7.077
  189PMPG    HX18650   5.491   5.735   7.153
  189PMPG    HY18651   5.444   5.902   7.095
  189PMPG   O3118652   5.471   5.758   6.942
  189PMPG   C3118653   5.585   5.692   6.935
  189PMPG   O3218654   5.675   5.697   7.018
  189PMPG   C3218655   5.593   5.629   6.796
  189PMPG   H2X18656   5.633   5.713   6.751
  189PMPG   H2Y18657   5.500   5.630   6.739
  189PMPG   C2318658   5.237   5.397   6.877
  189PMPG   H3R18659   5.256   5.289   6.869
  189PMPG   H3S18660   5.330   5.458   6.880
  189PMPG   C2418661   5.151   5.426   6.757
  189PMPG   H4R18662   5.039   5.435   6.768
  189PMPG   H4S18663   5.176   5.355   6.678
  189PMPG   C2518664   5.207   5.548   6.700
  189PMPG   H5R18665   5.312   5.577   6.695
  189PMPG   H5S18666   5.184   5.611   6.786
  189PMPG   C2618667   5.135   5.577   6.574
  189PMPG   H6R18668   5.180   5.677   6.578
  189PMPG   H6S18669   5.024   5.565   6.583
  189PMPG   C2718670   5.184   5.541   6.435
  189PMPG   H7R18671   5.092   5.515   6.376
  189PMPG   H7S18672   5.243   5.453   6.464
  189PMPG   C2818673   5.283   5.643   6.367
  189PMPG   H8R18674   5.320   5.593   6.276
  189PMPG   H8S18675   5.352   5.683   6.443
  189PMPG   C2918676   5.219   5.767   6.321
  189PMPG   H9R18677   5.121   5.740   6.316
  189PMPG  C21718678   5.274   5.903   6.334
  189PMPG  H17R18679   5.204   5.970   6.381
  189PMPG  H17S18680   5.376   5.912   6.351
  189PMPG  C21018681   5.229   5.850   6.198
  189PMPG  H10R18682   5.126   5.866   6.165
  189PMPG  C21118683   5.317   5.798   6.094
  189PMPG  H11R18684   5.408   5.831   6.141
  189PMPG  H11S18685   5.312   5.689   6.075
  189PMPG  C21218686   5.294   5.873   5.969
  189PMPG  H12R18687   5.343   5.961   5.985
  189PMPG  H12S18688   5.208   5.907   5.919
  189PMPG  C21318689   5.360   5.847   5.851
  189PMPG  H13R18690   5.350   5.737   5.840
  189PMPG  H13S18691   5.460   5.890   5.877
  189PMPG  C21418692   5.320   5.953   5.748
  189PMPG  H14R18693   5.385   6.042   5.757
  189PMPG  H14S18694   5.218   5.978   5.712
  189PMPG  C21518695   5.414   5.960   5.655
  189PMPG  H15R18696   5.347   5.868   5.652
  189PMPG  H15S18697   5.509   5.919   5.692
  189PMPG  C21618698   5.424   6.063   5.537
  189PMPG  H16R18699   5.448   6.019   5.437
  189PMPG  H16S18700   5.521   6.102   5.509
  189PMPG  H16T18701   5.325   6.096   5.500
  189PMPG   C3318702   5.722   5.556   6.751
  189PMPG   H3X18703   5.700   5.450   6.769
  189PMPG   H3Y18704   5.803   5.584   6.821
  189PMPG   C3418705   5.777   5.582   6.607
  189PMPG   H4X18706   5.866   5.522   6.595
  189PMPG   H4Y18707   5.825   5.678   6.584
  189PMPG   C3518708   5.682   5.535   6.501
  189PMPG   H5X18709   5.597   5.605   6.486
  189PMPG   H5Y18710   5.637   5.443   6.542
  189PMPG   C3618711   5.746   5.509   6.364
  189PMPG   H6X18712   5.840   5.454   6.368
  189PMPG   H6Y18713   5.785   5.596   6.307
  189PMPG   C3718714   5.631   5.445   6.288
  189PMPG   H7X18715   5.545   5.518   6.282
  189PMPG   H7Y18716   5.590   5.361   6.347
  189PMPG   C3818717   5.675   5.404   6.149
  189PMPG   H8X18718   5.761   5.335   6.153
  189PMPG   H8Y18719   5.718   5.487   6.096
  189PMPG   C3918720   5.556   5.355   6.071
  189PMPG   H9X18721   5.466   5.418   6.071
  189PMPG   H9Y18722   5.525   5.268   6.129
  189PMPG  C31018723   5.585   5.312   5.930
  189PMPG  H10X18724   5.490   5.266   5.894
  189PMPG  H10Y18725   5.683   5.259   5.918
  189PMPG  C31118726   5.584   5.405   5.820
  189PMPG  H11X18727   5.646   5.475   5.869
  189PMPG  H11Y18728   5.481   5.452   5.817
  189PMPG  C31218729   5.665   5.372   5.689
  189PMPG  H12X18730   5.606   5.305   5.629
  189PMPG  H12Y18731   5.752   5.309   5.706
  189PMPG  C31318732   5.706   5.481   5.583
  189PMPG  H13X18733   5.622   5.540   5.555
  189PMPG  H13Y18734   5.714   5.446   5.480
  189PMPG  C31418735   5.809   5.584   5.622
  189PMPG  H14X18736   5.789   5.639   5.714
  189PMPG  H14Y18737   5.816   5.671   5.554
  189PMPG  C31518738   5.920   5.520   5.686
  189PMPG  H15X18739   5.955   5.458   5.603
  189PMPG  H15Y18740   5.878   5.460   5.772
  189PMPG  C31618741   6.006   5.633   5.735
  189PMPG  H16X18742   5.974   5.692   5.820
  189PMPG  H16Y18743   6.023   5.708   5.655
  189PMPG  H16Z18744   6.093   5.586   5.778
  190PMPG   C1318745   2.074   3.783   7.660
  190PMPG  H13A18746   1.979   3.802   7.715
  190PMPG  H13B18747   2.137   3.716   7.722
  190PMPG   OC318748   2.138   3.910   7.648
  190PMPG   HO318749   2.175   3.938   7.733
  190PMPG   C1218750   2.050   3.709   7.524
  190PMPG  H12A18751   1.996   3.614   7.543
  190PMPG   OC218752   2.173   3.666   7.466
  190PMPG   HO218753   2.158   3.658   7.372
  190PMPG   C1118754   1.965   3.783   7.421
  190PMPG  H11A18755   1.867   3.815   7.462
  190PMPG  H11B18756   1.949   3.719   7.333
  190PMPG     P18757   2.027   3.959   7.239
  190PMPG   O1318758   2.084   4.088   7.276
  190PMPG   O1418759   1.891   3.948   7.182
  190PMPG   O1118760   2.131   3.891   7.142
  190PMPG   O1218761   2.036   3.895   7.380
  190PMPG    C118762   2.203   3.980   7.055
  190PMPG    HA18763   2.305   3.940   7.038
  190PMPG    HB18764   2.222   4.083   7.097
  190PMPG    C218765   2.123   4.008   6.924
  190PMPG    HS18766   2.047   4.077   6.957
  190PMPG   O2118767   2.071   3.894   6.853
  190PMPG   C2118768   1.981   3.931   6.763
  190PMPG   O2218769   1.920   4.035   6.758
  190PMPG   C2218770   1.960   3.825   6.658
  190PMPG   H2R18771   1.862   3.784   6.677
  190PMPG   H2S18772   2.034   3.744   6.667
  190PMPG    C318773   2.207   4.081   6.828
  190PMPG    HX18774   2.247   4.169   6.889
  190PMPG    HY18775   2.155   4.125   6.739
  190PMPG   O3118776   2.296   3.969   6.790
  190PMPG   C3118777   2.380   4.024   6.722
  190PMPG   O3218778   2.376   4.150   6.718
  190PMPG   C3218779   2.496   3.902   6.665
  190PMPG   H2X18780   2.485   3.816   6.725
  190PMPG   H2Y18781   2.593   3.939   6.681
  190PMPG   C2318782   1.957   3.895   6.522
  190PMPG   H3R18783   1.902   3.992   6.524
  190PMPG   H3S18784   1.907   3.833   6.445
  190PMPG   C2418785   2.096   3.918   6.470
  190PMPG   H4R18786   2.142   3.823   6.435
  190PMPG   H4S18787   2.167   3.959   6.547
  190PMPG   C2518788   2.082   4.018   6.357
  190PMPG   H5R18789   2.150   3.979   6.288
  190PMPG   H5S18790   2.120   4.113   6.392
  190PMPG   C2618791   1.977   4.011   6.245
  190PMPG   H6R18792   1.884   4.051   6.290
  190PMPG   H6S18793   1.968   3.904   6.217
  190PMPG   C2718794   2.001   4.081   6.106
  190PMPG   H7R18795   2.037   4.183   6.104
  190PMPG   H7S18796   1.904   4.084   6.054
  190PMPG   C2818797   2.104   4.039   6.006
  190PMPG   H8R18798   2.094   3.932   5.985
  190PMPG   H8S18799   2.196   4.074   6.057
  190PMPG   C2918800   2.121   4.125   5.883
  190PMPG   H9R18801   2.147   4.229   5.909
  190PMPG  C21718802   2.200   4.063   5.774
  190PMPG  H17R18803   2.254   4.115   5.698
  190PMPG  H17S18804   2.227   3.978   5.823
  190PMPG  C21018805   2.056   4.089   5.752
  190PMPG  H10R18806   2.052   4.158   5.667
  190PMPG  C21118807   1.983   3.961   5.735
  190PMPG  H11R18808   2.027   3.879   5.795
  190PMPG  H11S18809   1.880   3.982   5.771
  190PMPG  C21218810   1.976   3.916   5.587
  190PMPG  H12R18811   1.907   3.981   5.530
  190PMPG  H12S18812   1.934   3.814   5.595
  190PMPG  C21318813   2.106   3.911   5.506
  190PMPG  H13R18814   2.159   4.008   5.510
  190PMPG  H13S18815   2.087   3.885   5.400
  190PMPG  C21418816   2.195   3.800   5.551
  190PMPG  H14R18817   2.147   3.702   5.558
  190PMPG  H14S18818   2.219   3.828   5.656
  190PMPG  C21518819   2.313   3.785   5.455
  190PMPG  H15R18820   2.302   3.741   5.356
  190PMPG  H15S18821   2.369   3.697   5.497
  190PMPG  C21618822   2.391   3.919   5.443
  190PMPG  H16R18823   2.486   3.910   5.388
  190PMPG  H16S18824   2.415   3.956   5.543
  190PMPG  H16T18825   2.348   4.011   5.423
  190PMPG   C3318826   2.612   3.874   6.547
  190PMPG   H3X18827   2.701   3.811   6.554
  190PMPG   H3Y18828   2.691   3.957   6.531
  190PMPG   C3418829   2.506   3.831   6.453
  190PMPG   H4X18830   2.425   3.903   6.448
  190PMPG   H4Y18831   2.445   3.755   6.506
  190PMPG   C3518832   2.542   3.780   6.320
  190PMPG   H5X18833   2.640   3.734   6.331
  190PMPG   H5Y18834   2.562   3.848   6.234
  190PMPG   C3618835   2.428   3.692   6.272
  190PMPG   H6X18836   2.339   3.748   6.247
  190PMPG   H6Y18837   2.350   3.653   6.337
  190PMPG   C3718838   2.483   3.635   6.143
  190PMPG   H7X18839   2.526   3.541   6.175
  190PMPG   H7Y18840   2.569   3.700   6.104
  190PMPG   C3818841   2.390   3.626   6.023
  190PMPG   H8X18842   2.451   3.612   5.932
  190PMPG   H8Y18843   2.328   3.711   6.011
  190PMPG   C3918844   2.255   3.570   6.024
  190PMPG   H9X18845   2.208   3.595   6.120
  190PMPG   H9Y18846   2.292   3.471   6.016
  190PMPG  C31018847   2.163   3.596   5.906
  190PMPG  H10X18848   2.203   3.549   5.813
  190PMPG  H10Y18849   2.136   3.702   5.881
  190PMPG  C31118850   2.036   3.526   5.944
  190PMPG  H11X18851   1.999   3.559   6.043
  190PMPG  H11Y18852   2.050   3.416   5.944
  190PMPG  C31218853   1.939   3.547   5.837
  190PMPG  H12X18854   1.911   3.654   5.829
  190PMPG  H12Y18855   1.854   3.479   5.858
  190PMPG  C31318856   1.992   3.513   5.701
  190PMPG  H13X18857   2.012   3.403   5.697
  190PMPG  H13Y18858   2.077   3.569   5.669
  190PMPG  C31418859   1.899   3.566   5.597
  190PMPG  H14X18860   1.802   3.617   5.597
  190PMPG  H14Y18861   1.850   3.486   5.645
  190PMPG  C31518862   1.936   3.550   5.457
  190PMPG  H15X18863   1.947   3.448   5.413
  190PMPG  H15Y18864   2.026   3.610   5.432
  190PMPG  C31618865   1.836   3.628   5.383
  190PMPG  H16X18866   1.738   3.679   5.392
  190PMPG  H16Y18867   1.857   3.721   5.435
  190PMPG  H16Z18868   1.866   3.609   5.279
  191PMPG   C1318869   3.584   7.033   7.230
  191PMPG  H13A18870   3.545   6.949   7.168
  191PMPG  H13B18871   3.503   7.063   7.301
  191PMPG   OC318872   3.617   7.145   7.148
  191PMPG   HO318873   3.638   7.217   7.208
  191PMPG   C1218874   3.704   6.978   7.313
  191PMPG  H12A18875   3.723   7.048   7.398
  191PMPG   OC218876   3.822   6.968   7.235
  191PMPG   HO218877   3.884   6.925   7.295
  191PMPG   C1118878   3.674   6.839   7.373
  191PMPG  H11A18879   3.653   6.770   7.287
  191PMPG  H11B18880   3.581   6.846   7.435
  191PMPG     P18881   3.769   6.663   7.536
  191PMPG   O1318882   3.664   6.677   7.638
  191PMPG   O1418883   3.901   6.606   7.574
  191PMPG   O1118884   3.712   6.568   7.429
  191PMPG   O1218885   3.787   6.795   7.451
  191PMPG    C118886   3.715   6.428   7.455
  191PMPG    HA18887   3.669   6.401   7.554
  191PMPG    HB18888   3.816   6.384   7.445
  191PMPG    C218889   3.628   6.365   7.351
  191PMPG    HS18890   3.650   6.255   7.349
  191PMPG   O2118891   3.637   6.425   7.217
  191PMPG   C2118892   3.753   6.404   7.152
  191PMPG   O2218893   3.842   6.334   7.198
  191PMPG   C2218894   3.747   6.437   6.991
  191PMPG   H2R18895   3.834   6.392   6.944
  191PMPG   H2S18896   3.717   6.543   6.983
  191PMPG    C318897   3.484   6.379   7.406
  191PMPG    HX18898   3.453   6.324   7.498
  191PMPG    HY18899   3.445   6.321   7.334
  191PMPG   O3118900   3.416   6.499   7.384
  191PMPG   C3118901   3.324   6.510   7.289
  191PMPG   O3218902   3.280   6.431   7.210
  191PMPG   C3218903   3.283   6.649   7.306
  191PMPG   H2X18904   3.367   6.712   7.337
  191PMPG   H2Y18905   3.218   6.635   7.395
  191PMPG   C2318906   3.635   6.388   6.896
  191PMPG   H3R18907   3.585   6.395   6.986
  191PMPG   H3S18908   3.597   6.293   6.867
  191PMPG   C2418909   3.603   6.365   6.753
  191PMPG   H4R18910   3.509   6.309   6.718
  191PMPG   H4S18911   3.683   6.304   6.707
  191PMPG   C2518912   3.616   6.496   6.712
  191PMPG   H5R18913   3.725   6.507   6.711
  191PMPG   H5S18914   3.568   6.563   6.789
  191PMPG   C2618915   3.555   6.483   6.581
  191PMPG   H6R18916   3.569   6.584   6.539
  191PMPG   H6S18917   3.449   6.457   6.595
  191PMPG   C2718918   3.560   6.357   6.496
  191PMPG   H7R18919   3.480   6.282   6.528
  191PMPG   H7S18920   3.662   6.321   6.496
  191PMPG   C2818921   3.528   6.396   6.361
  191PMPG   H8R18922   3.567   6.498   6.358
  191PMPG   H8S18923   3.421   6.395   6.365
  191PMPG   C2918924   3.521   6.304   6.243
  191PMPG   H9R18925   3.477   6.211   6.260
  191PMPG  C21718926   3.552   6.335   6.101
  191PMPG  H17R18927   3.607   6.428   6.109
  191PMPG  H17S18928   3.566   6.435   6.072
  191PMPG  C21018929   3.630   6.242   6.182
  191PMPG  H10R18930   3.606   6.142   6.135
  191PMPG  C21118931   3.751   6.317   6.209
  191PMPG  H11R18932   3.731   6.420   6.247
  191PMPG  H11S18933   3.800   6.262   6.290
  191PMPG  C21218934   3.810   6.335   6.072
  191PMPG  H12R18935   3.901   6.394   6.086
  191PMPG  H12S18936   3.757   6.385   5.991
  191PMPG  C21318937   3.817   6.202   6.013
  191PMPG  H13R18938   3.751   6.114   6.019
  191PMPG  H13S18939   3.870   6.175   6.102
  191PMPG  C21418940   3.880   6.208   5.877
  191PMPG  H14R18941   3.918   6.107   5.872
  191PMPG  H14S18942   3.960   6.284   5.864
  191PMPG  C21518943   3.786   6.180   5.765
  191PMPG  H15R18944   3.713   6.259   5.771
  191PMPG  H15S18945   3.736   6.083   5.786
  191PMPG  C21618946   3.843   6.171   5.626
  191PMPG  H16R18947   3.770   6.129   5.556
  191PMPG  H16S18948   3.926   6.098   5.619
  191PMPG  H16T18949   3.875   6.273   5.591
  191PMPG   C3318950   3.217   6.705   7.180
  191PMPG   H3X18951   3.181   6.808   7.202
  191PMPG   H3Y18952   3.132   6.640   7.145
  191PMPG   C3418953   3.306   6.719   7.066
  191PMPG   H4X18954   3.299   6.616   7.034
  191PMPG   H4Y18955   3.410   6.744   7.095
  191PMPG   C3518956   3.246   6.806   6.956
  191PMPG   H5X18957   3.234   6.908   6.993
  191PMPG   H5Y18958   3.146   6.764   6.927
  191PMPG   C3618959   3.350   6.811   6.846
  191PMPG   H6X18960   3.373   6.704   6.855
  191PMPG   H6Y18961   3.453   6.838   6.869
  191PMPG   C3718962   3.305   6.877   6.711
  191PMPG   H7X18963   3.294   6.984   6.731
  191PMPG   H7Y18964   3.201   6.847   6.682
  191PMPG   C3818965   3.404   6.853   6.591
  191PMPG   H8X18966   3.428   6.747   6.574
  191PMPG   H8Y18967   3.506   6.886   6.617
  191PMPG   C3918968   3.358   6.911   6.454
  191PMPG   H9X18969   3.450   6.909   6.393
  191PMPG   H9Y18970   3.329   7.014   6.475
  191PMPG  C31018971   3.233   6.869   6.369
  191PMPG  H10X18972   3.139   6.881   6.421
  191PMPG  H10Y18973   3.192   6.772   6.377
  191PMPG  C31118974   3.243   6.885   6.214
  191PMPG  H11X18975   3.229   6.985   6.179
  191PMPG  H11Y18976   3.159   6.824   6.169
  191PMPG  C31218977   3.381   6.856   6.149
  191PMPG  H12X18978   3.323   6.768   6.121
  191PMPG  H12Y18979   3.468   6.824   6.212
  191PMPG  C31318980   3.416   6.850   6.001
  191PMPG  H13X18981   3.511   6.793   5.985
  191PMPG  H13Y18982   3.440   6.951   5.975
  191PMPG  C31418983   3.301   6.801   5.912
  191PMPG  H14X18984   3.212   6.863   5.930
  191PMPG  H14Y18985   3.262   6.701   5.939
  191PMPG  C31518986   3.337   6.811   5.764
  191PMPG  H15X18987   3.358   6.916   5.742
  191PMPG  H15Y18988   3.249   6.769   5.709
  191PMPG  C31618989   3.465   6.752   5.712
  191PMPG  H16X18990   3.437   6.652   5.700
  191PMPG  H16Y18991   3.551   6.750   5.783
  191PMPG  H16Z18992   3.491   6.758   5.607
  192PMPG   C1318993   5.273   7.763   7.404
  192PMPG  H13A18994   5.240   7.728   7.303
  192PMPG  H13B18995   5.360   7.830   7.387
  192PMPG   OC318996   5.315   7.650   7.480
  192PMPG   HO318997   5.314   7.681   7.572
  192PMPG   C1218998   5.151   7.838   7.467
  192PMPG  H12A18999   5.117   7.912   7.390
  192PMPG   OC219000   5.183   7.911   7.586
  192PMPG   HO219001   5.096   7.934   7.619
  192PMPG   C1119002   5.031   7.745   7.495
  192PMPG  H11A19003   4.961   7.793   7.563
  192PMPG  H11B19004   5.061   7.652   7.548
  192PMPG     P19005   4.969   7.585   7.296
  192PMPG   O1319006   4.996   7.476   7.392
  192PMPG   O1419007   5.061   7.607   7.182
  192PMPG   O1119008   4.820   7.573   7.247
  192PMPG   O1219009   4.961   7.720   7.375
  192PMPG    C119010   4.726   7.678   7.259
  192PMPG    HA19011   4.734   7.742   7.351
  192PMPG    HB19012   4.622   7.635   7.259
  192PMPG    C219013   4.740   7.771   7.140
  192PMPG    HS19014   4.633   7.780   7.111
  192PMPG   O2119015   4.805   7.716   7.029
  192PMPG   C2119016   4.752   7.615   6.968
  192PMPG   O2219017   4.647   7.557   6.989
  192PMPG   C2219018   4.833   7.610   6.842
  192PMPG   H2R19019   4.940   7.609   6.872
  192PMPG   H2S19020   4.812   7.699   6.778
  192PMPG    C319021   4.817   7.906   7.175
  192PMPG    HX19022   4.909   7.886   7.228
  192PMPG    HY19023   4.746   7.956   7.245
  192PMPG   O3119024   4.846   8.001   7.070
  192PMPG   C3119025   4.954   8.035   7.007
  192PMPG   O3219026   5.065   7.989   7.026
  192PMPG   C3219027   4.929   8.141   6.898
  192PMPG   H2X19028   5.023   8.199   6.887
  192PMPG   H2Y19029   4.848   8.216   6.920
  192PMPG   C2319030   4.804   7.486   6.765
  192PMPG   H3R19031   4.696   7.474   6.741
  192PMPG   H3S19032   4.838   7.399   6.825
  192PMPG   C2419033   4.883   7.496   6.640
  192PMPG   H4R19034   4.992   7.477   6.658
  192PMPG   H4S19035   4.871   7.594   6.587
  192PMPG   C2519036   4.830   7.397   6.545
  192PMPG   H5R19037   4.833   7.296   6.589
  192PMPG   H5S19038   4.919   7.404   6.483
  192PMPG   C2619039   4.687   7.425   6.491
  192PMPG   H6R19040   4.674   7.531   6.466
  192PMPG   H6S19041   4.624   7.397   6.575
  192PMPG   C2719042   4.632   7.343   6.371
  192PMPG   H7R19043   4.649   7.237   6.349
  192PMPG   H7S19044   4.727   7.340   6.340
  192PMPG   C2819045   4.513   7.388   6.283
  192PMPG   H8R19046   4.516   7.482   6.229
  192PMPG   H8S19047   4.450   7.416   6.369
  192PMPG   C2919048   4.466   7.261   6.197
  192PMPG   H9R19049   4.512   7.181   6.244
  192PMPG  C21719050   4.388   7.261   6.072
  192PMPG  H17R19051   4.310   7.192   6.048
  192PMPG  H17S19052   4.392   7.368   6.052
  192PMPG  C21019053   4.515   7.174   6.081
  192PMPG  H10R19054   4.493   7.072   6.053
  192PMPG  C21119055   4.583   7.206   5.971
  192PMPG  H11R19056   4.551   7.309   5.967
  192PMPG  H11S19057   4.673   7.177   6.033
  192PMPG  C21219058   4.703   7.159   5.908
  192PMPG  H12R19059   4.795   7.237   5.937
  192PMPG  H12S19060   4.607   7.190   5.839
  192PMPG  C21319061   4.739   7.073   5.785
  192PMPG  H13R19062   4.659   7.024   5.839
  192PMPG  H13S19063   4.843   7.047   5.807
  192PMPG  C21419064   4.738   7.104   5.625
  192PMPG  H14R19065   4.633   7.097   5.593
  192PMPG  H14S19066   4.789   7.008   5.593
  192PMPG  C21519067   4.799   7.245   5.546
  192PMPG  H15R19068   4.746   7.337   5.528
  192PMPG  H15S19069   4.761   7.223   5.446
  192PMPG  C21619070   4.953   7.318   5.600
  192PMPG  H16R19071   5.038   7.346   5.538
  192PMPG  H16S19072   4.993   7.228   5.654
  192PMPG  H16T19073   4.971   7.375   5.695
  192PMPG   C3319074   4.912   8.078   6.760
  192PMPG   H3X19075   4.910   8.156   6.685
  192PMPG   H3Y19076   4.821   8.028   6.755
  192PMPG   C3419077   4.988   7.954   6.718
  192PMPG   H4X19078   4.980   7.877   6.798
  192PMPG   H4Y19079   5.089   7.999   6.707
  192PMPG   C3519080   4.942   7.887   6.587
  192PMPG   H5X19081   4.915   7.961   6.510
  192PMPG   H5Y19082   4.858   7.815   6.595
  192PMPG   C3619083   5.056   7.810   6.523
  192PMPG   H6X19084   5.083   7.726   6.590
  192PMPG   H6Y19085   5.139   7.884   6.519
  192PMPG   C3719086   5.015   7.764   6.383
  192PMPG   H7X19087   4.969   7.851   6.331
  192PMPG   H7Y19088   4.934   7.689   6.393
  192PMPG   C3819089   5.130   7.703   6.299
  192PMPG   H8X19090   5.097   7.607   6.255
  192PMPG   H8Y19091   5.216   7.682   6.366
  192PMPG   C3919092   5.180   7.788   6.181
  192PMPG   H9X19093   5.272   7.741   6.139
  192PMPG   H9Y19094   5.206   7.890   6.218
  192PMPG  C31019095   5.080   7.808   6.066
  192PMPG  H10X19096   4.980   7.833   6.108
  192PMPG  H10Y19097   5.071   7.715   6.006
  192PMPG  C31119098   5.126   7.918   5.971
  192PMPG  H11X19099   5.234   7.903   5.946
  192PMPG  H11Y19100   5.119   8.017   6.021
  192PMPG  C31219101   5.049   7.915   5.838
  192PMPG  H12X19102   5.083   7.828   5.778
  192PMPG  H12Y19103   5.076   8.009   5.784
  192PMPG  C31319104   4.897   7.905   5.855
  192PMPG  H13X19105   4.870   7.985   5.926
  192PMPG  H13Y19106   4.870   7.808   5.902
  192PMPG  C31419107   4.817   7.916   5.725
  192PMPG  H14X19108   4.859   7.994   5.658
  192PMPG  H14Y19109   4.711   7.946   5.747
  192PMPG  C31519110   4.809   7.778   5.661
  192PMPG  H15X19111   4.738   7.723   5.724
  192PMPG  H15Y19112   4.908   7.728   5.659
  192PMPG  C31619113   4.768   7.776   5.519
  192PMPG  H16X19114   4.842   7.843   5.475
  192PMPG  H16Y19115   4.663   7.814   5.508
  192PMPG  H16Z19116   4.780   7.684   5.460
  193PMPG   C1319117   7.459   4.647   7.510
  193PMPG  H13A19118   7.490   4.689   7.608
  193PMPG  H13B19119   7.528   4.562   7.488
  193PMPG   OC319120   7.480   4.747   7.410
  193PMPG   HO319121   7.520   4.700   7.334
  193PMPG   C1219122   7.311   4.597   7.515
  193PMPG  H12A19123   7.245   4.687   7.517
  193PMPG   OC219124   7.283   4.522   7.633
  193PMPG   HO219125   7.203   4.476   7.607
  193PMPG   C1119126   7.269   4.514   7.391
  193PMPG  H11A19127   7.297   4.570   7.298
  193PMPG  H11B19128   7.159   4.503   7.386
  193PMPG     P19129   7.437   4.337   7.297
  193PMPG   O1319130   7.511   4.229   7.366
  193PMPG   O1419131   7.507   4.450   7.234
  193PMPG   O1119132   7.341   4.276   7.193
  193PMPG   O1219133   7.326   4.383   7.398
  193PMPG    C119134   7.318   4.139   7.212
  193PMPG    HA19135   7.299   4.115   7.313
  193PMPG    HB19136   7.402   4.071   7.185
  193PMPG    C219137   7.204   4.102   7.131
  193PMPG    HS19138   7.177   4.002   7.160
  193PMPG   O2119139   7.254   4.131   6.993
  193PMPG   C2119140   7.337   4.056   6.913
  193PMPG   O2219141   7.413   3.969   6.946
  193PMPG   C2219142   7.312   4.082   6.760
  193PMPG   H2R19143   7.412   4.072   6.715
  193PMPG   H2S19144   7.264   4.181   6.753
  193PMPG    C319145   7.057   4.168   7.164
  193PMPG    HX19146   7.024   4.135   7.261
  193PMPG    HY19147   6.963   4.134   7.112
  193PMPG   O3119148   7.058   4.306   7.167
  193PMPG   C3119149   7.073   4.334   7.044
  193PMPG   O3219150   7.047   4.260   6.949
  193PMPG   C3219151   7.104   4.478   7.052
  193PMPG   H2X19152   7.087   4.529   7.147
  193PMPG   H2Y19153   7.009   4.504   7.021
  193PMPG   C2319154   7.224   3.987   6.671
  193PMPG   H3R19155   7.149   3.945   6.727
  193PMPG   H3S19156   7.246   3.885   6.662
  193PMPG   C2419157   7.178   4.033   6.532
  193PMPG   H4R19158   7.267   4.048   6.470
  193PMPG   H4S19159   7.122   4.127   6.539
  193PMPG   C2519160   7.090   3.932   6.460
  193PMPG   H5R19161   7.028   3.898   6.537
  193PMPG   H5S19162   7.133   3.835   6.436
  193PMPG   C2619163   6.997   3.987   6.349
  193PMPG   H6R19164   6.933   4.068   6.385
  193PMPG   H6S19165   6.935   3.900   6.308
  193PMPG   C2719166   7.076   4.051   6.243
  193PMPG   H7R19167   7.120   3.953   6.246
  193PMPG   H7S19168   7.162   4.110   6.273
  193PMPG   C2819169   7.005   4.084   6.108
  193PMPG   H8R19170   6.931   4.164   6.120
  193PMPG   H8S19171   6.939   3.998   6.092
  193PMPG   C2919172   7.105   4.105   5.988
  193PMPG   H9R19173   7.211   4.124   6.014
  193PMPG  C21719174   7.099   4.023   5.854
  193PMPG  H17R19175   7.196   3.999   5.812
  193PMPG  H17S19176   7.016   3.957   5.843
  193PMPG  C21019177   7.054   4.164   5.862
  193PMPG  H10R19178   7.123   4.236   5.823
  193PMPG  C21119179   6.904   4.173   5.855
  193PMPG  H11R19180   6.857   4.075   5.877
  193PMPG  H11S19181   6.868   4.247   5.928
  193PMPG  C21219182   6.860   4.211   5.717
  193PMPG  H12R19183   6.914   4.302   5.681
  193PMPG  H12S19184   6.750   4.229   5.714
  193PMPG  C21319185   6.889   4.101   5.621
  193PMPG  H13R19186   6.993   4.069   5.605
  193PMPG  H13S19187   6.876   4.169   5.534
  193PMPG  C21419188   6.799   3.976   5.641
  193PMPG  H14R19189   6.689   3.995   5.634
  193PMPG  H14S19190   6.807   3.928   5.740
  193PMPG  C21519191   6.834   3.868   5.542
  193PMPG  H15R19192   6.937   3.837   5.539
  193PMPG  H15S19193   6.846   3.891   5.441
  193PMPG  C21619194   6.736   3.759   5.538
  193PMPG  H16R19195   6.631   3.761   5.565
  193PMPG  H16S19196   6.763   3.725   5.635
  193PMPG  H16T19197   6.752   3.687   5.456
  193PMPG   C3319198   7.212   4.527   6.960
  193PMPG   H3X19199   7.213   4.484   6.862
  193PMPG   H3Y19200   7.311   4.490   6.989
  193PMPG   C3419201   7.210   4.674   6.937
  193PMPG   H4X19202   7.222   4.714   7.039
  193PMPG   H4Y19203   7.120   4.727   6.896
  193PMPG   C3519204   7.331   4.700   6.849
  193PMPG   H5X19205   7.428   4.661   6.883
  193PMPG   H5Y19206   7.340   4.799   6.853
  193PMPG   C3619207   7.335   4.679   6.701
  193PMPG   H6X19208   7.317   4.575   6.726
  193PMPG   H6Y19209   7.430   4.654   6.658
  193PMPG   C3719210   7.261   4.750   6.576
  193PMPG   H7X19211   7.252   4.859   6.559
  193PMPG   H7Y19212   7.157   4.764   6.618
  193PMPG   C3819213   7.312   4.676   6.423
  193PMPG   H8X19214   7.415   4.653   6.423
  193PMPG   H8Y19215   7.312   4.777   6.382
  193PMPG   C3919216   7.232   4.540   6.323
  193PMPG   H9X19217   7.120   4.526   6.320
  193PMPG   H9Y19218   7.254   4.438   6.353
  193PMPG  C31019219   7.163   4.514   6.194
  193PMPG  H10X19220   7.086   4.576   6.148
  193PMPG  H10Y19221   7.103   4.415   6.185
  193PMPG  C31119222   7.291   4.527   6.137
  193PMPG  H11X19223   7.369   4.468   6.195
  193PMPG  H11Y19224   7.324   4.633   6.135
  193PMPG  C31219225   7.252   4.468   6.015
  193PMPG  H12X19226   7.172   4.532   5.971
  193PMPG  H12Y19227   7.207   4.367   6.035
  193PMPG  C31319228   7.384   4.456   5.951
  193PMPG  H13X19229   7.452   4.402   6.020
  193PMPG  H13Y19230   7.425   4.558   5.933
  193PMPG  C31419231   7.362   4.372   5.831
  193PMPG  H14X19232   7.343   4.267   5.855
  193PMPG  H14Y19233   7.454   4.378   5.769
  193PMPG  C31519234   7.240   4.421   5.756
  193PMPG  H15X19235   7.264   4.529   5.767
  193PMPG  H15Y19236   7.137   4.441   5.790
  193PMPG  C31619237   7.235   4.345   5.622
  193PMPG  H16X19238   7.170   4.407   5.558
  193PMPG  H16Y19239   7.190   4.247   5.606
  193PMPG  H16Z19240   7.338   4.338   5.581
  194PMPG   C1319241   0.672   5.360   7.345
  194PMPG  H13A19242   0.635   5.455   7.373
  194PMPG  H13B19243   0.780   5.372   7.367
  194PMPG   OC319244   0.647   5.335   7.206
  194PMPG   HO319245   0.601   5.251   7.207
  194PMPG   C1219246   0.600   5.259   7.435
  194PMPG  H12A19247   0.492   5.254   7.408
  194PMPG   OC219248   0.603   5.299   7.572
  194PMPG   HO219249   0.589   5.220   7.624
  194PMPG   C1119250   0.671   5.125   7.412
  194PMPG  H11A19251   0.646   5.096   7.307
  194PMPG  H11B19252   0.631   5.049   7.483
  194PMPG     P19253   0.903   5.014   7.389
  194PMPG   O1319254   0.837   4.894   7.444
  194PMPG   O1419255   1.042   5.045   7.428
  194PMPG   O1119256   0.884   5.014   7.234
  194PMPG   O1219257   0.813   5.140   7.427
  194PMPG    C119258   0.979   4.987   7.133
  194PMPG    HA19259   0.928   4.926   7.055
  194PMPG    HB19260   1.069   4.932   7.170
  194PMPG    C219261   1.021   5.116   7.061
  194PMPG    HS19262   1.089   5.174   7.128
  194PMPG   O2119263   0.897   5.183   7.024
  194PMPG   C2119264   0.915   5.309   6.995
  194PMPG   O2219265   1.002   5.380   7.041
  194PMPG   C2219266   0.807   5.366   6.906
  194PMPG   H2R19267   0.766   5.443   6.975
  194PMPG   H2S19268   0.728   5.292   6.888
  194PMPG    C319269   1.098   5.087   6.932
  194PMPG    HX19270   1.181   5.014   6.948
  194PMPG    HY19271   1.140   5.183   6.896
  194PMPG   O3119272   1.004   5.033   6.839
  194PMPG   C3119273   1.039   5.058   6.716
  194PMPG   O3219274   1.142   5.110   6.678
  194PMPG   C3219275   0.947   4.992   6.626
  194PMPG   H2X19276   0.841   5.022   6.634
  194PMPG   H2Y19277   0.945   4.893   6.681
  194PMPG   C2319278   0.859   5.435   6.775
  194PMPG   H3R19279   0.942   5.380   6.726
  194PMPG   H3S19280   0.901   5.535   6.802
  194PMPG   C2419281   0.749   5.449   6.669
  194PMPG   H4R19282   0.666   5.513   6.700
  194PMPG   H4S19283   0.700   5.350   6.661
  194PMPG   C2519284   0.798   5.505   6.535
  194PMPG   H5R19285   0.900   5.469   6.512
  194PMPG   H5S19286   0.802   5.616   6.540
  194PMPG   C2619287   0.708   5.466   6.418
  194PMPG   H6R19288   0.740   5.515   6.325
  194PMPG   H6S19289   0.607   5.499   6.441
  194PMPG   C2719290   0.681   5.317   6.401
  194PMPG   H7R19291   0.764   5.261   6.449
  194PMPG   H7S19292   0.680   5.300   6.291
  194PMPG   C2819293   0.541   5.282   6.458
  194PMPG   H8R19294   0.466   5.319   6.388
  194PMPG   H8S19295   0.523   5.327   6.557
  194PMPG   C2919296   0.509   5.138   6.472
  194PMPG   H9R19297   0.573   5.079   6.541
  194PMPG  C21719298   0.372   5.077   6.448
  194PMPG  H17R19299   0.361   4.979   6.493
  194PMPG  H17S19300   0.290   5.140   6.419
  194PMPG  C21019301   0.476   5.076   6.337
  194PMPG  H10R19302   0.572   5.034   6.337
  194PMPG  C21119303   0.466   5.148   6.204
  194PMPG  H11R19304   0.433   5.251   6.211
  194PMPG  H11S19305   0.571   5.144   6.159
  194PMPG  C21219306   0.371   5.084   6.103
  194PMPG  H12R19307   0.373   5.149   6.012
  194PMPG  H12S19308   0.270   5.060   6.138
  194PMPG  C21319309   0.425   4.957   6.054
  194PMPG  H13R19310   0.372   4.866   6.094
  194PMPG  H13S19311   0.518   4.955   6.110
  194PMPG  C21419312   0.440   4.967   5.904
  194PMPG  H14R19313   0.513   5.027   5.846
  194PMPG  H14S19314   0.349   4.969   5.845
  194PMPG  C21519315   0.474   4.837   5.870
  194PMPG  H15R19316   0.451   4.754   5.942
  194PMPG  H15S19317   0.574   4.851   5.873
  194PMPG  C21619318   0.477   4.812   5.735
  194PMPG  H16R19319   0.406   4.754   5.695
  194PMPG  H16S19320   0.513   4.711   5.758
  194PMPG  H16T19321   0.547   4.856   5.664
  194PMPG   C3319322   1.022   4.995   6.484
  194PMPG   H3X19323   1.113   4.931   6.484
  194PMPG   H3Y19324   1.024   5.098   6.446
  194PMPG   C3419325   0.954   4.941   6.361
  194PMPG   H4X19326   0.862   4.987   6.384
  194PMPG   H4Y19327   0.980   4.838   6.373
  194PMPG   C3519328   0.969   4.903   6.214
  194PMPG   H5X19329   0.909   4.824   6.164
  194PMPG   H5Y19330   1.066   4.853   6.200
  194PMPG   C3619331   0.921   5.027   6.155
  194PMPG   H6X19332   0.858   5.087   6.225
  194PMPG   H6Y19333   0.859   5.017   6.066
  194PMPG   C3719334   1.056   5.074   6.121
  194PMPG   H7X19335   1.066   5.043   6.015
  194PMPG   H7Y19336   1.137   5.021   6.177
  194PMPG   C3819337   1.078   5.215   6.165
  194PMPG   H8X19338   1.184   5.237   6.141
  194PMPG   H8Y19339   1.065   5.222   6.275
  194PMPG   C3919340   0.989   5.308   6.088
  194PMPG   H9X19341   0.986   5.406   6.140
  194PMPG   H9Y19342   0.884   5.269   6.085
  194PMPG  C31019343   1.051   5.321   5.949
  194PMPG  H10X19344   1.071   5.221   5.906
  194PMPG  H10Y19345   1.144   5.382   5.956
  194PMPG  C31119346   0.964   5.382   5.845
  194PMPG  H11X19347   1.018   5.389   5.748
  194PMPG  H11Y19348   0.954   5.485   5.881
  194PMPG  C31219349   0.838   5.296   5.830
  194PMPG  H12X19350   0.773   5.305   5.921
  194PMPG  H12Y19351   0.858   5.192   5.803
  194PMPG  C31319352   0.753   5.332   5.714
  194PMPG  H13X19353   0.771   5.437   5.720
  194PMPG  H13Y19354   0.647   5.310   5.740
  194PMPG  C31419355   0.794   5.317   5.569
  194PMPG  H14X19356   0.896   5.357   5.559
  194PMPG  H14Y19357   0.754   5.381   5.487
  194PMPG  C31519358   0.733   5.189   5.526
  194PMPG  H15X19359   0.769   5.124   5.608
  194PMPG  H15Y19360   0.778   5.186   5.424
  194PMPG  C31619361   0.581   5.166   5.522
  194PMPG  H16X19362   0.533   5.127   5.613
  194PMPG  H16Y19363   0.551   5.123   5.424
  194PMPG  H16Z19364   0.523   5.255   5.528
  195PMPG   C1319365   6.269   1.296   7.302
  195PMPG  H13A19366   6.319   1.366   7.369
  195PMPG  H13B19367   6.234   1.352   7.213
  195PMPG   OC319368   6.156   1.244   7.372
  195PMPG   HO319369   6.175   1.240   7.465
  195PMPG   C1219370   6.387   1.198   7.268
  195PMPG  H12A19371   6.457   1.254   7.203
  195PMPG   OC219372   6.351   1.088   7.190
  195PMPG   HO219373   6.407   1.013   7.213
  195PMPG   C1119374   6.464   1.147   7.391
  195PMPG  H11A19375   6.490   1.231   7.457
  195PMPG  H11B19376   6.560   1.107   7.350
  195PMPG     P19377   6.450   0.908   7.490
  195PMPG   O1319378   6.346   0.812   7.530
  195PMPG   O1419379   6.564   0.928   7.584
  195PMPG   O1119380   6.501   0.874   7.343
  195PMPG   O1219381   6.387   1.052   7.467
  195PMPG    C119382   6.568   0.752   7.311
  195PMPG    HA19383   6.539   0.666   7.377
  195PMPG    HB19384   6.678   0.766   7.326
  195PMPG    C219385   6.540   0.705   7.164
  195PMPG    HS19386   6.619   0.634   7.133
  195PMPG   O2119387   6.527   0.809   7.063
  195PMPG   C2119388   6.632   0.887   7.057
  195PMPG   O2219389   6.729   0.879   7.128
  195PMPG   C2219390   6.618   1.002   6.952
  195PMPG   H2R19391   6.713   1.061   6.965
  195PMPG   H2S19392   6.533   1.062   6.982
  195PMPG    C319393   6.411   0.619   7.155
  195PMPG    HX19394   6.425   0.535   7.227
  195PMPG    HY19395   6.400   0.576   7.055
  195PMPG   O3119396   6.291   0.688   7.189
  195PMPG   C3119397   6.224   0.744   7.091
  195PMPG   O3219398   6.254   0.747   6.973
  195PMPG   C3219399   6.092   0.792   7.147
  195PMPG   H2X19400   6.068   0.743   7.242
  195PMPG   H2Y19401   6.016   0.769   7.073
  195PMPG   C2319402   6.612   0.969   6.800
  195PMPG   H3R19403   6.681   0.888   6.804
  195PMPG   H3S19404   6.653   1.048   6.734
  195PMPG   C2419405   6.483   0.909   6.741
  195PMPG   H4R19406   6.410   0.989   6.730
  195PMPG   H4S19407   6.448   0.832   6.815
  195PMPG   C2519408   6.488   0.837   6.604
  195PMPG   H5R19409   6.396   0.780   6.587
  195PMPG   H5S19410   6.547   0.751   6.599
  195PMPG   C2619411   6.551   0.904   6.485
  195PMPG   H6R19412   6.656   0.938   6.504
  195PMPG   H6S19413   6.490   0.993   6.465
  195PMPG   C2719414   6.549   0.804   6.368
  195PMPG   H7R19415   6.446   0.768   6.348
  195PMPG   H7S19416   6.595   0.710   6.402
  195PMPG   C2819417   6.618   0.860   6.244
  195PMPG   H8R19418   6.600   0.792   6.157
  195PMPG   H8S19419   6.728   0.865   6.257
  195PMPG   C2919420   6.568   1.001   6.223
  195PMPG   H9R19421   6.602   1.078   6.294
  195PMPG  C21719422   6.561   1.045   6.078
  195PMPG  H17R19423   6.598   1.147   6.072
  195PMPG  H17S19424   6.583   0.966   6.009
  195PMPG  C21019425   6.434   1.022   6.161
  195PMPG  H10R19426   6.375   1.111   6.178
  195PMPG  C21119427   6.352   0.904   6.120
  195PMPG  H11R19428   6.414   0.816   6.092
  195PMPG  H11S19429   6.283   0.871   6.201
  195PMPG  C21219430   6.272   0.942   6.000
  195PMPG  H12R19431   6.329   1.001   5.924
  195PMPG  H12S19432   6.182   1.003   6.028
  195PMPG  C21319433   6.232   0.810   5.944
  195PMPG  H13R19434   6.161   0.756   6.012
  195PMPG  H13S19435   6.314   0.746   5.905
  195PMPG  C21419436   6.161   0.838   5.823
  195PMPG  H14R19437   6.192   0.924   5.761
  195PMPG  H14S19438   6.066   0.859   5.874
  195PMPG  C21519439   6.142   0.709   5.751
  195PMPG  H15R19440   6.044   0.675   5.786
  195PMPG  H15S19441   6.195   0.628   5.799
  195PMPG  C21619442   6.156   0.714   5.600
  195PMPG  H16R19443   6.120   0.622   5.551
  195PMPG  H16S19444   6.236   0.766   5.551
  195PMPG  H16T19445   6.094   0.771   5.544
  195PMPG   C3319446   6.087   0.943   7.167
  195PMPG   H3X19447   6.171   0.970   7.230
  195PMPG   H3Y19448   5.995   0.966   7.228
  195PMPG   C3419449   6.079   1.020   7.035
  195PMPG   H4X19450   5.970   1.023   7.045
  195PMPG   H4Y19451   6.116   0.959   6.950
  195PMPG   C3519452   6.130   1.165   7.019
  195PMPG   H5X19453   6.239   1.151   7.017
  195PMPG   H5Y19454   6.089   1.221   7.104
  195PMPG   C3619455   6.118   1.253   6.893
  195PMPG   H6X19456   6.157   1.355   6.916
  195PMPG   H6Y19457   6.012   1.273   6.869
  195PMPG   C3719458   6.204   1.205   6.775
  195PMPG   H7X19459   6.151   1.157   6.697
  195PMPG   H7Y19460   6.277   1.125   6.791
  195PMPG   C3819461   6.242   1.313   6.683
  195PMPG   H8X19462   6.324   1.367   6.735
  195PMPG   H8Y19463   6.156   1.382   6.663
  195PMPG   C3919464   6.281   1.246   6.552
  195PMPG   H9X19465   6.213   1.224   6.474
  195PMPG   H9Y19466   6.357   1.165   6.555
  195PMPG  C31019467   6.312   1.354   6.469
  195PMPG  H10X19468   6.401   1.348   6.533
  195PMPG  H10Y19469   6.255   1.451   6.481
  195PMPG  C31119470   6.341   1.324   6.326
  195PMPG  H11X19471   6.404   1.243   6.298
  195PMPG  H11Y19472   6.426   1.381   6.303
  195PMPG  C31219473   6.211   1.352   6.252
  195PMPG  H12X19474   6.143   1.427   6.300
  195PMPG  H12Y19475   6.183   1.254   6.281
  195PMPG  C31319476   6.213   1.373   6.102
  195PMPG  H13X19477   6.313   1.343   6.069
  195PMPG  H13Y19478   6.174   1.479   6.100
  195PMPG  C31419479   6.132   1.309   5.992
  195PMPG  H14X19480   6.043   1.363   6.021
  195PMPG  H14Y19481   6.138   1.200   6.007
  195PMPG  C31519482   6.111   1.338   5.847
  195PMPG  H15X19483   6.206   1.322   5.796
  195PMPG  H15Y19484   6.046   1.426   5.820
  195PMPG  C31619485   6.022   1.232   5.801
  195PMPG  H16X19486   6.055   1.130   5.837
  195PMPG  H16Y19487   6.005   1.237   5.693
  195PMPG  H16Z19488   5.924   1.256   5.846
  196PMPG   C1319489   1.241   6.353   7.253
  196PMPG  H13A19490   1.192   6.255   7.269
  196PMPG  H13B19491   1.311   6.352   7.166
  196PMPG   OC319492   1.316   6.391   7.369
  196PMPG   HO319493   1.277   6.475   7.396
  196PMPG   C1219494   1.120   6.438   7.216
  196PMPG  H12A19495   1.081   6.399   7.119
  196PMPG   OC219496   1.167   6.566   7.188
  196PMPG   HO219497   1.088   6.623   7.191
  196PMPG   C1119498   1.003   6.431   7.320
  196PMPG  H11A19499   0.986   6.321   7.335
  196PMPG  H11B19500   0.912   6.473   7.273
  196PMPG     P19501   0.936   6.598   7.516
  196PMPG   O1319502   1.019   6.683   7.604
  196PMPG   O1419503   0.818   6.530   7.579
  196PMPG   O1119504   0.885   6.681   7.392
  196PMPG   O1219505   1.030   6.489   7.447
  196PMPG    C119506   0.982   6.767   7.334
  196PMPG    HA19507   1.081   6.720   7.326
  196PMPG    HB19508   0.995   6.858   7.395
  196PMPG    C219509   0.942   6.805   7.192
  196PMPG    HS19510   0.859   6.880   7.208
  196PMPG   O2119511   0.905   6.684   7.125
  196PMPG   C2119512   0.846   6.724   7.017
  196PMPG   O2219513   0.833   6.842   6.994
  196PMPG   C2219514   0.800   6.599   6.939
  196PMPG   H2R19515   0.696   6.596   6.910
  196PMPG   H2S19516   0.789   6.521   7.015
  196PMPG    C319517   1.058   6.870   7.113
  196PMPG    HX19518   1.116   6.904   7.196
  196PMPG    HY19519   1.024   6.955   7.045
  196PMPG   O3119520   1.150   6.780   7.058
  196PMPG   C3119521   1.192   6.804   6.938
  196PMPG   O3219522   1.139   6.876   6.855
  196PMPG   C3219523   1.319   6.722   6.920
  196PMPG   H2X19524   1.305   6.625   6.971
  196PMPG   H2Y19525   1.403   6.775   6.970
  196PMPG   C2319526   0.906   6.542   6.842
  196PMPG   H3R19527   0.911   6.433   6.854
  196PMPG   H3S19528   1.006   6.583   6.870
  196PMPG   C2419529   0.889   6.569   6.694
  196PMPG   H4R19530   0.948   6.658   6.675
  196PMPG   H4S19531   0.785   6.562   6.652
  196PMPG   C2519532   0.980   6.492   6.610
  196PMPG   H5R19533   1.081   6.479   6.655
  196PMPG   H5S19534   0.990   6.530   6.505
  196PMPG   C2619535   0.917   6.365   6.602
  196PMPG   H6R19536   0.826   6.376   6.535
  196PMPG   H6S19537   0.878   6.318   6.696
  196PMPG   C2719538   1.037   6.294   6.544
  196PMPG   H7R19539   1.121   6.257   6.607
  196PMPG   H7S19540   1.060   6.339   6.445
  196PMPG   C2819541   0.982   6.169   6.520
  196PMPG   H8R19542   0.909   6.221   6.455
  196PMPG   H8S19543   0.926   6.156   6.613
  196PMPG   C2919544   1.054   6.046   6.451
  196PMPG   H9R19545   1.089   5.971   6.518
  196PMPG  C21719546   1.029   5.900   6.406
  196PMPG  H17R19547   1.078   5.807   6.375
  196PMPG  H17S19548   0.938   5.845   6.422
  196PMPG  C21019549   1.051   6.033   6.306
  196PMPG  H10R19550   1.141   5.985   6.287
  196PMPG  C21119551   0.996   6.166   6.198
  196PMPG  H11R19552   0.895   6.206   6.198
  196PMPG  H11S19553   1.041   6.259   6.235
  196PMPG  C21219554   1.000   6.179   6.032
  196PMPG  H12R19555   1.094   6.211   5.984
  196PMPG  H12S19556   0.950   6.271   5.996
  196PMPG  C21319557   0.947   6.058   5.953
  196PMPG  H13R19558   0.836   6.048   5.971
  196PMPG  H13S19559   1.001   5.965   5.974
  196PMPG  C21419560   0.981   6.025   5.816
  196PMPG  H14R19561   0.944   5.925   5.784
  196PMPG  H14S19562   1.088   6.023   5.792
  196PMPG  C21519563   0.917   6.139   5.764
  196PMPG  H15R19564   0.919   6.236   5.816
  196PMPG  H15S19565   0.806   6.120   5.762
  196PMPG  C21619566   1.004   6.159   5.647
  196PMPG  H16R19567   0.964   6.262   5.634
  196PMPG  H16S19568   0.977   6.073   5.579
  196PMPG  H16T19569   1.108   6.180   5.631
  196PMPG   C3319570   1.347   6.706   6.771
  196PMPG   H3X19571   1.387   6.804   6.735
  196PMPG   H3Y19572   1.253   6.683   6.716
  196PMPG   C3419573   1.449   6.596   6.744
  196PMPG   H4X19574   1.405   6.496   6.768
  196PMPG   H4Y19575   1.532   6.613   6.816
  196PMPG   C3519576   1.502   6.592   6.600
  196PMPG   H5X19577   1.589   6.521   6.606
  196PMPG   H5Y19578   1.545   6.689   6.565
  196PMPG   C3619579   1.407   6.534   6.493
  196PMPG   H6X19580   1.344   6.454   6.539
  196PMPG   H6Y19581   1.473   6.486   6.417
  196PMPG   C3719582   1.311   6.628   6.418
  196PMPG   H7X19583   1.362   6.719   6.380
  196PMPG   H7Y19584   1.234   6.663   6.491
  196PMPG   C3819585   1.241   6.557   6.300
  196PMPG   H8X19586   1.166   6.483   6.338
  196PMPG   H8Y19587   1.315   6.498   6.242
  196PMPG   C3919588   1.175   6.649   6.198
  196PMPG   H9X19589   1.249   6.725   6.164
  196PMPG   H9Y19590   1.093   6.705   6.248
  196PMPG  C31019591   1.121   6.565   6.081
  196PMPG  H10X19592   1.038   6.501   6.118
  196PMPG  H10Y19593   1.202   6.505   6.035
  196PMPG  C31119594   1.064   6.646   5.969
  196PMPG  H11X19595   1.135   6.704   5.906
  196PMPG  H11Y19596   1.013   6.713   6.032
  196PMPG  C31219597   0.951   6.587   5.892
  196PMPG  H12X19598   0.859   6.560   5.951
  196PMPG  H12Y19599   0.992   6.498   5.842
  196PMPG  C31319600   0.911   6.691   5.793
  196PMPG  H13X19601   0.996   6.721   5.729
  196PMPG  H13Y19602   0.866   6.777   5.843
  196PMPG  C31419603   0.795   6.640   5.722
  196PMPG  H14X19604   0.759   6.723   5.653
  196PMPG  H14Y19605   0.718   6.634   5.802
  196PMPG  C31519606   0.828   6.499   5.657
  196PMPG  H15X19607   0.861   6.424   5.727
  196PMPG  H15Y19608   0.897   6.481   5.575
  196PMPG  C31619609   0.729   6.459   5.562
  196PMPG  H16X19610   0.719   6.395   5.474
  196PMPG  H16Y19611   0.695   6.556   5.524
  196PMPG  H16Z19612   0.684   6.404   5.646
  197PMPG   C1319613   6.906   0.525   7.501
  197PMPG  H13A19614   7.002   0.544   7.555
  197PMPG  H13B19615   6.876   0.625   7.457
  197PMPG   OC319616   6.802   0.477   7.582
  197PMPG   HO319617   6.752   0.555   7.605
  197PMPG   C1219618   6.928   0.421   7.393
  197PMPG  H12A19619   7.023   0.461   7.358
  197PMPG   OC219620   6.816   0.407   7.305
  197PMPG   HO219621   6.857   0.390   7.220
  197PMPG   C1119622   7.012   0.298   7.386
  197PMPG  H11A19623   7.095   0.303   7.456
  197PMPG  H11B19624   7.061   0.282   7.284
  197PMPG     P19625   6.958   0.060   7.400
  197PMPG   O1319626   6.850  -0.016   7.464
  197PMPG   O1419627   7.091   0.070   7.466
  197PMPG   O1119628   6.953   0.064   7.237
  197PMPG   O1219629   6.917   0.204   7.421
  197PMPG    C119630   6.826   0.084   7.170
  197PMPG    HA19631   6.802   0.192   7.158
  197PMPG    HB19632   6.744   0.035   7.227
  197PMPG    C219633   6.819   0.017   7.029
  197PMPG    HS19634   6.848  -0.088   7.045
  197PMPG   O2119635   6.913   0.073   6.937
  197PMPG   C2119636   6.959  -0.013   6.843
  197PMPG   O2219637   6.906  -0.118   6.815
  197PMPG   C2219638   7.058   0.062   6.752
  197PMPG   H2R19639   7.164   0.053   6.754
  197PMPG   H2S19640   7.062   0.162   6.801
  197PMPG    C319641   6.675   0.029   6.969
  197PMPG    HX19642   6.607  -0.034   7.030
  197PMPG    HY19643   6.679  -0.016   6.868
  197PMPG   O3119644   6.630   0.165   6.957
  197PMPG   C3119645   6.504   0.194   6.984
  197PMPG   O3219646   6.420   0.116   7.025
  197PMPG   C3219647   6.481   0.341   6.958
  197PMPG   H2X19648   6.454   0.386   7.055
  197PMPG   H2Y19649   6.394   0.350   6.890
  197PMPG   C2319650   7.001   0.058   6.610
  197PMPG   H3R19651   6.976  -0.035   6.556
  197PMPG   H3S19652   7.067   0.124   6.540
  197PMPG   C2419653   6.867   0.117   6.649
  197PMPG   H4R19654   6.891   0.138   6.546
  197PMPG   H4S19655   6.890   0.179   6.739
  197PMPG   C2519656   6.705   0.106   6.652
  197PMPG   H5R19657   6.689   0.150   6.749
  197PMPG   H5S19658   6.738   0.006   6.661
  197PMPG   C2619659   6.565   0.164   6.572
  197PMPG   H6R19660   6.539   0.272   6.586
  197PMPG   H6S19661   6.479   0.124   6.624
  197PMPG   C2719662   6.531   0.178   6.416
  197PMPG   H7R19663   6.628   0.183   6.377
  197PMPG   H7S19664   6.474   0.259   6.366
  197PMPG   C2819665   6.509   0.068   6.325
  197PMPG   H8R19666   6.423   0.028   6.375
  197PMPG   H8S19667   6.573   0.016   6.387
  197PMPG   C2919668   6.579   0.045   6.180
  197PMPG   H9R19669   6.684   0.080   6.174
  197PMPG  C21719670   6.533  -0.078   6.081
  197PMPG  H17R19671   6.580  -0.131   6.000
  197PMPG  H17S19672   6.471  -0.143   6.130
  197PMPG  C21019673   6.534   0.061   6.048
  197PMPG  H10R19674   6.615   0.070   5.978
  197PMPG  C21119675   6.414   0.125   6.062
  197PMPG  H11R19676   6.373   0.067   6.142
  197PMPG  H11S19677   6.410   0.221   6.116
  197PMPG  C21219678   6.347   0.108   5.931
  197PMPG  H12R19679   6.255   0.161   5.941
  197PMPG  H12S19680   6.329   0.004   5.900
  197PMPG  C21319681   6.419   0.150   5.810
  197PMPG  H13R19682   6.350   0.145   5.726
  197PMPG  H13S19683   6.507   0.082   5.801
  197PMPG  C21419684   6.464   0.288   5.822
  197PMPG  H14R19685   6.496   0.273   5.921
  197PMPG  H14S19686   6.403   0.366   5.873
  197PMPG  C21519687   6.586   0.312   5.725
  197PMPG  H15R19688   6.654   0.225   5.723
  197PMPG  H15S19689   6.641   0.401   5.750
  197PMPG  C21619690   6.579   0.343   5.587
  197PMPG  H16R19691   6.512   0.271   5.548
  197PMPG  H16S19692   6.612   0.435   5.539
  197PMPG  H16T19693   6.519   0.424   5.616
  197PMPG   C3319694   6.598   0.412   6.889
  197PMPG   H3X19695   6.621   0.358   6.796
  197PMPG   H3Y19696   6.692   0.409   6.947
  197PMPG   C3419697   6.553   0.550   6.849
  197PMPG   H4X19698   6.543   0.612   6.938
  197PMPG   H4Y19699   6.462   0.552   6.788
  197PMPG   C3519700   6.651   0.631   6.774
  197PMPG   H5X19701   6.706   0.682   6.848
  197PMPG   H5Y19702   6.614   0.726   6.763
  197PMPG   C3619703   6.685   0.591   6.630
  197PMPG   H6X19704   6.602   0.558   6.569
  197PMPG   H6Y19705   6.703   0.498   6.663
  197PMPG   C3719706   6.788   0.678   6.553
  197PMPG   H7X19707   6.857   0.676   6.632
  197PMPG   H7Y19708   6.743   0.773   6.531
  197PMPG   C3819709   6.893   0.658   6.440
  197PMPG   H8X19710   6.976   0.587   6.464
  197PMPG   H8Y19711   6.923   0.746   6.380
  197PMPG   C3919712   6.828   0.612   6.322
  197PMPG   H9X19713   6.752   0.673   6.285
  197PMPG   H9Y19714   6.735   0.573   6.375
  197PMPG  C31019715   6.928   0.523   6.231
  197PMPG  H10X19716   6.980   0.435   6.272
  197PMPG  H10Y19717   6.982   0.593   6.175
  197PMPG  C31119718   6.903   0.413   6.127
  197PMPG  H11X19719   6.845   0.481   6.078
  197PMPG  H11Y19720   6.846   0.322   6.139
  197PMPG  C31219721   6.958   0.370   6.007
  197PMPG  H12X19722   6.884   0.389   5.929
  197PMPG  H12Y19723   6.974   0.260   6.019
  197PMPG  C31319724   6.991   0.459   5.903
  197PMPG  H13X19725   7.073   0.421   5.938
  197PMPG  H13Y19726   6.999   0.566   5.926
  197PMPG  C31419727   6.990   0.400   5.762
  197PMPG  H14X19728   7.062   0.475   5.724
  197PMPG  H14Y19729   6.892   0.416   5.720
  197PMPG  C31519730   7.019   0.254   5.739
  197PMPG  H15X19731   6.932   0.191   5.763
  197PMPG  H15Y19732   7.099   0.229   5.805
  197PMPG  C31619733   7.059   0.228   5.595
  197PMPG  H16X19734   7.120   0.140   5.575
  197PMPG  H16Y19735   7.122   0.310   5.558
  197PMPG  H16Z19736   6.966   0.228   5.536
  198PMPG   C1319737   7.538   0.223   7.403
  198PMPG  H13A19738   7.544   0.211   7.293
  198PMPG  H13B19739   7.432   0.201   7.433
  198PMPG   OC319740   7.574   0.357   7.438
  198PMPG   HO319741   7.662   0.374   7.401
  198PMPG   C1219742   7.629   0.115   7.468
  198PMPG  H12A19743   7.607   0.115   7.576
  198PMPG   OC219744   7.767   0.148   7.450
  198PMPG   HO219745   7.820   0.070   7.469
  198PMPG   C1119746   7.602  -0.028   7.414
  198PMPG  H11A19747   7.680  -0.096   7.456
  198PMPG  H11B19748   7.621  -0.026   7.303
  198PMPG     P19749   7.373  -0.128   7.331
  198PMPG   O1319750   7.231  -0.122   7.365
  198PMPG   O1419751   7.424  -0.261   7.294
  198PMPG   O1119752   7.402  -0.020   7.218
  198PMPG   O1219753   7.469  -0.074   7.449
  198PMPG    C119754   7.289   0.058   7.173
  198PMPG    HA19755   7.258   0.135   7.248
  198PMPG    HB19756   7.197  -0.005   7.158
  198PMPG    C219757   7.317   0.121   7.035
  198PMPG    HS19758   7.220   0.141   6.984
  198PMPG   O2119759   7.403   0.038   6.953
  198PMPG   C2119760   7.369  -0.089   6.937
  198PMPG   O2219761   7.260  -0.137   6.960
  198PMPG   C2219762   7.480  -0.160   6.859
  198PMPG   H2R19763   7.511  -0.249   6.918
  198PMPG   H2S19764   7.569  -0.095   6.850
  198PMPG    C319765   7.381   0.261   7.050
  198PMPG    HX19766   7.481   0.250   7.100
  198PMPG    HY19767   7.323   0.322   7.120
  198PMPG   O3119768   7.380   0.326   6.920
  198PMPG   C3119769   7.495   0.296   6.862
  198PMPG   O3219770   7.591   0.255   6.920
  198PMPG   C3219771   7.480   0.292   6.717
  198PMPG   H2X19772   7.424   0.201   6.691
  198PMPG   H2Y19773   7.571   0.289   6.662
  198PMPG   C2319774   7.431  -0.196   6.718
  198PMPG   H3R19775   7.342  -0.135   6.689
  198PMPG   H3S19776   7.403  -0.302   6.721
  198PMPG   C2419777   7.533  -0.174   6.607
  198PMPG   H4R19778   7.492  -0.219   6.514
  198PMPG   H4S19779   7.628  -0.226   6.632
  198PMPG   C2519780   7.560  -0.026   6.584
  198PMPG   H5R19781   7.566   0.025   6.682
  198PMPG   H5S19782   7.482   0.028   6.526
  198PMPG   C2619783   7.695  -0.002   6.521
  198PMPG   H6R19784   7.776  -0.044   6.585
  198PMPG   H6S19785   7.697   0.109   6.522
  198PMPG   C2719786   7.717  -0.039   6.376
  198PMPG   H7R19787   7.815   0.003   6.349
  198PMPG   H7S19788   7.645   0.011   6.310
  198PMPG   C2819789   7.732  -0.187   6.349
  198PMPG   H8R19790   7.637  -0.242   6.367
  198PMPG   H8S19791   7.804  -0.230   6.421
  198PMPG   C2919792   7.782  -0.199   6.206
  198PMPG   H9R19793   7.888  -0.189   6.183
  198PMPG  C21719794   7.706  -0.302   6.140
  198PMPG  H17R19795   7.764  -0.359   6.074
  198PMPG  H17S19796   7.619  -0.334   6.197
  198PMPG  C21019797   7.697  -0.166   6.084
  198PMPG  H10R19798   7.733  -0.183   5.979
  198PMPG  C21119799   7.552  -0.137   6.100
  198PMPG  H11R19800   7.521  -0.149   6.206
  198PMPG  H11S19801   7.538  -0.034   6.069
  198PMPG  C21219802   7.466  -0.227   6.013
  198PMPG  H12R19803   7.479  -0.335   6.040
  198PMPG  H12S19804   7.487  -0.216   5.905
  198PMPG  C21319805   7.320  -0.203   6.041
  198PMPG  H13R19806   7.301  -0.231   6.147
  198PMPG  H13S19807   7.283  -0.279   5.974
  198PMPG  C21419808   7.256  -0.066   6.011
  198PMPG  H14R19809   7.319   0.008   6.062
  198PMPG  H14S19810   7.157  -0.065   6.062
  198PMPG  C21519811   7.233  -0.016   5.864
  198PMPG  H15R19812   7.196   0.085   5.876
  198PMPG  H15S19813   7.144  -0.054   5.809
  198PMPG  C21619814   7.350  -0.020   5.766
  198PMPG  H16R19815   7.368  -0.120   5.725
  198PMPG  H16S19816   7.449  -0.014   5.809
  198PMPG  H16T19817   7.327   0.045   5.678
  198PMPG   C3319818   7.410   0.411   6.674
  198PMPG   H3X19819   7.459   0.511   6.696
  198PMPG   H3Y19820   7.307   0.405   6.703
  198PMPG   C3419821   7.392   0.397   6.529
  198PMPG   H4X19822   7.475   0.443   6.485
  198PMPG   H4Y19823   7.332   0.483   6.543
  198PMPG   C3519824   7.314   0.286   6.455
  198PMPG   H5X19825   7.205   0.310   6.472
  198PMPG   H5Y19826   7.352   0.191   6.491
  198PMPG   C3619827   7.325   0.251   6.303
  198PMPG   H6X19828   7.327   0.350   6.277
  198PMPG   H6Y19829   7.226   0.225   6.260
  198PMPG   C3719830   7.455   0.220   6.219
  198PMPG   H7X19831   7.484   0.117   6.232
  198PMPG   H7Y19832   7.525   0.286   6.268
  198PMPG   C3819833   7.473   0.246   6.065
  198PMPG   H8X19834   7.457   0.347   6.030
  198PMPG   H8Y19835   7.392   0.198   6.009
  198PMPG   C3919836   7.602   0.221   5.994
  198PMPG   H9X19837   7.606   0.115   5.988
  198PMPG   H9Y19838   7.693   0.260   6.046
  198PMPG  C31019839   7.601   0.277   5.853
  198PMPG  H10X19840   7.580   0.371   5.891
  198PMPG  H10Y19841   7.547   0.333   5.777
  198PMPG  C31119842   7.710   0.240   5.777
  198PMPG  H11X19843   7.795   0.247   5.847
  198PMPG  H11Y19844   7.716   0.311   5.691
  198PMPG  C31219845   7.663   0.107   5.731
  198PMPG  H12X19846   7.567   0.124   5.675
  198PMPG  H12Y19847   7.639   0.047   5.819
  198PMPG  C31319848   7.769   0.030   5.662
  198PMPG  H13X19849   7.851   0.002   5.730
  198PMPG  H13Y19850   7.832   0.092   5.602
  198PMPG  C31419851   7.715  -0.073   5.567
  198PMPG  H14X19852   7.638  -0.038   5.495
  198PMPG  H14Y19853   7.664  -0.146   5.634
  198PMPG  C31519854   7.828  -0.126   5.478
  198PMPG  H15X19855   7.930  -0.102   5.516
  198PMPG  H15Y19856   7.822  -0.091   5.373
  198PMPG  C31619857   7.800  -0.269   5.484
  198PMPG  H16X19858   7.792  -0.277   5.591
  198PMPG  H16Y19859   7.881  -0.339   5.465
  198PMPG  H16Z19860   7.706  -0.302   5.434
  199PMPG   C1319861   5.911   4.864   3.621
  199PMPG  H13A19862   5.942   4.949   3.687
  199PMPG  H13B19863   5.913   4.773   3.686
  199PMPG   OC319864   6.002   4.855   3.512
  199PMPG   HO319865   5.974   4.923   3.451
  199PMPG   C1219866   5.770   4.888   3.565
  199PMPG  H12A19867   5.760   4.991   3.528
  199PMPG   OC219868   5.685   4.891   3.670
  199PMPG   HO219869   5.594   4.872   3.642
  199PMPG   C1119870   5.719   4.783   3.465
  199PMPG  H11A19871   5.761   4.811   3.367
  199PMPG  H11B19872   5.608   4.791   3.453
  199PMPG     P19873   5.683   4.560   3.600
  199PMPG   O1319874   5.757   4.548   3.728
  199PMPG   O1419875   5.625   4.439   3.537
  199PMPG   O1119876   5.560   4.651   3.628
  199PMPG   O1219877   5.761   4.651   3.498
  199PMPG    C119878   5.468   4.600   3.720
  199PMPG    HA19879   5.484   4.497   3.759
  199PMPG    HB19880   5.372   4.594   3.662
  199PMPG    C219881   5.463   4.700   3.839
  199PMPG    HS19882   5.437   4.783   3.776
  199PMPG   O2119883   5.569   4.761   3.907
  199PMPG   C2119884   5.591   4.894   3.910
  199PMPG   O2219885   5.546   4.990   3.852
  199PMPG   C2219886   5.715   4.912   3.975
  199PMPG   H2R19887   5.775   4.952   3.890
  199PMPG   H2S19888   5.751   4.813   4.008
  199PMPG    C319889   5.381   4.625   3.946
  199PMPG    HX19890   5.329   4.545   3.891
  199PMPG    HY19891   5.305   4.683   4.003
  199PMPG   O3119892   5.449   4.544   4.035
  199PMPG   C3119893   5.474   4.602   4.148
  199PMPG   O3219894   5.457   4.718   4.180
  199PMPG   C3219895   5.516   4.486   4.232
  199PMPG   H2X19896   5.439   4.407   4.216
  199PMPG   H2Y19897   5.516   4.515   4.337
  199PMPG   C2319898   5.691   5.013   4.085
  199PMPG   H3R19899   5.626   4.966   4.162
  199PMPG   H3S19900   5.639   5.107   4.053
  199PMPG   C2419901   5.831   5.037   4.133
  199PMPG   H4R19902   5.889   5.081   4.049
  199PMPG   H4S19903   5.873   4.935   4.152
  199PMPG   C2519904   5.840   5.115   4.263
  199PMPG   H5R19905   5.799   5.217   4.244
  199PMPG   H5S19906   5.946   5.127   4.292
  199PMPG   C2619907   5.767   5.040   4.377
  199PMPG   H6R19908   5.816   4.941   4.394
  199PMPG   H6S19909   5.660   5.026   4.355
  199PMPG   C2719910   5.767   5.111   4.510
  199PMPG   H7R19911   5.671   5.108   4.563
  199PMPG   H7S19912   5.770   5.219   4.483
  199PMPG   C2819913   5.874   5.059   4.609
  199PMPG   H8R19914   5.853   5.132   4.686
  199PMPG   H8S19915   5.979   5.059   4.578
  199PMPG   C2919916   5.886   4.927   4.675
  199PMPG   H9R19917   5.951   4.854   4.624
  199PMPG  C21719918   5.930   4.936   4.823
  199PMPG  H17R19919   5.999   4.857   4.848
  199PMPG  H17S19920   5.929   5.030   4.875
  199PMPG  C21019921   5.791   4.889   4.780
  199PMPG  H10R19922   5.772   4.782   4.772
  199PMPG  C21119923   5.672   4.984   4.796
  199PMPG  H11R19924   5.700   5.090   4.813
  199PMPG  H11S19925   5.609   4.979   4.704
  199PMPG  C21219926   5.591   4.933   4.915
  199PMPG  H12R19927   5.587   4.822   4.910
  199PMPG  H12S19928   5.488   4.972   4.912
  199PMPG  C21319929   5.651   4.972   5.049
  199PMPG  H13R19930   5.752   4.929   5.066
  199PMPG  H13S19931   5.583   4.929   5.126
  199PMPG  C21419932   5.659   5.121   5.076
  199PMPG  H14R19933   5.565   5.174   5.046
  199PMPG  H14S19934   5.742   5.167   5.018
  199PMPG  C21519935   5.680   5.133   5.226
  199PMPG  H15R19936   5.771   5.075   5.255
  199PMPG  H15S19937   5.588   5.104   5.280
  199PMPG  C21619938   5.705   5.270   5.267
  199PMPG  H16R19939   5.612   5.330   5.263
  199PMPG  H16S19940   5.776   5.306   5.190
  199PMPG  H16T19941   5.754   5.286   5.365
  199PMPG   C3319942   5.650   4.436   4.177
  199PMPG   H3X19943   5.631   4.389   4.077
  199PMPG   H3Y19944   5.684   4.356   4.245
  199PMPG   C3419945   5.764   4.540   4.163
  199PMPG   H4X19946   5.756   4.591   4.064
  199PMPG   H4Y19947   5.860   4.483   4.160
  199PMPG   C3519948   5.777   4.648   4.273
  199PMPG   H5X19949   5.679   4.690   4.302
  199PMPG   H5Y19950   5.834   4.732   4.228
  199PMPG   C3619951   5.853   4.606   4.401
  199PMPG   H6X19952   5.864   4.698   4.462
  199PMPG   H6Y19953   5.955   4.569   4.375
  199PMPG   C3719954   5.778   4.503   4.487
  199PMPG   H7X19955   5.787   4.404   4.438
  199PMPG   H7Y19956   5.672   4.534   4.492
  199PMPG   C3819957   5.827   4.491   4.632
  199PMPG   H8X19958   5.788   4.396   4.673
  199PMPG   H8Y19959   5.782   4.570   4.694
  199PMPG   C3919960   5.980   4.491   4.643
  199PMPG   H9X19961   6.015   4.593   4.614
  199PMPG   H9Y19962   6.020   4.418   4.569
  199PMPG  C31019963   6.039   4.457   4.780
  199PMPG  H10X19964   6.148   4.479   4.770
  199PMPG  H10Y19965   6.028   4.349   4.801
  199PMPG  C31119966   5.986   4.544   4.896
  199PMPG  H11X19967   5.957   4.643   4.856
  199PMPG  H11Y19968   6.068   4.563   4.969
  199PMPG  C31219969   5.863   4.486   4.968
  199PMPG  H12X19970   5.894   4.397   5.027
  199PMPG  H12Y19971   5.791   4.450   4.891
  199PMPG  C31319972   5.785   4.589   5.055
  199PMPG  H13X19973   5.721   4.534   5.128
  199PMPG  H13Y19974   5.722   4.655   4.992
  199PMPG  C31419975   5.874   4.680   5.135
  199PMPG  H14X19976   5.819   4.750   5.203
  199PMPG  H14Y19977   5.937   4.745   5.070
  199PMPG  C31519978   5.956   4.591   5.221
  199PMPG  H15X19979   5.996   4.495   5.181
  199PMPG  H15Y19980   5.920   4.581   5.322
  199PMPG  C31619981   6.064   4.668   5.255
  199PMPG  H16X19982   6.135   4.601   5.309
  199PMPG  H16Y19983   6.038   4.753   5.323
  199PMPG  H16Z19984   6.111   4.711   5.163
  200PMPG   C1319985   4.453   6.498   3.348
  200PMPG  H13A19986   4.452   6.543   3.248
  200PMPG  H13B19987   4.554   6.513   3.393
  200PMPG   OC319988   4.426   6.359   3.328
  200PMPG   HO319989   4.505   6.323   3.287
  200PMPG   C1219990   4.347   6.571   3.434
  200PMPG  H12A19991   4.246   6.539   3.400
  200PMPG   OC219992   4.356   6.711   3.413
  200PMPG   HO219993   4.302   6.752   3.481
  200PMPG   C1119994   4.362   6.537   3.585
  200PMPG  H11A19995   4.334   6.429   3.592
  200PMPG  H11B19996   4.289   6.596   3.644
  200PMPG     P19997   4.545   6.482   3.761
  200PMPG   O1319998   4.676   6.420   3.732
  200PMPG   O1419999   4.434   6.399   3.814
  200PMPG   O1120000   4.574   6.599   3.860
  200PMPG   O1220001   4.497   6.559   3.631
  200PMPG    C120002   4.627   6.722   3.812
  200PMPG    HA20003   4.592   6.750   3.709
  200PMPG    HB20004   4.736   6.726   3.822
  200PMPG    C220005   4.573   6.831   3.897
  200PMPG    HS20006   4.606   6.934   3.872
  200PMPG   O2120007   4.588   6.804   4.035
  200PMPG   C2120008   4.674   6.871   4.092
  200PMPG   O2220009   4.758   6.941   4.037
  200PMPG   C2220010   4.670   6.827   4.236
  200PMPG   H2R20011   4.712   6.730   4.209
  200PMPG   H2S20012   4.577   6.796   4.283
  200PMPG    C320013   4.427   6.836   3.864
  200PMPG    HX20014   4.402   6.886   3.770
  200PMPG    HY20015   4.418   6.902   3.950
  200PMPG   O3120016   4.343   6.723   3.869
  200PMPG   C3120017   4.336   6.686   3.990
  200PMPG   O3220018   4.382   6.729   4.091
  200PMPG   C3220019   4.239   6.601   4.012
  200PMPG   H2X20020   4.221   6.537   3.926
  200PMPG   H2Y20021   4.169   6.689   4.025
  200PMPG   C2320022   4.747   6.919   4.329
  200PMPG   H3R20023   4.692   7.014   4.344
  200PMPG   H3S20024   4.845   6.945   4.279
  200PMPG   C2420025   4.778   6.862   4.469
  200PMPG   H4R20026   4.848   6.782   4.490
  200PMPG   H4S20027   4.704   6.814   4.532
  200PMPG   C2520028   4.895   6.934   4.509
  200PMPG   H5R20029   4.857   7.030   4.477
  200PMPG   H5S20030   4.995   6.940   4.485
  200PMPG   C2620031   4.938   6.910   4.642
  200PMPG   H6R20032   4.834   6.897   4.673
  200PMPG   H6S20033   5.006   6.997   4.663
  200PMPG   C2720034   5.015   6.812   4.696
  200PMPG   H7R20035   5.097   6.843   4.633
  200PMPG   H7S20036   4.940   6.731   4.679
  200PMPG   C2820037   5.075   6.819   4.826
  200PMPG   H8R20038   5.004   6.743   4.863
  200PMPG   H8S20039   5.107   6.904   4.889
  200PMPG   C2920040   5.184   6.756   4.837
  200PMPG   H9R20041   5.280   6.812   4.828
  200PMPG  C21720042   5.223   6.708   4.956
  200PMPG  H17R20043   5.328   6.690   4.976
  200PMPG  H17S20044   5.162   6.720   5.040
  200PMPG  C21020045   5.140   6.610   4.840
  200PMPG  H10R20046   5.184   6.539   4.781
  200PMPG  C21120047   5.000   6.504   4.849
  200PMPG  H11R20048   4.919   6.547   4.906
  200PMPG  H11S20049   4.958   6.473   4.749
  200PMPG  C21220050   5.004   6.348   4.895
  200PMPG  H12R20051   5.082   6.293   4.955
  200PMPG  H12S20052   5.094   6.296   4.862
  200PMPG  C21320053   4.892   6.291   4.976
  200PMPG  H13R20054   4.952   6.236   5.052
  200PMPG  H13S20055   4.831   6.235   4.903
  200PMPG  C21420056   4.806   6.351   5.086
  200PMPG  H14R20057   4.728   6.275   5.104
  200PMPG  H14S20058   4.771   6.446   5.042
  200PMPG  C21520059   4.863   6.364   5.230
  200PMPG  H15R20060   4.800   6.422   5.297
  200PMPG  H15S20061   4.907   6.461   5.226
  200PMPG  C21620062   4.954   6.250   5.294
  200PMPG  H16R20063   5.025   6.271   5.376
  200PMPG  H16S20064   5.029   6.202   5.227
  200PMPG  H16T20065   4.889   6.179   5.344
  200PMPG   C3320066   4.261   6.532   4.150
  200PMPG   H3X20067   4.231   6.595   4.236
  200PMPG   H3Y20068   4.372   6.521   4.155
  200PMPG   C3420069   4.206   6.391   4.175
  200PMPG   H4X20070   4.241   6.326   4.093
  200PMPG   H4Y20071   4.100   6.367   4.171
  200PMPG   C3520072   4.229   6.347   4.320
  200PMPG   H5X20073   4.234   6.236   4.319
  200PMPG   H5Y20074   4.144   6.376   4.387
  200PMPG   C3620075   4.357   6.408   4.377
  200PMPG   H6X20076   4.349   6.519   4.388
  200PMPG   H6Y20077   4.436   6.387   4.302
  200PMPG   C3720078   4.389   6.351   4.514
  200PMPG   H7X20079   4.368   6.241   4.511
  200PMPG   H7Y20080   4.318   6.396   4.588
  200PMPG   C3820081   4.535   6.374   4.558
  200PMPG   H8X20082   4.600   6.314   4.491
  200PMPG   H8Y20083   4.545   6.331   4.660
  200PMPG   C3920084   4.588   6.518   4.556
  200PMPG   H9X20085   4.580   6.562   4.454
  200PMPG   H9Y20086   4.697   6.513   4.580
  200PMPG  C31020087   4.524   6.609   4.662
  200PMPG  H10X20088   4.414   6.595   4.660
  200PMPG  H10Y20089   4.546   6.716   4.642
  200PMPG  C31120090   4.578   6.571   4.800
  200PMPG  H11X20091   4.689   6.567   4.795
  200PMPG  H11Y20092   4.539   6.468   4.822
  200PMPG  C31220093   4.537   6.661   4.917
  200PMPG  H12X20094   4.576   6.763   4.897
  200PMPG  H12Y20095   4.588   6.622   5.008
  200PMPG  C31320096   4.385   6.666   4.940
  200PMPG  H13X20097   4.342   6.564   4.943
  200PMPG  H13Y20098   4.344   6.709   4.848
  200PMPG  C31420099   4.336   6.744   5.063
  200PMPG  H14X20100   4.379   6.705   5.158
  200PMPG  H14Y20101   4.226   6.751   5.072
  200PMPG  C31520102   4.390   6.881   5.076
  200PMPG  H15X20103   4.412   6.947   4.997
  200PMPG  H15Y20104   4.499   6.866   5.072
  200PMPG  C31620105   4.315   6.972   5.181
  200PMPG  H16X20106   4.349   6.954   5.283
  200PMPG  H16Y20107   4.205   6.976   5.182
  200PMPG  H16Z20108   4.346   7.078   5.155
  201PMPG   C1320109   2.550   1.144   3.569
  201PMPG  H13A20110   2.476   1.217   3.607
  201PMPG  H13B20111   2.512   1.105   3.472
  201PMPG   OC320112   2.561   1.036   3.660
  201PMPG   HO320113   2.484   0.980   3.644
  201PMPG   C1220114   2.686   1.212   3.544
  201PMPG  H12A20115   2.749   1.132   3.503
  201PMPG   OC220116   2.755   1.245   3.665
  201PMPG   HO220117   2.815   1.318   3.647
  201PMPG   C1120118   2.681   1.332   3.445
  201PMPG  H11A20119   2.653   1.291   3.345
  201PMPG  H11B20120   2.780   1.381   3.431
  201PMPG     P20121   2.613   1.530   3.597
  201PMPG   O1320122   2.538   1.655   3.574
  201PMPG   O1420123   2.758   1.544   3.621
  201PMPG   O1120124   2.555   1.446   3.714
  201PMPG   O1220125   2.585   1.430   3.478
  201PMPG    C120126   2.417   1.433   3.720
  201PMPG    HA20127   2.395   1.335   3.770
  201PMPG    HB20128   2.361   1.427   3.623
  201PMPG    C220129   2.368   1.547   3.804
  201PMPG    HS20130   2.330   1.633   3.741
  201PMPG   O2120131   2.458   1.591   3.905
  201PMPG   C2120132   2.426   1.695   3.974
  201PMPG   O2220133   2.323   1.760   3.969
  201PMPG   C2220134   2.541   1.716   4.073
  201PMPG   H2R20135   2.522   1.799   4.135
  201PMPG   H2S20136   2.632   1.736   4.017
  201PMPG    C320137   2.256   1.474   3.859
  201PMPG    HX20138   2.190   1.453   3.776
  201PMPG    HY20139   2.193   1.563   3.886
  201PMPG   O3120140   2.281   1.352   3.957
  201PMPG   C3120141   2.232   1.290   4.074
  201PMPG   O3220142   2.140   1.305   4.147
  201PMPG   C3220143   2.293   1.182   4.144
  201PMPG   H2X20144   2.389   1.171   4.096
  201PMPG   H2Y20145   2.208   1.110   4.123
  201PMPG   C2320146   2.550   1.623   4.194
  201PMPG   H3R20147   2.557   1.519   4.156
  201PMPG   H3S20148   2.456   1.650   4.249
  201PMPG   C2420149   2.639   1.651   4.314
  201PMPG   H4R20150   2.641   1.561   4.378
  201PMPG   H4S20151   2.593   1.733   4.375
  201PMPG   C2520152   2.775   1.695   4.269
  201PMPG   H5R20153   2.759   1.767   4.186
  201PMPG   H5S20154   2.830   1.607   4.229
  201PMPG   C2620155   2.852   1.772   4.376
  201PMPG   H6R20156   2.789   1.850   4.425
  201PMPG   H6S20157   2.931   1.826   4.318
  201PMPG   C2720158   2.927   1.685   4.475
  201PMPG   H7R20159   3.002   1.632   4.411
  201PMPG   H7S20160   2.864   1.608   4.524
  201PMPG   C2820161   3.002   1.764   4.584
  201PMPG   H8R20162   2.933   1.824   4.646
  201PMPG   H8S20163   3.070   1.836   4.533
  201PMPG   C2920164   3.078   1.668   4.673
  201PMPG   H9R20165   3.152   1.599   4.626
  201PMPG  C21720166   3.120   1.718   4.810
  201PMPG  H17R20167   3.219   1.690   4.828
  201PMPG  H17S20168   3.087   1.815   4.841
  201PMPG  C21020169   3.010   1.613   4.798
  201PMPG  H10R20170   3.029   1.509   4.816
  201PMPG  C21120171   2.878   1.662   4.853
  201PMPG  H11R20172   2.874   1.772   4.842
  201PMPG  H11S20173   2.798   1.615   4.793
  201PMPG  C21220174   2.855   1.625   5.002
  201PMPG  H12R20175   2.848   1.514   5.015
  201PMPG  H12S20176   2.755   1.668   5.028
  201PMPG  C21320177   2.960   1.677   5.103
  201PMPG  H13R20178   2.966   1.787   5.092
  201PMPG  H13S20179   3.059   1.634   5.075
  201PMPG  C21420180   2.936   1.642   5.251
  201PMPG  H14R20181   3.006   1.700   5.315
  201PMPG  H14S20182   2.963   1.535   5.270
  201PMPG  C21520183   2.792   1.676   5.292
  201PMPG  H15R20184   2.723   1.601   5.246
  201PMPG  H15S20185   2.767   1.777   5.253
  201PMPG  C21620186   2.766   1.684   5.440
  201PMPG  H16R20187   2.780   1.580   5.468
  201PMPG  H16S20188   2.663   1.717   5.466
  201PMPG  H16T20189   2.842   1.741   5.497
  201PMPG   C3320190   2.295   1.204   4.301
  201PMPG   H3X20191   2.208   1.252   4.356
  201PMPG   H3Y20192   2.381   1.269   4.327
  201PMPG   C3420193   2.332   1.074   4.358
  201PMPG   H4X20194   2.430   1.060   4.307
  201PMPG   H4Y20195   2.257   1.001   4.321
  201PMPG   C3520196   2.359   1.072   4.507
  201PMPG   H5X20197   2.385   0.966   4.529
  201PMPG   H5Y20198   2.269   1.096   4.568
  201PMPG   C3620199   2.480   1.157   4.550
  201PMPG   H6X20200   2.464   1.265   4.530
  201PMPG   H6Y20201   2.570   1.131   4.491
  201PMPG   C3720202   2.509   1.132   4.698
  201PMPG   H7X20203   2.618   1.137   4.717
  201PMPG   H7Y20204   2.477   1.028   4.723
  201PMPG   C3820205   2.435   1.229   4.790
  201PMPG   H8X20206   2.325   1.221   4.776
  201PMPG   H8Y20207   2.467   1.333   4.770
  201PMPG   C3920208   2.464   1.207   4.936
  201PMPG   H9X20209   2.574   1.192   4.946
  201PMPG   H9Y20210   2.414   1.117   4.977
  201PMPG  C31020211   2.420   1.327   5.016
  201PMPG  H10X20212   2.317   1.363   4.990
  201PMPG  H10Y20213   2.487   1.416   5.002
  201PMPG  C31120214   2.421   1.283   5.162
  201PMPG  H11X20215   2.331   1.224   5.187
  201PMPG  H11Y20216   2.404   1.389   5.198
  201PMPG  C31220217   2.555   1.203   5.203
  201PMPG  H12X20218   2.621   1.286   5.172
  201PMPG  H12Y20219   2.576   1.122   5.134
  201PMPG  C31320220   2.595   1.131   5.347
  201PMPG  H13X20221   2.548   1.041   5.377
  201PMPG  H13Y20222   2.503   1.171   5.393
  201PMPG  C31420223   2.743   1.152   5.432
  201PMPG  H14X20224   2.796   1.252   5.423
  201PMPG  H14Y20225   2.822   1.110   5.370
  201PMPG  C31520226   2.761   1.149   5.595
  201PMPG  H15X20227   2.702   1.071   5.646
  201PMPG  H15Y20228   2.701   1.186   5.685
  201PMPG  C31620229   2.901   1.203   5.624
  201PMPG  H16X20230   2.970   1.144   5.564
  201PMPG  H16Y20231   2.900   1.202   5.734
  201PMPG  H16Z20232   2.945   1.304   5.625
  202PMPG   C1320233   1.522   0.956   3.430
  202PMPG  H13A20234   1.550   0.928   3.328
  202PMPG  H13B20235   1.420   0.916   3.454
  202PMPG   OC320236   1.522   1.098   3.445
  202PMPG   HO320237   1.448   1.136   3.397
  202PMPG   C1220238   1.618   0.884   3.527
  202PMPG  H12A20239   1.601   0.775   3.523
  202PMPG   OC220240   1.575   0.910   3.658
  202PMPG   HO220241   1.659   0.922   3.707
  202PMPG   C1120242   1.770   0.902   3.500
  202PMPG  H11A20243   1.794   0.882   3.395
  202PMPG  H11B20244   1.829   0.829   3.561
  202PMPG     P20245   1.861   1.068   3.658
  202PMPG   O1320246   1.770   1.169   3.710
  202PMPG   O1420247   2.009   1.084   3.655
  202PMPG   O1120248   1.821   0.954   3.760
  202PMPG   O1220249   1.815   1.033   3.516
  202PMPG    C120250   1.731   0.996   3.869
  202PMPG    HA20251   1.636   1.049   3.836
  202PMPG    HB20252   1.776   1.071   3.939
  202PMPG    C220253   1.685   0.870   3.938
  202PMPG    HS20254   1.621   0.812   3.867
  202PMPG   O2120255   1.618   0.901   4.058
  202PMPG   C2120256   1.489   0.920   4.054
  202PMPG   O2220257   1.416   0.918   3.956
  202PMPG   C2220258   1.447   0.934   4.199
  202PMPG   H2R20259   1.354   0.987   4.207
  202PMPG   H2S20260   1.523   0.993   4.254
  202PMPG    C320261   1.807   0.779   3.970
  202PMPG    HX20262   1.863   0.758   3.876
  202PMPG    HY20263   1.761   0.684   4.005
  202PMPG   O3120264   1.895   0.843   4.066
  202PMPG   C3120265   1.890   0.800   4.191
  202PMPG   O3220266   1.839   0.696   4.229
  202PMPG   C3220267   1.961   0.901   4.279
  202PMPG   H2X20268   2.056   0.925   4.226
  202PMPG   H2Y20269   1.984   0.855   4.376
  202PMPG   C2320270   1.411   0.801   4.263
  202PMPG   H3R20271   1.359   0.733   4.191
  202PMPG   H3S20272   1.336   0.822   4.343
  202PMPG   C2420273   1.535   0.730   4.314
  202PMPG   H4R20274   1.592   0.793   4.386
  202PMPG   H4S20275   1.601   0.706   4.228
  202PMPG   C2520276   1.500   0.601   4.381
  202PMPG   H5R20277   1.590   0.549   4.420
  202PMPG   H5S20278   1.449   0.533   4.309
  202PMPG   C2620279   1.411   0.627   4.500
  202PMPG   H6R20280   1.399   0.522   4.528
  202PMPG   H6S20281   1.311   0.670   4.474
  202PMPG   C2720282   1.471   0.694   4.623
  202PMPG   H7R20283   1.389   0.714   4.696
  202PMPG   H7S20284   1.507   0.793   4.587
  202PMPG   C2820285   1.590   0.618   4.692
  202PMPG   H8R20286   1.616   0.675   4.783
  202PMPG   H8S20287   1.677   0.622   4.624
  202PMPG   C2920288   1.580   0.469   4.733
  202PMPG   H9R20289   1.571   0.395   4.651
  202PMPG  C21720290   1.660   0.432   4.859
  202PMPG  H17R20291   1.682   0.329   4.883
  202PMPG  H17S20292   1.681   0.515   4.926
  202PMPG  C21020293   1.512   0.426   4.861
  202PMPG  H10R20294   1.462   0.329   4.843
  202PMPG  C21120295   1.451   0.538   4.941
  202PMPG  H11R20296   1.491   0.639   4.942
  202PMPG  H11S20297   1.387   0.555   4.858
  202PMPG  C21220298   1.400   0.490   5.079
  202PMPG  H12R20299   1.473   0.474   5.158
  202PMPG  H12S20300   1.358   0.391   5.061
  202PMPG  C21320301   1.316   0.578   5.168
  202PMPG  H13R20302   1.291   0.543   5.267
  202PMPG  H13S20303   1.214   0.595   5.154
  202PMPG  C21420304   1.354   0.711   5.156
  202PMPG  H14R20305   1.365   0.753   5.052
  202PMPG  H14S20306   1.445   0.708   5.221
  202PMPG  C21520307   1.240   0.769   5.229
  202PMPG  H15R20308   1.313   0.845   5.201
  202PMPG  H15S20309   1.244   0.756   5.339
  202PMPG  C21620310   1.096   0.793   5.172
  202PMPG  H16R20311   0.992   0.762   5.171
  202PMPG  H16S20312   1.100   0.811   5.066
  202PMPG  H16T20313   1.058   0.859   5.255
  202PMPG   C3320314   1.885   1.036   4.295
  202PMPG   H3X20315   1.796   1.024   4.360
  202PMPG   H3Y20316   1.852   1.072   4.194
  202PMPG   C3420317   1.979   1.140   4.354
  202PMPG   H4X20318   2.052   1.155   4.275
  202PMPG   H4Y20319   2.033   1.101   4.443
  202PMPG   C3520320   1.924   1.278   4.387
  202PMPG   H5X20321   1.884   1.327   4.294
  202PMPG   H5Y20322   2.003   1.343   4.426
  202PMPG   C3620323   1.824   1.279   4.499
  202PMPG   H6X20324   1.748   1.209   4.462
  202PMPG   H6Y20325   1.793   1.386   4.509
  202PMPG   C3720326   1.868   1.239   4.639
  202PMPG   H7X20327   1.950   1.310   4.662
  202PMPG   H7Y20328   1.906   1.135   4.638
  202PMPG   C3820329   1.761   1.256   4.747
  202PMPG   H8X20330   1.727   1.361   4.738
  202PMPG   H8Y20331   1.806   1.255   4.848
  202PMPG   C3920332   1.644   1.155   4.740
  202PMPG   H9X20333   1.613   1.143   4.635
  202PMPG   H9Y20334   1.554   1.191   4.795
  202PMPG  C31020335   1.676   1.014   4.790
  202PMPG  H10X20336   1.773   0.981   4.746
  202PMPG  H10Y20337   1.596   0.947   4.749
  202PMPG  C31120338   1.682   1.000   4.943
  202PMPG  H11X20339   1.594   1.049   4.990
  202PMPG  H11Y20340   1.772   1.054   4.979
  202PMPG  C31220341   1.688   0.852   4.984
  202PMPG  H12X20342   1.774   0.802   4.932
  202PMPG  H12Y20343   1.594   0.804   4.951
  202PMPG  C31320344   1.698   0.819   5.132
  202PMPG  H13X20345   1.665   0.712   5.142
  202PMPG  H13Y20346   1.631   0.881   5.195
  202PMPG  C31420347   1.839   0.827   5.186
  202PMPG  H14X20348   1.881   0.928   5.200
  202PMPG  H14Y20349   1.898   0.779   5.106
  202PMPG  C31520350   1.834   0.759   5.323
  202PMPG  H15X20351   1.790   0.656   5.312
  202PMPG  H15Y20352   1.775   0.832   5.377
  202PMPG  C31620353   1.952   0.761   5.416
  202PMPG  H16X20354   2.014   0.702   5.483
  202PMPG  H16Y20355   2.023   0.842   5.400
  202PMPG  H16Z20356   1.968   0.652   5.384
  203PMPG   C1320357   1.402   7.252   3.396
  203PMPG  H13A20358   1.316   7.227   3.463
  203PMPG  H13B20359   1.360   7.285   3.303
  203PMPG   OC320360   1.480   7.139   3.361
  203PMPG   HO320361   1.490   7.146   3.265
  203PMPG   C1220362   1.485   7.372   3.446
  203PMPG  H12A20363   1.420   7.462   3.453
  203PMPG   OC220364   1.592   7.403   3.356
  203PMPG   HO220365   1.652   7.454   3.413
  203PMPG   C1120366   1.543   7.342   3.585
  203PMPG  H11A20367   1.589   7.241   3.584
  203PMPG  H11B20368   1.457   7.339   3.657
  203PMPG     P20369   1.655   7.507   3.757
  203PMPG   O1320370   1.586   7.637   3.750
  203PMPG   O1420371   1.797   7.502   3.797
  203PMPG   O1120372   1.571   7.407   3.848
  203PMPG   O1220373   1.642   7.438   3.616
  203PMPG    C120374   1.639   7.285   3.884
  203PMPG    HA20375   1.715   7.310   3.963
  203PMPG    HB20376   1.688   7.240   3.797
  203PMPG    C220377   1.545   7.180   3.943
  203PMPG    HS20378   1.476   7.139   3.865
  203PMPG   O2120379   1.483   7.259   4.041
  203PMPG   C2120380   1.385   7.200   4.082
  203PMPG   O2220381   1.336   7.096   4.036
  203PMPG   C2220382   1.342   7.294   4.192
  203PMPG   H2R20383   1.319   7.393   4.145
  203PMPG   H2S20384   1.395   7.310   4.285
  203PMPG    C320385   1.610   7.062   4.010
  203PMPG    HX20386   1.666   7.008   3.932
  203PMPG    HY20387   1.546   6.984   4.057
  203PMPG   O3120388   1.692   7.132   4.101
  203PMPG   C3120389   1.662   7.127   4.226
  203PMPG   O3220390   1.572   7.070   4.283
  203PMPG   C3220391   1.776   7.175   4.296
  203PMPG   H2X20392   1.827   7.264   4.250
  203PMPG   H2Y20393   1.834   7.082   4.289
  203PMPG   C2320394   1.232   7.219   4.248
  203PMPG   H3R20395   1.193   7.132   4.188
  203PMPG   H3S20396   1.161   7.308   4.262
  203PMPG   C2420397   1.210   7.180   4.379
  203PMPG   H4R20398   1.114   7.124   4.380
  203PMPG   H4S20399   1.202   7.276   4.433
  203PMPG   C2520400   1.272   7.057   4.415
  203PMPG   H5R20401   1.369   7.107   4.420
  203PMPG   H5S20402   1.256   6.989   4.327
  203PMPG   C2620403   1.211   7.001   4.544
  203PMPG   H6R20404   1.288   6.938   4.587
  203PMPG   H6S20405   1.118   6.941   4.522
  203PMPG   C2720406   1.163   7.108   4.644
  203PMPG   H7R20407   1.103   7.072   4.730
  203PMPG   H7S20408   1.096   7.149   4.573
  203PMPG   C2820409   1.243   7.234   4.676
  203PMPG   H8R20410   1.200   7.289   4.761
  203PMPG   H8S20411   1.239   7.312   4.599
  203PMPG   C2920412   1.384   7.187   4.686
  203PMPG   H9R20413   1.442   7.177   4.594
  203PMPG  C21720414   1.456   7.231   4.809
  203PMPG  H17R20415   1.560   7.250   4.788
  203PMPG  H17S20416   1.394   7.290   4.875
  203PMPG  C21020417   1.417   7.084   4.791
  203PMPG  H10R20418   1.499   7.016   4.764
  203PMPG  C21120419   1.311   7.026   4.885
  203PMPG  H11R20420   1.227   7.097   4.898
  203PMPG  H11S20421   1.271   6.931   4.842
  203PMPG  C21220422   1.371   6.992   5.021
  203PMPG  H12R20423   1.426   6.895   5.016
  203PMPG  H12S20424   1.287   6.979   5.093
  203PMPG  C21320425   1.469   7.098   5.075
  203PMPG  H13R20426   1.419   7.197   5.074
  203PMPG  H13S20427   1.558   7.105   5.009
  203PMPG  C21420428   1.518   7.061   5.215
  203PMPG  H14R20429   1.615   7.113   5.234
  203PMPG  H14S20430   1.537   6.952   5.216
  203PMPG  C21520431   1.415   7.101   5.321
  203PMPG  H15R20432   1.445   7.063   5.421
  203PMPG  H15S20433   1.319   7.050   5.295
  203PMPG  C21620434   1.394   7.252   5.325
  203PMPG  H16R20435   1.398   7.294   5.427
  203PMPG  H16S20436   1.298   7.281   5.277
  203PMPG  H16T20437   1.477   7.301   5.268
  203PMPG   C3320438   1.730   7.183   4.439
  203PMPG   H3X20439   1.712   7.082   4.486
  203PMPG   H3Y20440   1.666   7.269   4.465
  203PMPG   C3420441   1.839   7.226   4.513
  203PMPG   H4X20442   1.886   7.289   4.437
  203PMPG   H4Y20443   1.892   7.128   4.515
  203PMPG   C3520444   1.823   7.308   4.642
  203PMPG   H5X20445   1.912   7.285   4.702
  203PMPG   H5Y20446   1.747   7.274   4.711
  203PMPG   C3620447   1.814   7.460   4.621
  203PMPG   H6X20448   1.792   7.473   4.513
  203PMPG   H6Y20449   1.904   7.525   4.624
  203PMPG   C3720450   1.703   7.513   4.711
  203PMPG   H7X20451   1.617   7.448   4.704
  203PMPG   H7Y20452   1.672   7.597   4.651
  203PMPG   C3820453   1.729   7.533   4.865
  203PMPG   H8X20454   1.813   7.598   4.900
  203PMPG   H8Y20455   1.737   7.426   4.876
  203PMPG   C3920456   1.640   7.603   4.969
  203PMPG   H9X20457   1.537   7.590   4.941
  203PMPG   H9Y20458   1.669   7.709   4.989
  203PMPG  C31020459   1.673   7.585   5.111
  203PMPG  H10X20460   1.769   7.630   5.145
  203PMPG  H10Y20461   1.658   7.477   5.114
  203PMPG  C31120462   1.592   7.663   5.207
  203PMPG  H11X20463   1.493   7.673   5.159
  203PMPG  H11Y20464   1.637   7.764   5.219
  203PMPG  C31220465   1.598   7.590   5.339
  203PMPG  H12X20466   1.695   7.608   5.393
  203PMPG  H12Y20467   1.584   7.482   5.321
  203PMPG  C31320468   1.481   7.625   5.421
  203PMPG  H13X20469   1.485   7.576   5.521
  203PMPG  H13Y20470   1.392   7.591   5.364
  203PMPG  C31420471   1.478   7.771   5.432
  203PMPG  H14X20472   1.459   7.827   5.338
  203PMPG  H14Y20473   1.580   7.798   5.470
  203PMPG  C31520474   1.371   7.811   5.527
  203PMPG  H15X20475   1.350   7.921   5.528
  203PMPG  H15Y20476   1.418   7.782   5.625
  203PMPG  C31620477   1.242   7.739   5.499
  203PMPG  H16X20478   1.201   7.756   5.400
  203PMPG  H16Y20479   1.155   7.783   5.543
  203PMPG  H16Z20480   1.243   7.636   5.537
  204PMPG   C1320481   8.181   5.171   3.344
  204PMPG  H13A20482   8.160   5.073   3.309
  204PMPG  H13B20483   8.098   5.232   3.299
  204PMPG   OC320484   8.310   5.189   3.292
  204PMPG   HO320485   8.294   5.169   3.199
  204PMPG   C1220486   8.182   5.167   3.495
  204PMPG  H12A20487   8.200   5.271   3.531
  204PMPG   OC220488   8.288   5.083   3.542
  204PMPG   HO220489   8.276   5.082   3.637
  204PMPG   C1120490   8.045   5.114   3.539
  204PMPG  H11A20491   8.036   5.006   3.512
  204PMPG  H11B20492   7.966   5.169   3.483
  204PMPG     P20493   7.905   5.060   3.749
  204PMPG   O1320494   7.942   4.918   3.770
  204PMPG   O1420495   7.786   5.094   3.669
  204PMPG   O1120496   7.904   5.136   3.881
  204PMPG   O1220497   8.027   5.134   3.677
  204PMPG    C120498   8.005   5.217   3.938
  204PMPG    HA20499   7.952   5.294   3.997
  204PMPG    HB20500   8.063   5.273   3.862
  204PMPG    C220501   8.094   5.128   4.030
  204PMPG    HS20502   8.169   5.075   3.968
  204PMPG   O2120503   8.012   5.037   4.093
  204PMPG   C2120504   8.074   4.964   4.176
  204PMPG   O2220505   8.192   4.935   4.185
  204PMPG   C2220506   7.972   4.896   4.245
  204PMPG   H2R20507   8.020   4.825   4.309
  204PMPG   H2S20508   7.950   4.836   4.163
  204PMPG    C320509   8.163   5.204   4.141
  204PMPG    HX20510   8.227   5.253   4.068
  204PMPG    HY20511   8.236   5.162   4.212
  204PMPG   O3120512   8.052   5.260   4.213
  204PMPG   C3120513   8.067   5.365   4.281
  204PMPG   O3220514   8.115   5.470   4.264
  204PMPG   C3220515   8.009   5.375   4.400
  204PMPG   H2X20516   8.003   5.278   4.443
  204PMPG   H2Y20517   7.920   5.430   4.356
  204PMPG   C2320518   7.854   4.974   4.297
  204PMPG   H3R20519   7.750   4.944   4.312
  204PMPG   H3S20520   7.821   5.055   4.237
  204PMPG   C2420521   7.900   4.991   4.433
  204PMPG   H4R20522   7.802   5.012   4.480
  204PMPG   H4S20523   7.975   5.071   4.415
  204PMPG   C2520524   7.957   4.879   4.518
  204PMPG   H5R20525   8.037   4.814   4.488
  204PMPG   H5S20526   7.859   4.832   4.501
  204PMPG   C2620527   7.984   4.896   4.665
  204PMPG   H6R20528   7.966   4.820   4.742
  204PMPG   H6S20529   7.893   4.956   4.677
  204PMPG   C2720530   8.125   4.933   4.706
  204PMPG   H7R20531   8.186   4.844   4.730
  204PMPG   H7S20532   8.126   4.981   4.803
  204PMPG   C2820533   8.197   5.027   4.615
  204PMPG   H8R20534   8.159   5.129   4.606
  204PMPG   H8S20535   8.199   4.989   4.512
  204PMPG   C2920536   8.327   5.040   4.684
  204PMPG   H9R20537   8.395   4.957   4.671
  204PMPG  C21720538   8.380   5.166   4.630
  204PMPG  H17R20539   8.477   5.199   4.640
  204PMPG  H17S20540   8.310   5.230   4.580
  204PMPG  C21020541   8.358   5.152   4.776
  204PMPG  H10R20542   8.429   5.145   4.858
  204PMPG  C21120543   8.276   5.251   4.819
  204PMPG  H11R20544   8.199   5.268   4.744
  204PMPG  H11S20545   8.265   5.194   4.909
  204PMPG  C21220546   8.331   5.375   4.878
  204PMPG  H12R20547   8.347   5.440   4.792
  204PMPG  H12S20548   8.409   5.334   4.934
  204PMPG  C21320549   8.275   5.449   4.997
  204PMPG  H13R20550   8.187   5.454   4.942
  204PMPG  H13S20551   8.309   5.551   5.008
  204PMPG  C21420552   8.217   5.390   5.120
  204PMPG  H14R20553   8.173   5.318   5.071
  204PMPG  H14S20554   8.123   5.411   5.173
  204PMPG  C21520555   8.295   5.361   5.228
  204PMPG  H15R20556   8.353   5.278   5.183
  204PMPG  H15S20557   8.231   5.335   5.311
  204PMPG  C21620558   8.352   5.491   5.256
  204PMPG  H16R20559   8.409   5.470   5.342
  204PMPG  H16S20560   8.324   5.576   5.307
  204PMPG  H16T20561   8.391   5.550   5.171
  204PMPG   C3320562   8.074   5.471   4.489
  204PMPG   H3X20563   8.111   5.572   4.441
  204PMPG   H3Y20564   8.149   5.437   4.561
  204PMPG   C3420565   7.946   5.504   4.558
  204PMPG   H4X20566   7.879   5.548   4.488
  204PMPG   H4Y20567   8.020   5.577   4.589
  204PMPG   C3520568   7.842   5.442   4.667
  204PMPG   H5X20569   7.918   5.389   4.711
  204PMPG   H5Y20570   7.761   5.420   4.603
  204PMPG   C3620571   7.732   5.480   4.786
  204PMPG   H6X20572   7.647   5.533   4.741
  204PMPG   H6Y20573   7.755   5.551   4.868
  204PMPG   C3720574   7.680   5.382   4.890
  204PMPG   H7X20575   7.648   5.302   4.824
  204PMPG   H7Y20576   7.610   5.446   4.940
  204PMPG   C3820577   7.737   5.345   5.036
  204PMPG   H8X20578   7.772   5.422   5.103
  204PMPG   H8Y20579   7.802   5.357   4.971
  204PMPG   C3920580   7.746   5.198   5.093
  204PMPG   H9X20581   7.732   5.115   5.019
  204PMPG   H9Y20582   7.669   5.199   5.161
  204PMPG  C31020583   7.819   5.172   5.226
  204PMPG  H10X20584   7.832   5.257   5.291
  204PMPG  H10Y20585   7.922   5.171   5.218
  204PMPG  C31120586   7.800   5.033   5.276
  204PMPG  H11X20587   7.818   4.973   5.188
  204PMPG  H11Y20588   7.698   5.009   5.306
  204PMPG  C31220589   7.912   4.980   5.361
  204PMPG  H12X20590   8.015   4.983   5.315
  204PMPG  H12Y20591   7.888   4.879   5.396
  204PMPG  C31320592   7.972   5.061   5.459
  204PMPG  H13X20593   7.985   5.161   5.414
  204PMPG  H13Y20594   8.059   5.004   5.502
  204PMPG  C31420595   7.898   5.085   5.575
  204PMPG  H14X20596   7.891   4.977   5.597
  204PMPG  H14Y20597   7.808   5.145   5.545
  204PMPG  C31520598   7.944   5.117   5.708
  204PMPG  H15X20599   7.913   5.223   5.705
  204PMPG  H15Y20600   8.031   5.174   5.736
  204PMPG  C31620601   7.928   5.021   5.828
  204PMPG  H16X20602   7.829   5.014   5.876
  204PMPG  H16Y20603   7.914   5.120   5.862
  204PMPG  H16Z20604   7.864   4.937   5.869
  205PMPG   C1320605   0.583   7.038   3.492
  205PMPG  H13A20606   0.598   7.126   3.558
  205PMPG  H13B20607   0.508   7.067   3.416
  205PMPG   OC320608   0.530   6.930   3.570
  205PMPG   HO320609   0.599   6.915   3.636
  205PMPG   C1220610   0.720   7.006   3.421
  205PMPG  H12A20611   0.716   7.046   3.318
  205PMPG   OC220612   0.742   6.865   3.408
  205PMPG   HO220613   0.834   6.850   3.385
  205PMPG   C1120614   0.839   7.073   3.493
  205PMPG  H11A20615   0.826   7.184   3.489
  205PMPG  H11B20616   0.933   7.046   3.441
  205PMPG     P20617   0.967   7.078   3.715
  205PMPG   O1320618   1.091   7.034   3.646
  205PMPG   O1420619   0.944   7.035   3.855
  205PMPG   O1120620   0.955   7.237   3.703
  205PMPG   O1220621   0.843   7.031   3.629
  205PMPG    C120622   0.838   7.308   3.751
  205PMPG    HA20623   0.755   7.238   3.774
  205PMPG    HB20624   0.806   7.382   3.675
  205PMPG    C220625   0.863   7.398   3.873
  205PMPG    HS20626   0.907   7.495   3.842
  205PMPG   O2120627   0.963   7.336   3.932
  205PMPG   C2120628   1.007   7.390   4.026
  205PMPG   O2220629   1.016   7.505   4.068
  205PMPG   C2220630   1.055   7.271   4.074
  205PMPG   H2R20631   1.137   7.343   4.093
  205PMPG   H2S20632   1.129   7.219   4.007
  205PMPG    C320633   0.750   7.413   3.978
  205PMPG    HX20634   0.675   7.466   3.918
  205PMPG    HY20635   0.782   7.478   4.064
  205PMPG   O3120636   0.705   7.283   4.027
  205PMPG   C3120637   0.591   7.288   4.095
  205PMPG   O3220638   0.535   7.389   4.132
  205PMPG   C3220639   0.538   7.146   4.117
  205PMPG   H2X20640   0.622   7.080   4.149
  205PMPG   H2Y20641   0.501   7.109   4.019
  205PMPG   C2320642   0.968   7.190   4.191
  205PMPG   H3R20643   1.015   7.091   4.216
  205PMPG   H3S20644   0.886   7.143   4.137
  205PMPG   C2420645   0.934   7.249   4.340
  205PMPG   H4R20646   0.912   7.355   4.335
  205PMPG   H4S20647   1.009   7.275   4.416
  205PMPG   C2520648   0.884   7.147   4.450
  205PMPG   H5R20649   0.948   7.056   4.463
  205PMPG   H5S20650   0.790   7.112   4.408
  205PMPG   C2620651   0.876   7.201   4.596
  205PMPG   H6R20652   0.966   7.230   4.655
  205PMPG   H6S20653   0.835   7.122   4.663
  205PMPG   C2720654   0.822   7.338   4.607
  205PMPG   H7R20655   0.718   7.326   4.574
  205PMPG   H7S20656   0.879   7.412   4.544
  205PMPG   C2820657   0.836   7.378   4.751
  205PMPG   H8R20658   0.941   7.408   4.775
  205PMPG   H8S20659   0.810   7.289   4.814
  205PMPG   C2920660   0.738   7.488   4.771
  205PMPG   H9R20661   0.717   7.560   4.691
  205PMPG  C21720662   0.628   7.451   4.868
  205PMPG  H17R20663   0.537   7.507   4.849
  205PMPG  H17S20664   0.639   7.360   4.925
  205PMPG  C21020665   0.740   7.543   4.907
  205PMPG  H10R20666   0.701   7.647   4.909
  205PMPG  C21120667   0.861   7.484   4.987
  205PMPG  H11R20668   0.860   7.375   4.997
  205PMPG  H11S20669   0.960   7.529   4.954
  205PMPG  C21220670   0.845   7.483   5.134
  205PMPG  H12R20671   0.921   7.566   5.142
  205PMPG  H12S20672   0.926   7.476   5.209
  205PMPG  C21320673   0.686   7.489   5.179
  205PMPG  H13R20674   0.606   7.527   5.111
  205PMPG  H13S20675   0.647   7.553   5.264
  205PMPG  C21420676   0.651   7.373   5.255
  205PMPG  H14R20677   0.702   7.375   5.355
  205PMPG  H14S20678   0.688   7.299   5.183
  205PMPG  C21520679   0.505   7.377   5.272
  205PMPG  H15R20680   0.452   7.367   5.174
  205PMPG  H15S20681   0.461   7.466   5.327
  205PMPG  C21620682   0.481   7.259   5.353
  205PMPG  H16R20683   0.510   7.263   5.458
  205PMPG  H16S20684   0.492   7.159   5.308
  205PMPG  H16T20685   0.378   7.290   5.352
  205PMPG   C3320686   0.422   7.142   4.221
  205PMPG   H3X20687   0.373   7.043   4.212
  205PMPG   H3Y20688   0.344   7.218   4.195
  205PMPG   C3420689   0.472   7.165   4.365
  205PMPG   H4X20690   0.494   7.274   4.380
  205PMPG   H4Y20691   0.566   7.109   4.382
  205PMPG   C3520692   0.378   7.119   4.477
  205PMPG   H5X20693   0.377   7.009   4.483
  205PMPG   H5Y20694   0.274   7.151   4.453
  205PMPG   C3620695   0.429   7.169   4.614
  205PMPG   H6X20696   0.439   7.279   4.609
  205PMPG   H6Y20697   0.534   7.140   4.631
  205PMPG   C3720698   0.346   7.119   4.733
  205PMPG   H7X20699   0.301   7.020   4.712
  205PMPG   H7Y20700   0.262   7.185   4.747
  205PMPG   C3820701   0.410   7.122   4.871
  205PMPG   H8X20702   0.332   7.100   4.948
  205PMPG   H8Y20703   0.452   7.223   4.894
  205PMPG   C3920704   0.513   7.011   4.876
  205PMPG   H9X20705   0.587   7.023   4.794
  205PMPG   H9Y20706   0.457   6.917   4.857
  205PMPG  C31020707   0.583   7.002   5.009
  205PMPG  H10X20708   0.511   7.015   5.092
  205PMPG  H10Y20709   0.660   7.082   5.017
  205PMPG  C31120710   0.651   6.867   5.018
  205PMPG  H11X20711   0.718   6.853   4.930
  205PMPG  H11Y20712   0.572   6.787   5.008
  205PMPG  C31220713   0.734   6.856   5.145
  205PMPG  H12X20714   0.666   6.842   5.233
  205PMPG  H12Y20715   0.802   6.941   5.164
  205PMPG  C31320716   0.824   6.738   5.132
  205PMPG  H13X20717   0.885   6.727   5.040
  205PMPG  H13Y20718   0.738   6.674   5.133
  205PMPG  C31420719   0.910   6.701   5.247
  205PMPG  H14X20720   0.985   6.778   5.270
  205PMPG  H14Y20721   0.962   6.608   5.220
  205PMPG  C31520722   0.844   6.663   5.372
  205PMPG  H15X20723   0.821   6.554   5.368
  205PMPG  H15Y20724   0.748   6.715   5.392
  205PMPG  C31620725   0.959   6.685   5.466
  205PMPG  H16X20726   0.932   6.660   5.559
  205PMPG  H16Y20727   0.963   6.780   5.520
  205PMPG  H16Z20728   1.018   6.594   5.488
  206PMPG   C1320729   6.672   7.681   3.377
  206PMPG  H13A20730   6.782   7.684   3.367
  206PMPG  H13B20731   6.643   7.574   3.387
  206PMPG   OC320732   6.611   7.735   3.259
  206PMPG   HO320733   6.679   7.741   3.191
  206PMPG   C1220734   6.631   7.752   3.510
  206PMPG  H12A20735   6.522   7.738   3.526
  206PMPG   OC220736   6.662   7.892   3.510
  206PMPG   HO220737   6.643   7.918   3.601
  206PMPG   C1120738   6.708   7.684   3.627
  206PMPG  H11A20739   6.682   7.731   3.725
  206PMPG  H11B20740   6.816   7.702   3.608
  206PMPG     P20741   6.772   7.450   3.721
  206PMPG   O1320742   6.873   7.534   3.790
  206PMPG   O1420743   6.814   7.335   3.636
  206PMPG   O1120744   6.665   7.400   3.825
  206PMPG   O1220745   6.681   7.544   3.630
  206PMPG    C120746   6.567   7.305   3.783
  206PMPG    HA20747   6.616   7.209   3.754
  206PMPG    HB20748   6.512   7.344   3.694
  206PMPG    C220749   6.463   7.272   3.895
  206PMPG    HS20750   6.372   7.236   3.843
  206PMPG   O2120751   6.430   7.384   3.979
  206PMPG   C2120752   6.373   7.486   3.920
  206PMPG   O2220753   6.329   7.489   3.805
  206PMPG   C2220754   6.360   7.596   4.025
  206PMPG   H2R20755   6.350   7.547   4.125
  206PMPG   H2S20756   6.267   7.651   4.003
  206PMPG    C320757   6.507   7.157   3.990
  206PMPG    HX20758   6.543   7.072   3.928
  206PMPG    HY20759   6.415   7.122   4.041
  206PMPG   O3120760   6.609   7.195   4.086
  206PMPG   C3120761   6.574   7.219   4.211
  206PMPG   O3220762   6.466   7.193   4.262
  206PMPG   C3220763   6.694   7.280   4.283
  206PMPG   H2X20764   6.736   7.359   4.218
  206PMPG   H2Y20765   6.772   7.203   4.294
  206PMPG   C2320766   6.481   7.692   4.029
  206PMPG   H3R20767   6.467   7.764   4.113
  206PMPG   H3S20768   6.484   7.754   3.937
  206PMPG   C2420769   6.613   7.622   4.059
  206PMPG   H4R20770   6.668   7.599   3.965
  206PMPG   H4S20771   6.593   7.523   4.107
  206PMPG   C2520772   6.703   7.706   4.150
  206PMPG   H5R20773   6.649   7.733   4.243
  206PMPG   H5S20774   6.727   7.802   4.097
  206PMPG   C2620775   6.834   7.634   4.182
  206PMPG   H6R20776   6.880   7.596   4.088
  206PMPG   H6S20777   6.814   7.547   4.249
  206PMPG   C2720778   6.933   7.723   4.253
  206PMPG   H7R20779   6.936   7.827   4.212
  206PMPG   H7S20780   7.037   7.683   4.239
  206PMPG   C2820781   6.892   7.723   4.400
  206PMPG   H8R20782   6.876   7.622   4.442
  206PMPG   H8S20783   6.800   7.780   4.416
  206PMPG   C2920784   7.010   7.768   4.473
  206PMPG   H9R20785   7.083   7.817   4.401
  206PMPG  C21720786   6.996   7.889   4.539
  206PMPG  H17R20787   7.085   7.949   4.528
  206PMPG  H17S20788   6.904   7.914   4.576
  206PMPG  C21020789   6.994   7.784   4.624
  206PMPG  H10R20790   7.066   7.839   4.686
  206PMPG  C21120791   6.861   7.727   4.682
  206PMPG  H11R20792   6.775   7.772   4.628
  206PMPG  H11S20793   6.862   7.617   4.676
  206PMPG  C21220794   6.837   7.760   4.828
  206PMPG  H12R20795   6.734   7.787   4.853
  206PMPG  H12S20796   6.887   7.854   4.821
  206PMPG  C21320797   6.900   7.663   4.930
  206PMPG  H13R20798   6.998   7.687   4.970
  206PMPG  H13S20799   6.934   7.577   4.871
  206PMPG  C21420800   6.859   7.656   5.078
  206PMPG  H14R20801   6.752   7.642   5.091
  206PMPG  H14S20802   6.835   7.746   5.113
  206PMPG  C21520803   6.978   7.648   5.193
  206PMPG  H15R20804   7.075   7.680   5.187
  206PMPG  H15S20805   7.045   7.567   5.165
  206PMPG  C21620806   6.956   7.648   5.348
  206PMPG  H16R20807   6.999   7.743   5.372
  206PMPG  H16S20808   7.007   7.565   5.402
  206PMPG  H16T20809   6.849   7.637   5.376
  206PMPG   C3320810   6.656   7.337   4.421
  206PMPG   H3X20811   6.562   7.396   4.420
  206PMPG   H3Y20812   6.737   7.406   4.452
  206PMPG   C3420813   6.646   7.232   4.530
  206PMPG   H4X20814   6.723   7.153   4.521
  206PMPG   H4Y20815   6.552   7.172   4.525
  206PMPG   C3520816   6.653   7.308   4.664
  206PMPG   H5X20817   6.577   7.386   4.681
  206PMPG   H5Y20818   6.753   7.352   4.682
  206PMPG   C3620819   6.617   7.217   4.776
  206PMPG   H6X20820   6.672   7.135   4.729
  206PMPG   H6Y20821   6.519   7.169   4.776
  206PMPG   C3720822   6.659   7.282   4.909
  206PMPG   H7X20823   6.584   7.353   4.943
  206PMPG   H7Y20824   6.739   7.352   4.888
  206PMPG   C3820825   6.668   7.191   5.029
  206PMPG   H8X20826   6.724   7.103   5.047
  206PMPG   H8Y20827   6.580   7.136   5.033
  206PMPG   C3920828   6.719   7.216   5.158
  206PMPG   H9X20829   6.819   7.220   5.126
  206PMPG   H9Y20830   6.728   7.133   5.228
  206PMPG  C31020831   6.657   7.332   5.212
  206PMPG  H10X20832   6.644   7.405   5.130
  206PMPG  H10Y20833   6.712   7.375   5.298
  206PMPG  C31120834   6.596   7.327   5.335
  206PMPG  H11X20835   6.605   7.238   5.375
  206PMPG  H11Y20836   6.503   7.317   5.302
  206PMPG  C31220837   6.548   7.434   5.407
  206PMPG  H12X20838   6.634   7.455   5.472
  206PMPG  H12Y20839   6.458   7.385   5.457
  206PMPG  C31320840   6.504   7.541   5.323
  206PMPG  H13X20841   6.415   7.507   5.269
  206PMPG  H13Y20842   6.580   7.579   5.252
  206PMPG  C31420843   6.470   7.623   5.439
  206PMPG  H14X20844   6.547   7.625   5.519
  206PMPG  H14Y20845   6.383   7.574   5.481
  206PMPG  C31520846   6.437   7.756   5.393
  206PMPG  H15X20847   6.536   7.796   5.370
  206PMPG  H15Y20848   6.410   7.807   5.484
  206PMPG  C31620849   6.336   7.754   5.278
  206PMPG  H16X20850   6.387   7.753   5.182
  206PMPG  H16Y20851   6.264   7.837   5.283
  206PMPG  H16Z20852   6.281   7.660   5.270
  207PMPG   C1320853   1.092   0.751   3.436
  207PMPG  H13A20854   0.981   0.760   3.429
  207PMPG  H13B20855   1.135   0.848   3.469
  207PMPG   OC320856   1.140   0.718   3.305
  207PMPG   HO320857   1.078   0.650   3.276
  207PMPG   C1220858   1.128   0.645   3.544
  207PMPG  H12A20859   1.237   0.655   3.563
  207PMPG   OC220860   1.112   0.511   3.498
  207PMPG   HO220861   1.086   0.464   3.577
  207PMPG   C1120862   1.057   0.662   3.681
  207PMPG  H11A20863   1.111   0.737   3.742
  207PMPG  H11B20864   1.068   0.565   3.735
  207PMPG     P20865   0.803   0.597   3.694
  207PMPG   O1320866   0.831   0.533   3.824
  207PMPG   O1420867   0.799   0.507   3.577
  207PMPG   O1120868   0.670   0.678   3.697
  207PMPG   O1220869   0.920   0.704   3.668
  207PMPG    C120870   0.656   0.813   3.735
  207PMPG    HA20871   0.566   0.848   3.683
  207PMPG    HB20872   0.739   0.878   3.701
  207PMPG    C220873   0.632   0.825   3.887
  207PMPG    HS20874   0.598   0.929   3.908
  207PMPG   O2120875   0.752   0.787   3.961
  207PMPG   C2120876   0.829   0.886   4.001
  207PMPG   O2220877   0.813   1.003   3.977
  207PMPG   C2220878   0.945   0.842   4.092
  207PMPG   H2R20879   1.036   0.899   4.063
  207PMPG   H2S20880   0.963   0.735   4.076
  207PMPG    C320881   0.513   0.740   3.938
  207PMPG    HX20882   0.540   0.634   3.916
  207PMPG    HY20883   0.419   0.758   3.885
  207PMPG   O3120884   0.495   0.768   4.078
  207PMPG   C3120885   0.425   0.696   4.163
  207PMPG   O3220886   0.344   0.611   4.161
  207PMPG   C3220887   0.452   0.722   4.296
  207PMPG   H2X20888   0.349   0.767   4.317
  207PMPG   H2Y20889   0.553   0.767   4.286
  207PMPG   C2320890   0.915   0.868   4.243
  207PMPG   H3R20891   0.968   0.788   4.301
  207PMPG   H3S20892   0.806   0.855   4.257
  207PMPG   C2420893   0.961   1.004   4.299
  207PMPG   H4R20894   0.910   1.088   4.249
  207PMPG   H4S20895   1.069   1.016   4.277
  207PMPG   C2520896   0.949   1.022   4.452
  207PMPG   H5R20897   0.965   1.130   4.473
  207PMPG   H5S20898   1.033   0.965   4.497
  207PMPG   C2620899   0.818   0.980   4.521
  207PMPG   H6R20900   0.784   0.879   4.496
  207PMPG   H6S20901   0.743   1.057   4.495
  207PMPG   C2720902   0.812   0.999   4.671
  207PMPG   H7R20903   0.848   1.100   4.671
  207PMPG   H7S20904   0.878   0.927   4.722
  207PMPG   C2820905   0.668   1.005   4.725
  207PMPG   H8R20906   0.637   0.904   4.698
  207PMPG   H8S20907   0.609   1.081   4.668
  207PMPG   C2920908   0.638   1.024   4.873
  207PMPG   H9R20909   0.654   1.123   4.915
  207PMPG  C21720910   0.529   0.952   4.943
  207PMPG  H17R20911   0.488   0.994   5.033
  207PMPG  H17S20912   0.482   0.885   4.885
  207PMPG  C21020913   0.672   0.903   4.959
  207PMPG  H10R20914   0.703   0.913   5.063
  207PMPG  C21120915   0.732   0.782   4.882
  207PMPG  H11R20916   0.667   0.753   4.797
  207PMPG  H11S20917   0.837   0.781   4.855
  207PMPG  C21220918   0.753   0.671   4.978
  207PMPG  H12R20919   0.655   0.701   5.013
  207PMPG  H12S20920   0.803   0.697   5.072
  207PMPG  C21320921   0.772   0.522   4.929
  207PMPG  H13R20922   0.860   0.490   4.876
  207PMPG  H13S20923   0.694   0.476   4.876
  207PMPG  C21420924   0.752   0.420   5.031
  207PMPG  H14R20925   0.650   0.412   5.022
  207PMPG  H14S20926   0.770   0.436   5.135
  207PMPG  C21520927   0.756   0.285   5.015
  207PMPG  H15R20928   0.861   0.249   5.028
  207PMPG  H15S20929   0.752   0.252   4.913
  207PMPG  C21620930   0.641   0.278   5.141
  207PMPG  H16R20931   0.536   0.268   5.142
  207PMPG  H16S20932   0.634   0.219   5.231
  207PMPG  H16T20933   0.691   0.209   5.084
  207PMPG   C3320934   0.476   0.627   4.406
  207PMPG   H3X20935   0.432   0.532   4.375
  207PMPG   H3Y20936   0.376   0.631   4.452
  207PMPG   C3420937   0.612   0.669   4.490
  207PMPG   H4X20938   0.626   0.608   4.575
  207PMPG   H4Y20939   0.608   0.762   4.547
  207PMPG   C3520940   0.763   0.649   4.452
  207PMPG   H5X20941   0.802   0.708   4.374
  207PMPG   H5Y20942   0.725   0.585   4.381
  207PMPG   C3620943   0.869   0.571   4.543
  207PMPG   H6X20944   0.838   0.501   4.623
  207PMPG   H6Y20945   0.928   0.646   4.594
  207PMPG   C3720946   0.964   0.471   4.475
  207PMPG   H7X20947   1.011   0.502   4.381
  207PMPG   H7Y20948   0.904   0.383   4.463
  207PMPG   C3820949   1.058   0.405   4.570
  207PMPG   H8X20950   1.110   0.318   4.524
  207PMPG   H8Y20951   1.011   0.377   4.666
  207PMPG   C3920952   1.176   0.481   4.588
  207PMPG   H9X20953   1.145   0.582   4.619
  207PMPG   H9Y20954   1.216   0.485   4.485
  207PMPG  C31020955   1.259   0.396   4.680
  207PMPG  H10X20956   1.353   0.449   4.689
  207PMPG  H10Y20957   1.282   0.293   4.649
  207PMPG  C31120958   1.198   0.396   4.814
  207PMPG  H11X20959   1.272   0.351   4.884
  207PMPG  H11Y20960   1.110   0.334   4.836
  207PMPG  C31220961   1.155   0.537   4.843
  207PMPG  H12X20962   1.067   0.593   4.811
  207PMPG  H12Y20963   1.231   0.618   4.817
  207PMPG  C31320964   1.132   0.519   4.981
  207PMPG  H13X20965   1.162   0.625   4.991
  207PMPG  H13Y20966   1.186   0.438   5.035
  207PMPG  C31420967   1.021   0.484   5.070
  207PMPG  H14X20968   1.007   0.376   5.039
  207PMPG  H14Y20969   0.949   0.555   5.044
  207PMPG  C31520970   1.033   0.497   5.228
  207PMPG  H15X20971   1.124   0.447   5.259
  207PMPG  H15Y20972   0.938   0.454   5.243
  207PMPG  C31620973   1.007   0.601   5.335
  207PMPG  H16X20974   1.105   0.639   5.342
  207PMPG  H16Y20975   0.998   0.602   5.444
  207PMPG  H16Z20976   0.923   0.659   5.293
  208PMPG   C1320977   8.017   6.400   3.405
  208PMPG  H13A20978   8.060   6.311   3.457
  208PMPG  H13B20979   7.905   6.377   3.394
  208PMPG   OC320980   8.095   6.448   3.299
  208PMPG   HO320981   8.140   6.517   3.351
  208PMPG   C1220982   8.012   6.529   3.477
  208PMPG  H12A20983   7.972   6.454   3.544
  208PMPG   OC220984   7.914   6.618   3.415
  208PMPG   HO220985   7.858   6.660   3.485
  208PMPG   C1120986   8.132   6.592   3.570
  208PMPG  H11A20987   8.192   6.639   3.493
  208PMPG  H11B20988   8.179   6.500   3.616
  208PMPG     P20989   8.097   6.851   3.689
  208PMPG   O1320990   7.969   6.899   3.629
  208PMPG   O1420991   8.216   6.913   3.632
  208PMPG   O1120992   8.071   6.877   3.844
  208PMPG   O1220993   8.115   6.688   3.678
  208PMPG    C120994   8.026   6.787   3.949
  208PMPG    HA20995   8.110   6.731   3.989
  208PMPG    HB20996   7.969   6.698   3.924
  208PMPG    C220997   7.945   6.855   4.061
  208PMPG    HS20998   7.850   6.904   4.028
  208PMPG   O2120999   8.044   6.952   4.107
  208PMPG   C2121000   7.995   7.023   4.205
  208PMPG   O2221001   7.900   6.988   4.270
  208PMPG   C2221002   8.071   7.152   4.234
  208PMPG   H2R21003   8.084   7.214   4.142
  208PMPG   H2S21004   8.170   7.117   4.269
  208PMPG    C321005   7.897   6.742   4.163
  208PMPG    HX21006   7.811   6.686   4.122
  208PMPG    HY21007   7.857   6.781   4.256
  208PMPG   O3121008   7.993   6.645   4.192
  208PMPG   C3121009   8.055   6.670   4.305
  208PMPG   O3221010   8.042   6.766   4.378
  208PMPG   C3221011   8.149   6.557   4.325
  208PMPG   H2X21012   8.191   6.543   4.223
  208PMPG   H2Y21013   8.092   6.464   4.349
  208PMPG   C2321014   8.009   7.239   4.348
  208PMPG   H3R21015   7.959   7.334   4.322
  208PMPG   H3S21016   8.089   7.286   4.399
  208PMPG   C2421017   7.957   7.179   4.478
  208PMPG   H4R21018   7.857   7.138   4.467
  208PMPG   H4S21019   7.946   7.270   4.541
  208PMPG   C2521020   8.056   7.076   4.536
  208PMPG   H5R21021   8.146   7.131   4.568
  208PMPG   H5S21022   8.095   7.008   4.458
  208PMPG   C2621023   7.997   6.972   4.636
  208PMPG   H6R21024   8.086   6.916   4.676
  208PMPG   H6S21025   7.934   6.905   4.582
  208PMPG   C2721026   7.895   7.020   4.743
  208PMPG   H7R21027   7.832   7.109   4.725
  208PMPG   H7S21028   7.992   7.048   4.769
  208PMPG   C2821029   7.854   6.948   4.874
  208PMPG   H8R21030   7.912   6.856   4.879
  208PMPG   H8S21031   7.744   6.946   4.849
  208PMPG   C2921032   7.866   7.010   5.015
  208PMPG   H9R21033   7.773   7.071   5.028
  208PMPG  C21721034   7.883   6.909   5.127
  208PMPG  H17R21035   7.829   6.936   5.219
  208PMPG  H17S21036   7.943   6.826   5.103
  208PMPG  C21021037   7.993   7.010   5.118
  208PMPG  H10R21038   7.988   7.060   5.212
  208PMPG  C21121039   8.152   7.004   5.090
  208PMPG  H11R21040   8.181   6.954   4.996
  208PMPG  H11S21041   8.206   7.103   5.077
  208PMPG  C21221042   8.218   6.947   5.206
  208PMPG  H12R21043   8.322   6.928   5.173
  208PMPG  H12S21044   8.150   6.859   5.210
  208PMPG  C21321045   8.212   7.028   5.333
  208PMPG  H13R21046   8.230   6.955   5.413
  208PMPG  H13S21047   8.117   7.069   5.351
  208PMPG  C21421048   8.290   7.156   5.348
  208PMPG  H14R21049   8.260   7.246   5.288
  208PMPG  H14S21050   8.382   7.119   5.300
  208PMPG  C21521051   8.316   7.194   5.496
  208PMPG  H15R21052   8.396   7.266   5.516
  208PMPG  H15S21053   8.337   7.100   5.549
  208PMPG  C21621054   8.221   7.277   5.572
  208PMPG  H16R21055   8.197   7.369   5.517
  208PMPG  H16S21056   8.250   7.312   5.673
  208PMPG  H16T21057   8.143   7.202   5.579
  208PMPG   C3321058   8.253   6.595   4.434
  208PMPG   H3X21059   8.313   6.684   4.408
  208PMPG   H3Y21060   8.336   6.523   4.438
  208PMPG   C3421061   8.184   6.600   4.571
  208PMPG   H4X21062   8.121   6.508   4.578
  208PMPG   H4Y21063   8.119   6.689   4.574
  208PMPG   C3521064   8.272   6.603   4.697
  208PMPG   H5X21065   8.350   6.681   4.692
  208PMPG   H5Y21066   8.319   6.506   4.696
  208PMPG   C3621067   8.189   6.606   4.826
  208PMPG   H6X21068   8.109   6.529   4.816
  208PMPG   H6Y21069   8.142   6.706   4.836
  208PMPG   C3721070   8.267   6.574   4.954
  208PMPG   H7X21071   8.351   6.645   4.970
  208PMPG   H7Y21072   8.305   6.469   4.957
  208PMPG   C3821073   8.178   6.587   5.074
  208PMPG   H8X21074   8.104   6.667   5.065
  208PMPG   H8Y21075   8.248   6.624   5.150
  208PMPG   C3921076   8.105   6.457   5.102
  208PMPG   H9X21077   8.164   6.366   5.098
  208PMPG   H9Y21078   8.033   6.424   5.028
  208PMPG  C31021079   8.029   6.464   5.228
  208PMPG  H10X21080   8.091   6.454   5.317
  208PMPG  H10Y21081   7.983   6.365   5.243
  208PMPG  C31121082   7.943   6.592   5.248
  208PMPG  H11X21083   7.983   6.684   5.210
  208PMPG  H11Y21084   7.940   6.633   5.351
  208PMPG  C31221085   7.797   6.565   5.231
  208PMPG  H12X21086   7.771   6.460   5.257
  208PMPG  H12Y21087   7.776   6.577   5.125
  208PMPG  C31321088   7.707   6.664   5.305
  208PMPG  H13X21089   7.604   6.644   5.286
  208PMPG  H13Y21090   7.710   6.761   5.253
  208PMPG  C31421091   7.685   6.645   5.455
  208PMPG  H14X21092   7.780   6.674   5.505
  208PMPG  H14Y21093   7.660   6.543   5.484
  208PMPG  C31521094   7.557   6.714   5.508
  208PMPG  H15X21095   7.526   6.691   5.614
  208PMPG  H15Y21096   7.470   6.743   5.453
  208PMPG  C31621097   7.596   6.833   5.511
  208PMPG  H16X21098   7.658   6.855   5.425
  208PMPG  H16Y21099   7.662   6.798   5.598
  208PMPG  H16Z21100   7.531   6.918   5.541
  209QMPE     N21101   4.348   1.759   7.712
  209QMPE   HN121102   4.383   1.706   7.795
  209QMPE   HN221103   4.421   1.825   7.677
  209QMPE   HN321104   4.265   1.814   7.741
  209QMPE   C1221105   4.311   1.662   7.602
  209QMPE  H12A21106   4.226   1.602   7.638
  209QMPE  H12B21107   4.400   1.598   7.583
  209QMPE   C1121108   4.271   1.730   7.469
  209QMPE  H11A21109   4.174   1.783   7.485
  209QMPE  H11B21110   4.251   1.647   7.396
  209QMPE     P21111   4.367   1.862   7.266
  209QMPE   O1321112   4.370   2.010   7.264
  209QMPE   O1421113   4.259   1.785   7.202
  209QMPE   O1121114   4.500   1.814   7.207
  209QMPE   O1221115   4.373   1.818   7.421
  209QMPE    C121116   4.621   1.859   7.266
  209QMPE    HA21117   4.618   1.845   7.377
  209QMPE    HB21118   4.637   1.967   7.245
  209QMPE    C221119   4.738   1.771   7.216
  209QMPE    HS21120   4.830   1.794   7.274
  209QMPE   O2121121   4.764   1.788   7.075
  209QMPE   C2121122   4.788   1.907   7.024
  209QMPE   O2221123   4.797   2.014   7.081
  209QMPE   C2221124   4.815   1.895   6.875
  209QMPE   H2R21125   4.751   1.815   6.833
  209QMPE   H2S21126   4.921   1.867   6.859
  209QMPE    C321127   4.705   1.621   7.252
  209QMPE    HX21128   4.679   1.622   7.360
  209QMPE    HY21129   4.794   1.556   7.243
  209QMPE   O3121130   4.591   1.565   7.185
  209QMPE   C3121131   4.615   1.527   7.061
  209QMPE   O3221132   4.723   1.523   7.006
  209QMPE   C3221133   4.482   1.506   6.989
  209QMPE   H2X21134   4.465   1.400   6.961
  209QMPE   H2Y21135   4.399   1.538   7.056
  209QMPE   C2321136   4.776   2.034   6.818
  209QMPE   H3R21137   4.829   2.116   6.873
  209QMPE   H3S21138   4.667   2.046   6.834
  209QMPE   C2421139   4.800   2.052   6.670
  209QMPE   H4R21140   4.756   1.963   6.619
  209QMPE   H4S21141   4.910   2.058   6.654
  209QMPE   C2521142   4.733   2.175   6.610
  209QMPE   H5R21143   4.776   2.268   6.655
  209QMPE   H5S21144   4.624   2.173   6.630
  209QMPE   C2621145   4.747   2.180   6.460
  209QMPE   H6R21146   4.711   2.092   6.403
  209QMPE   H6S21147   4.850   2.185   6.436
  209QMPE   C2721148   4.713   2.311   6.399
  209QMPE   H7R21149   4.772   2.396   6.439
  209QMPE   H7S21150   4.604   2.333   6.412
  209QMPE   C2821151   4.748   2.294   6.255
  209QMPE   H8R21152   4.701   2.208   6.204
  209QMPE   H8S21153   4.852   2.302   6.223
  209QMPE   C2921154   4.681   2.405   6.210
  209QMPE   H9R21155   4.714   2.507   6.249
  209QMPE  C21721156   4.538   2.370   6.162
  209QMPE  H17R21157   4.492   2.326   6.082
  209QMPE  H17S21158   4.471   2.450   6.154
  209QMPE  C21021159   4.664   2.381   6.071
  209QMPE  H10R21160   4.686   2.482   6.068
  209QMPE  C21121161   4.730   2.279   5.953
  209QMPE  H11R21162   4.719   2.181   5.990
  209QMPE  H11S21163   4.681   2.288   5.853
  209QMPE  C21221164   4.877   2.294   5.889
  209QMPE  H12R21165   4.937   2.304   5.977
  209QMPE  H12S21166   4.898   2.377   5.819
  209QMPE  C21321167   4.946   2.211   5.790
  209QMPE  H13R21168   4.896   2.123   5.831
  209QMPE  H13S21169   5.051   2.210   5.820
  209QMPE  C21421170   4.934   2.262   5.642
  209QMPE  H14R21171   4.825   2.260   5.621
  209QMPE  H14S21172   4.989   2.180   5.594
  209QMPE  C21521173   4.990   2.397   5.576
  209QMPE  H15R21174   4.963   2.492   5.628
  209QMPE  H15S21175   4.932   2.403   5.481
  209QMPE  C21621176   5.137   2.404   5.529
  209QMPE  H16R21177   5.211   2.404   5.607
  209QMPE  H16S21178   5.163   2.500   5.480
  209QMPE  H16T21179   5.168   2.316   5.470
  209QMPE   C3321180   4.483   1.595   6.864
  209QMPE   H3X21181   4.544   1.549   6.784
  209QMPE   H3Y21182   4.526   1.695   6.889
  209QMPE   C3421183   4.341   1.625   6.820
  209QMPE   H4X21184   4.296   1.682   6.905
  209QMPE   H4Y21185   4.284   1.531   6.808
  209QMPE   C3521186   4.334   1.705   6.691
  209QMPE   H5X21187   4.227   1.713   6.661
  209QMPE   H5Y21188   4.389   1.653   6.610
  209QMPE   C3621189   4.390   1.847   6.710
  209QMPE   H6X21190   4.500   1.848   6.700
  209QMPE   H6Y21191   4.358   1.884   6.810
  209QMPE   C3721192   4.332   1.940   6.606
  209QMPE   H7X21193   4.225   1.914   6.622
  209QMPE   H7Y21194   4.353   2.046   6.634
  209QMPE   C3821195   4.371   1.907   6.462
  209QMPE   H8X21196   4.480   1.890   6.465
  209QMPE   H8Y21197   4.329   1.809   6.433
  209QMPE   C3921198   4.333   2.009   6.351
  209QMPE   H9X21199   4.299   2.107   6.391
  209QMPE   H9Y21200   4.250   1.969   6.288
  209QMPE  C31021201   4.441   2.023   6.246
  209QMPE  H10X21202   4.510   1.936   6.255
  209QMPE  H10Y21203   4.496   2.116   6.268
  209QMPE  C31121204   4.385   2.020   6.102
  209QMPE  H11X21205   4.295   2.086   6.095
  209QMPE  H11Y21206   4.356   1.916   6.075
  209QMPE  C31221207   4.495   2.062   6.006
  209QMPE  H12X21208   4.590   2.016   6.041
  209QMPE  H12Y21209   4.505   2.168   6.016
  209QMPE  C31321210   4.480   2.042   5.855
  209QMPE  H13X21211   4.575   2.077   5.806
  209QMPE  H13Y21212   4.469   1.934   5.837
  209QMPE  C31421213   4.366   2.120   5.793
  209QMPE  H14X21214   4.388   2.230   5.802
  209QMPE  H14Y21215   4.272   2.099   5.849
  209QMPE  C31521216   4.342   2.088   5.646
  209QMPE  H15X21217   4.295   1.990   5.624
  209QMPE  H15Y21218   4.258   2.150   5.618
  209QMPE  H15Z21219   4.431   2.105   5.582
  210QMPE     N21220   2.717   2.055   7.474
  210QMPE   HN121221   2.668   1.971   7.434
  210QMPE   HN221222   2.745   2.036   7.573
  210QMPE   HN321223   2.662   2.143   7.469
  210QMPE   C1221224   2.842   2.086   7.396
  210QMPE  H12A21225   2.812   2.102   7.290
  210QMPE  H12B21226   2.910   1.999   7.404
  210QMPE   C1121227   2.909   2.213   7.448
  210QMPE  H11A21228   3.000   2.228   7.384
  210QMPE  H11B21229   2.947   2.200   7.553
  210QMPE     P21230   2.856   2.455   7.365
  210QMPE   O1321231   2.996   2.485   7.398
  210QMPE   O1421232   2.750   2.551   7.398
  210QMPE   O1121233   2.835   2.397   7.218
  210QMPE   O1221234   2.817   2.322   7.444
  210QMPE    C121235   2.698   2.369   7.188
  210QMPE    HA21236   2.635   2.461   7.196
  210QMPE    HB21237   2.657   2.290   7.255
  210QMPE    C221238   2.675   2.319   7.045
  210QMPE    HS21239   2.708   2.213   7.036
  210QMPE   O2121240   2.740   2.404   6.952
  210QMPE   C2121241   2.862   2.375   6.918
  210QMPE   O2221242   2.926   2.274   6.942
  210QMPE   C2221243   2.910   2.493   6.838
  210QMPE   H2R21244   2.825   2.538   6.782
  210QMPE   H2S21245   2.988   2.461   6.767
  210QMPE    C321246   2.524   2.329   7.025
  210QMPE    HX21247   2.493   2.435   7.045
  210QMPE    HY21248   2.471   2.264   7.097
  210QMPE   O3121249   2.492   2.293   6.893
  210QMPE   C3121250   2.488   2.398   6.808
  210QMPE   O3221251   2.511   2.515   6.831
  210QMPE   C3221252   2.458   2.347   6.677
  210QMPE   H2X21253   2.388   2.270   6.713
  210QMPE   H2Y21254   2.383   2.399   6.616
  210QMPE   C2321255   2.963   2.596   6.935
  210QMPE   H3R21256   3.035   2.553   7.009
  210QMPE   H3S21257   2.881   2.646   6.992
  210QMPE   C2421258   3.037   2.700   6.857
  210QMPE   H4R21259   3.123   2.647   6.811
  210QMPE   H4S21260   3.076   2.768   6.938
  210QMPE   C2521261   2.953   2.768   6.747
  210QMPE   H5R21262   2.975   2.872   6.713
  210QMPE   H5S21263   2.852   2.782   6.787
  210QMPE   C2621264   2.970   2.714   6.608
  210QMPE   H6R21265   2.935   2.611   6.602
  210QMPE   H6S21266   3.073   2.711   6.567
  210QMPE   C2721267   2.891   2.809   6.522
  210QMPE   H7R21268   2.929   2.914   6.523
  210QMPE   H7S21269   2.787   2.812   6.561
  210QMPE   C2821270   2.908   2.756   6.385
  210QMPE   H8R21271   2.839   2.670   6.369
  210QMPE   H8S21272   3.008   2.712   6.378
  210QMPE   C2921273   2.907   2.872   6.290
  210QMPE   H9R21274   2.911   2.977   6.326
  210QMPE  C21721275   2.777   2.852   6.246
  210QMPE  H17R21276   2.718   2.761   6.257
  210QMPE  H17S21277   2.742   2.947   6.217
  210QMPE  C21021278   2.880   2.853   6.140
  210QMPE  H10R21279   2.866   2.943   6.075
  210QMPE  C21121280   2.866   2.719   6.075
  210QMPE  H11R21281   2.937   2.640   6.081
  210QMPE  H11S21282   2.813   2.651   6.141
  210QMPE  C21221283   2.881   2.725   5.926
  210QMPE  H12R21284   2.909   2.627   5.881
  210QMPE  H12S21285   2.942   2.809   5.887
  210QMPE  C21321286   2.755   2.766   5.881
  210QMPE  H13R21287   2.725   2.864   5.921
  210QMPE  H13S21288   2.677   2.702   5.891
  210QMPE  C21421289   2.735   2.765   5.743
  210QMPE  H14R21290   2.806   2.849   5.749
  210QMPE  H14S21291   2.629   2.793   5.725
  210QMPE  C21521292   2.784   2.666   5.644
  210QMPE  H15R21293   2.890   2.662   5.666
  210QMPE  H15S21294   2.765   2.720   5.551
  210QMPE  C21621295   2.717   2.535   5.606
  210QMPE  H16R21296   2.720   2.483   5.700
  210QMPE  H16S21297   2.760   2.454   5.551
  210QMPE  H16T21298   2.622   2.550   5.554
  210QMPE   C3321299   2.600   2.320   6.612
  210QMPE   H3X21300   2.591   2.227   6.565
  210QMPE   H3Y21301   2.681   2.264   6.658
  210QMPE   C3421302   2.635   2.426   6.505
  210QMPE   H4X21303   2.690   2.506   6.556
  210QMPE   H4Y21304   2.538   2.472   6.484
  210QMPE   C3521305   2.704   2.399   6.367
  210QMPE   H5X21306   2.703   2.496   6.315
  210QMPE   H5Y21307   2.664   2.334   6.288
  210QMPE   C3621308   2.841   2.341   6.382
  210QMPE   H6X21309   2.835   2.251   6.447
  210QMPE   H6Y21310   2.898   2.423   6.431
  210QMPE   C3721311   2.902   2.304   6.246
  210QMPE   H7X21312   2.880   2.197   6.223
  210QMPE   H7Y21313   2.855   2.366   6.166
  210QMPE   C3821314   3.052   2.329   6.250
  210QMPE   H8X21315   3.072   2.437   6.265
  210QMPE   H8Y21316   3.090   2.276   6.340
  210QMPE   C3921317   3.125   2.271   6.129
  210QMPE   H9X21318   3.068   2.184   6.090
  210QMPE   H9Y21319   3.228   2.240   6.158
  210QMPE  C31021320   3.149   2.370   6.020
  210QMPE  H10X21321   3.201   2.452   6.070
  210QMPE  H10Y21322   3.051   2.407   5.985
  210QMPE  C31121323   3.246   2.315   5.915
  210QMPE  H11X21324   3.211   2.218   5.875
  210QMPE  H11Y21325   3.353   2.315   5.946
  210QMPE  C31221326   3.245   2.395   5.792
  210QMPE  H12X21327   3.317   2.361   5.715
  210QMPE  H12Y21328   3.269   2.496   5.806
  210QMPE  C31321329   3.106   2.426   5.756
  210QMPE  H13X21330   3.065   2.324   5.738
  210QMPE  H13Y21331   3.032   2.478   5.819
  210QMPE  C31421332   3.105   2.521   5.640
  210QMPE  H14X21333   2.997   2.522   5.622
  210QMPE  H14Y21334   3.176   2.447   5.595
  210QMPE  C31521335   3.169   2.637   5.569
  210QMPE  H15X21336   3.161   2.634   5.461
  210QMPE  H15Y21337   3.124   2.730   5.608
  210QMPE  H15Z21338   3.276   2.626   5.547
  211QMPE     N21339   6.256   1.565   7.475
  211QMPE   HN121340   6.173   1.575   7.538
  211QMPE   HN221341   6.288   1.466   7.475
  211QMPE   HN321342   6.334   1.624   7.510
  211QMPE   C1221343   6.215   1.613   7.337
  211QMPE  H12A21344   6.111   1.578   7.320
  211QMPE  H12B21345   6.281   1.568   7.261
  211QMPE   C1121346   6.222   1.765   7.333
  211QMPE  H11A21347   6.201   1.803   7.230
  211QMPE  H11B21348   6.326   1.800   7.356
  211QMPE     P21349   5.979   1.845   7.404
  211QMPE   O1321350   5.937   1.958   7.487
  211QMPE   O1421351   5.915   1.714   7.427
  211QMPE   O1121352   5.965   1.879   7.251
  211QMPE   O1221353   6.133   1.818   7.429
  211QMPE    C121354   5.964   2.018   7.216
  211QMPE    HA21355   6.059   2.066   7.249
  211QMPE    HB21356   5.880   2.075   7.262
  211QMPE    C221357   5.957   2.043   7.065
  211QMPE    HS21358   5.940   2.149   7.043
  211QMPE   O2121359   5.866   1.962   6.995
  211QMPE   C2121360   5.754   2.019   6.969
  211QMPE   O2221361   5.711   2.124   7.011
  211QMPE   C2221362   5.696   1.925   6.869
  211QMPE   H2R21363   5.596   1.967   6.846
  211QMPE   H2S21364   5.697   1.822   6.911
  211QMPE    C321365   6.089   2.009   7.009
  211QMPE    HX21366   6.105   1.904   7.044
  211QMPE    HY21367   6.164   2.079   7.050
  211QMPE   O3121368   6.076   2.020   6.868
  211QMPE   C3121369   6.140   1.920   6.812
  211QMPE   O3221370   6.216   1.843   6.868
  211QMPE   C3221371   6.132   1.938   6.664
  211QMPE   H2X21372   6.036   1.963   6.622
  211QMPE   H2Y21373   6.169   2.043   6.678
  211QMPE   C2321374   5.768   1.905   6.741
  211QMPE   H3R21375   5.699   1.835   6.689
  211QMPE   H3S21376   5.857   1.844   6.756
  211QMPE   C2421377   5.795   2.042   6.681
  211QMPE   H4R21378   5.868   2.030   6.604
  211QMPE   H4S21379   5.831   2.110   6.763
  211QMPE   C2521380   5.678   2.105   6.613
  211QMPE   H5R21381   5.631   2.199   6.604
  211QMPE   H5S21382   5.628   2.110   6.710
  211QMPE   C2621383   5.630   2.067   6.468
  211QMPE   H6R21384   5.547   2.125   6.421
  211QMPE   H6S21385   5.530   2.043   6.444
  211QMPE   C2721386   5.724   1.981   6.399
  211QMPE   H7R21387   5.756   1.894   6.456
  211QMPE   H7S21388   5.801   2.059   6.393
  211QMPE   C2821389   5.689   1.950   6.259
  211QMPE   H8R21390   5.760   1.980   6.183
  211QMPE   H8S21391   5.614   2.034   6.255
  211QMPE   C2921392   5.635   1.810   6.236
  211QMPE   H9R21393   5.538   1.793   6.240
  211QMPE  C21721394   5.723   1.696   6.211
  211QMPE  H17R21395   5.811   1.757   6.200
  211QMPE  H17S21396   5.686   1.633   6.293
  211QMPE  C21021397   5.615   1.726   6.112
  211QMPE  H10R21398   5.515   1.684   6.103
  211QMPE  C21121399   5.640   1.779   5.985
  211QMPE  H11R21400   5.575   1.862   5.973
  211QMPE  H11S21401   5.741   1.807   5.962
  211QMPE  C21221402   5.550   1.715   5.887
  211QMPE  H12R21403   5.558   1.754   5.785
  211QMPE  H12S21404   5.439   1.717   5.915
  211QMPE  C21321405   5.607   1.596   5.844
  211QMPE  H13R21406   5.637   1.550   5.940
  211QMPE  H13S21407   5.704   1.587   5.796
  211QMPE  C21421408   5.477   1.567   5.764
  211QMPE  H14R21409   5.373   1.558   5.804
  211QMPE  H14S21410   5.519   1.492   5.815
  211QMPE  C21521411   5.487   1.535   5.623
  211QMPE  H15R21412   5.498   1.633   5.578
  211QMPE  H15S21413   5.396   1.478   5.586
  211QMPE  C21621414   5.610   1.456   5.596
  211QMPE  H16R21415   5.701   1.456   5.658
  211QMPE  H16S21416   5.632   1.466   5.493
  211QMPE  H16T21417   5.575   1.358   5.615
  211QMPE   C3321418   6.211   1.829   6.576
  211QMPE   H3X21419   6.187   1.733   6.627
  211QMPE   H3Y21420   6.321   1.824   6.586
  211QMPE   C3421421   6.190   1.813   6.420
  211QMPE   H4X21422   6.081   1.817   6.402
  211QMPE   H4Y21423   6.232   1.718   6.401
  211QMPE   C3521424   6.274   1.880   6.300
  211QMPE   H5X21425   6.375   1.929   6.307
  211QMPE   H5Y21426   6.213   1.941   6.351
  211QMPE   C3621427   6.213   1.943   6.175
  211QMPE   H6X21428   6.219   1.864   6.102
  211QMPE   H6Y21429   6.275   2.031   6.137
  211QMPE   C3721430   6.065   1.970   6.187
  211QMPE   H7X21431   6.000   1.900   6.236
  211QMPE   H7Y21432   6.033   2.052   6.246
  211QMPE   C3821433   6.021   2.011   6.057
  211QMPE   H8X21434   5.915   2.041   6.065
  211QMPE   H8Y21435   6.097   2.087   6.023
  211QMPE   C3921436   6.034   1.915   5.954
  211QMPE   H9X21437   5.997   1.823   6.001
  211QMPE   H9Y21438   6.142   1.918   5.922
  211QMPE  C31021439   5.940   1.946   5.844
  211QMPE  H10X21440   5.960   2.048   5.816
  211QMPE  H10Y21441   5.837   1.971   5.873
  211QMPE  C31121442   5.984   1.833   5.748
  211QMPE  H11X21443   5.977   1.742   5.809
  211QMPE  H11Y21444   6.089   1.849   5.713
  211QMPE  C31221445   5.901   1.778   5.634
  211QMPE  H12X21446   5.836   1.845   5.592
  211QMPE  H12Y21447   5.801   1.790   5.678
  211QMPE  C31321448   5.971   1.787   5.493
  211QMPE  H13X21449   6.020   1.883   5.466
  211QMPE  H13Y21450   6.055   1.720   5.513
  211QMPE  C31421451   5.888   1.730   5.372
  211QMPE  H14X21452   5.825   1.654   5.420
  211QMPE  H14Y21453   5.953   1.680   5.299
  211QMPE  C31521454   5.815   1.806   5.259
  211QMPE  H15X21455   5.736   1.756   5.204
  211QMPE  H15Y21456   5.778   1.890   5.299
  211QMPE  H15Z21457   5.829   1.911   5.223
  212QMPE     N21458   6.513   6.098   7.401
  212QMPE   HN121459   6.485   6.047   7.315
  212QMPE   HN221460   6.492   6.036   7.482
  212QMPE   HN321461   6.452   6.183   7.406
  212QMPE   C1221462   6.660   6.132   7.401
  212QMPE  H12A21463   6.673   6.228   7.454
  212QMPE  H12B21464   6.693   6.144   7.296
  212QMPE   C1121465   6.740   6.022   7.475
  212QMPE  H11A21466   6.731   5.925   7.420
  212QMPE  H11B21467   6.695   6.005   7.576
  212QMPE     P21468   6.977   6.066   7.367
  212QMPE   O1321469   7.116   6.029   7.404
  212QMPE   O1421470   6.950   6.198   7.306
  212QMPE   O1121471   6.914   5.954   7.273
  212QMPE   O1221472   6.877   6.058   7.491
  212QMPE    C121473   6.980   5.907   7.154
  212QMPE    HA21474   6.970   5.796   7.147
  212QMPE    HB21475   7.089   5.930   7.150
  212QMPE    C221476   6.919   5.969   7.026
  212QMPE    HS21477   6.952   5.908   6.938
  212QMPE   O2121478   6.954   6.107   7.012
  212QMPE   C2121479   7.071   6.133   6.963
  212QMPE   O2221480   7.149   6.051   6.915
  212QMPE   C2221481   7.092   6.284   6.967
  212QMPE   H2R21482   7.136   6.306   7.066
  212QMPE   H2S21483   6.993   6.335   6.962
  212QMPE    C321484   6.767   5.968   7.026
  212QMPE    HX21485   6.729   6.023   7.115
  212QMPE    HY21486   6.736   5.865   7.038
  212QMPE   O3121487   6.718   6.026   6.905
  212QMPE   C3121488   6.735   5.954   6.794
  212QMPE   O3221489   6.779   5.840   6.788
  212QMPE   C3221490   6.675   6.032   6.679
  212QMPE   H2X21491   6.573   6.064   6.711
  212QMPE   H2Y21492   6.735   6.122   6.663
  212QMPE   C2321493   7.189   6.333   6.857
  212QMPE   H3R21494   7.284   6.277   6.867
  212QMPE   H3S21495   7.208   6.441   6.879
  212QMPE   C2421496   7.138   6.314   6.714
  212QMPE   H4R21497   7.033   6.351   6.710
  212QMPE   H4S21498   7.137   6.206   6.689
  212QMPE   C2521499   7.224   6.375   6.602
  212QMPE   H5R21500   7.310   6.311   6.578
  212QMPE   H5S21501   7.271   6.469   6.630
  212QMPE   C2621502   7.140   6.398   6.477
  212QMPE   H6R21503   7.074   6.483   6.505
  212QMPE   H6S21504   7.066   6.318   6.466
  212QMPE   C2721505   7.224   6.409   6.345
  212QMPE   H7R21506   7.290   6.321   6.340
  212QMPE   H7S21507   7.304   6.483   6.336
  212QMPE   C2821508   7.137   6.427   6.217
  212QMPE   H8R21509   7.059   6.350   6.233
  212QMPE   H8S21510   7.203   6.401   6.132
  212QMPE   C2921511   7.069   6.564   6.185
  212QMPE   H9R21512   7.120   6.653   6.149
  212QMPE  C21721513   6.929   6.584   6.233
  212QMPE  H17R21514   6.888   6.492   6.270
  212QMPE  H17S21515   6.920   6.683   6.276
  212QMPE  C21021516   6.960   6.578   6.084
  212QMPE  H10R21517   6.961   6.675   6.030
  212QMPE  C21121518   6.913   6.452   6.019
  212QMPE  H11R21519   6.986   6.369   6.033
  212QMPE  H11S21520   6.817   6.427   6.068
  212QMPE  C21221521   6.879   6.474   5.873
  212QMPE  H12R21522   6.791   6.542   5.868
  212QMPE  H12S21523   6.854   6.378   5.825
  212QMPE  C21321524   6.991   6.535   5.792
  212QMPE  H13R21525   7.064   6.458   5.761
  212QMPE  H13S21526   7.047   6.612   5.850
  212QMPE  C21421527   6.934   6.592   5.664
  212QMPE  H14R21528   6.874   6.682   5.697
  212QMPE  H14S21529   6.857   6.534   5.613
  212QMPE  C21521530   7.055   6.599   5.569
  212QMPE  H15R21531   7.117   6.512   5.570
  212QMPE  H15S21532   7.127   6.664   5.620
  212QMPE  C21621533   7.033   6.646   5.425
  212QMPE  H16R21534   7.026   6.571   5.348
  212QMPE  H16S21535   7.112   6.719   5.392
  212QMPE  H16T21536   6.936   6.699   5.428
  212QMPE   C3321537   6.674   5.958   6.543
  212QMPE   H3X21538   6.622   5.864   6.563
  212QMPE   H3Y21539   6.775   5.926   6.516
  212QMPE   C3421540   6.611   6.051   6.432
  212QMPE   H4X21541   6.675   6.140   6.435
  212QMPE   H4Y21542   6.507   6.077   6.462
  212QMPE   C3521543   6.613   6.017   6.279
  212QMPE   H5X21544   6.592   6.096   6.208
  212QMPE   H5Y21545   6.514   5.985   6.244
  212QMPE   C3621546   6.722   5.914   6.245
  212QMPE   H6X21547   6.713   5.848   6.156
  212QMPE   H6Y21548   6.742   5.853   6.333
  212QMPE   C3721549   6.844   5.974   6.203
  212QMPE   H7X21550   6.816   6.032   6.112
  212QMPE   H7Y21551   6.866   6.035   6.294
  212QMPE   C3821552   6.955   5.875   6.174
  212QMPE   H8X21553   6.976   5.812   6.265
  212QMPE   H8Y21554   6.939   5.804   6.090
  212QMPE   C3921555   7.062   5.975   6.146
  212QMPE   H9X21556   7.159   5.944   6.168
  212QMPE   H9Y21557   7.061   6.049   6.229
  212QMPE  C31021558   7.063   6.036   6.006
  212QMPE  H10X21559   7.160   6.093   6.006
  212QMPE  H10Y21560   6.980   6.106   5.997
  212QMPE  C31121561   7.049   5.947   5.879
  212QMPE  H11X21562   6.950   5.921   5.841
  212QMPE  H11Y21563   7.085   5.846   5.906
  212QMPE  C31221564   7.129   6.010   5.761
  212QMPE  H12X21565   7.156   5.931   5.688
  212QMPE  H12Y21566   7.223   6.054   5.798
  212QMPE  C31321567   7.081   6.144   5.713
  212QMPE  H13X21568   6.981   6.123   5.671
  212QMPE  H13Y21569   7.075   6.209   5.803
  212QMPE  C31421570   7.174   6.212   5.613
  212QMPE  H14X21571   7.262   6.251   5.670
  212QMPE  H14Y21572   7.124   6.303   5.574
  212QMPE  C31521573   7.218   6.124   5.495
  212QMPE  H15X21574   7.239   6.019   5.525
  212QMPE  H15Y21575   7.149   6.125   5.410
  212QMPE  H15Z21576   7.310   6.164   5.449
  213QMPE     N21577   6.826   2.154   7.257
  213QMPE   HN121578   6.760   2.093   7.310
  213QMPE   HN221579   6.848   2.113   7.164
  213QMPE   HN321580   6.913   2.163   7.312
  213QMPE   C1221581   6.782   2.297   7.240
  213QMPE  H12A21582   6.680   2.297   7.196
  213QMPE  H12B21583   6.853   2.346   7.171
  213QMPE   C1121584   6.787   2.374   7.373
  213QMPE  H11A21585   6.762   2.482   7.356
  213QMPE  H11B21586   6.891   2.375   7.412
  213QMPE     P21587   6.541   2.334   7.454
  213QMPE   O1321588   6.487   2.391   7.579
  213QMPE   O1421589   6.488   2.208   7.398
  213QMPE   O1121590   6.530   2.447   7.341
  213QMPE   O1221591   6.700   2.316   7.469
  213QMPE    C121592   6.408   2.460   7.265
  213QMPE    HA21593   6.347   2.540   7.310
  213QMPE    HB21594   6.344   2.367   7.266
  213QMPE    C221595   6.434   2.488   7.114
  213QMPE    HS21596   6.338   2.521   7.067
  213QMPE   O2121597   6.484   2.370   7.053
  213QMPE   C2121598   6.394   2.299   6.990
  213QMPE   O2221599   6.273   2.314   6.994
  213QMPE   C2221600   6.470   2.200   6.906
  213QMPE   H2R21601   6.531   2.137   6.973
  213QMPE   H2S21602   6.533   2.253   6.832
  213QMPE    C321603   6.535   2.600   7.083
  213QMPE    HX21604   6.638   2.573   7.117
  213QMPE    HY21605   6.506   2.689   7.141
  213QMPE   O3121606   6.527   2.635   6.944
  213QMPE   C3121607   6.618   2.578   6.863
  213QMPE   O3221608   6.705   2.501   6.898
  213QMPE   C3221609   6.601   2.630   6.720
  213QMPE   H2X21610   6.507   2.687   6.710
  213QMPE   H2Y21611   6.685   2.700   6.699
  213QMPE   C2321612   6.371   2.109   6.840
  213QMPE   H3R21613   6.294   2.164   6.782
  213QMPE   H3S21614   6.320   2.059   6.926
  213QMPE   C2421615   6.440   2.000   6.760
  213QMPE   H4R21616   6.363   1.941   6.718
  213QMPE   H4S21617   6.493   1.925   6.822
  213QMPE   C2521618   6.515   2.043   6.635
  213QMPE   H5R21619   6.542   1.948   6.582
  213QMPE   H5S21620   6.605   2.094   6.670
  213QMPE   C2621621   6.442   2.142   6.540
  213QMPE   H6R21622   6.497   2.144   6.442
  213QMPE   H6S21623   6.397   2.234   6.581
  213QMPE   C2721624   6.325   2.085   6.483
  213QMPE   H7R21625   6.239   2.071   6.531
  213QMPE   H7S21626   6.361   1.983   6.480
  213QMPE   C2821627   6.233   2.152   6.385
  213QMPE   H8R21628   6.137   2.089   6.386
  213QMPE   H8S21629   6.283   2.154   6.289
  213QMPE   C2921630   6.179   2.278   6.418
  213QMPE   H9R21631   6.192   2.323   6.516
  213QMPE  C21721632   6.034   2.267   6.396
  213QMPE  H17R21633   5.975   2.178   6.371
  213QMPE  H17S21634   5.990   2.355   6.434
  213QMPE  C21021635   6.119   2.341   6.298
  213QMPE  H10R21636   6.088   2.447   6.301
  213QMPE  C21121637   6.128   2.267   6.169
  213QMPE  H11R21638   6.224   2.239   6.125
  213QMPE  H11S21639   6.040   2.205   6.168
  213QMPE  C21221640   6.071   2.335   6.060
  213QMPE  H12R21641   6.107   2.434   6.086
  213QMPE  H12S21642   5.987   2.371   6.114
  213QMPE  C21321643   6.025   2.273   5.918
  213QMPE  H13R21644   5.932   2.265   5.856
  213QMPE  H13S21645   5.971   2.184   5.934
  213QMPE  C21421646   6.133   2.281   5.825
  213QMPE  H14R21647   6.211   2.228   5.882
  213QMPE  H14S21648   6.148   2.388   5.824
  213QMPE  C21521649   6.114   2.235   5.685
  213QMPE  H15R21650   6.187   2.290   5.625
  213QMPE  H15S21651   6.011   2.256   5.647
  213QMPE  C21621652   6.159   2.095   5.672
  213QMPE  H16R21653   6.207   2.042   5.757
  213QMPE  H16S21654   6.157   2.050   5.571
  213QMPE  H16T21655   6.072   2.044   5.686
  213QMPE   C3321656   6.608   2.516   6.617
  213QMPE   H3X21657   6.530   2.439   6.639
  213QMPE   H3Y21658   6.706   2.464   6.624
  213QMPE   C3421659   6.587   2.569   6.475
  213QMPE   H4X21660   6.669   2.640   6.450
  213QMPE   H4Y21661   6.490   2.624   6.474
  213QMPE   C3521662   6.585   2.459   6.370
  213QMPE   H5X21663   6.564   2.502   6.269
  213QMPE   H5Y21664   6.501   2.389   6.393
  213QMPE   C3621665   6.719   2.385   6.361
  213QMPE   H6X21666   6.749   2.340   6.458
  213QMPE   H6Y21667   6.799   2.457   6.333
  213QMPE   C3721668   6.714   2.275   6.256
  213QMPE   H7X21669   6.684   2.178   6.302
  213QMPE   H7Y21670   6.637   2.301   6.179
  213QMPE   C3821671   6.849   2.257   6.189
  213QMPE   H8X21672   6.876   2.347   6.129
  213QMPE   H8Y21673   6.926   2.246   6.268
  213QMPE   C3921674   6.847   2.133   6.102
  213QMPE   H9X21675   6.774   2.058   6.141
  213QMPE   H9Y21676   6.946   2.084   6.099
  213QMPE  C31021677   6.801   2.169   5.962
  213QMPE  H10X21678   6.867   2.243   5.913
  213QMPE  H10Y21679   6.694   2.199   5.962
  213QMPE  C31121680   6.811   2.051   5.876
  213QMPE  H11X21681   6.728   1.980   5.902
  213QMPE  H11Y21682   6.913   2.009   5.891
  213QMPE  C31221683   6.775   2.083   5.738
  213QMPE  H12X21684   6.802   2.001   5.674
  213QMPE  H12Y21685   6.845   2.148   5.684
  213QMPE  C31321686   6.619   2.114   5.749
  213QMPE  H13X21687   6.560   2.038   5.807
  213QMPE  H13Y21688   6.608   2.220   5.770
  213QMPE  C31421689   6.559   2.096   5.618
  213QMPE  H14X21690   6.593   1.991   5.609
  213QMPE  H14Y21691   6.647   2.145   5.586
  213QMPE  C31521692   6.427   2.128   5.531
  213QMPE  H15X21693   6.380   2.226   5.532
  213QMPE  H15Y21694   6.442   2.118   5.422
  213QMPE  H15Z21695   6.362   2.044   5.506
  214QMPE     N21696   1.089   3.943   7.355
  214QMPE   HN121697   1.100   3.856   7.299
  214QMPE   HN221698   1.141   4.017   7.303
  214QMPE   HN321699   1.134   3.932   7.448
  214QMPE   C1221700   0.945   3.989   7.363
  214QMPE  H12A21701   0.887   3.902   7.401
  214QMPE  H12B21702   0.910   4.014   7.261
  214QMPE   C1121703   0.923   4.111   7.457
  214QMPE  H11A21704   0.941   4.078   7.562
  214QMPE  H11B21705   0.815   4.140   7.451
  214QMPE     P21706   0.962   4.369   7.392
  214QMPE   O1321707   0.933   4.445   7.515
  214QMPE   O1421708   0.858   4.357   7.288
  214QMPE   O1121709   1.095   4.422   7.331
  214QMPE   O1221710   1.011   4.220   7.428
  214QMPE    C121711   1.229   4.382   7.361
  214QMPE    HA21712   1.236   4.307   7.444
  214QMPE    HB21713   1.285   4.471   7.396
  214QMPE    C221714   1.302   4.331   7.232
  214QMPE    HS21715   1.402   4.377   7.224
  214QMPE   O2121716   1.226   4.361   7.113
  214QMPE   C2121717   1.222   4.490   7.085
  214QMPE   O2221718   1.289   4.578   7.135
  214QMPE   C2221719   1.120   4.518   6.977
  214QMPE   H2R21720   1.034   4.567   7.027
  214QMPE   H2S21721   1.084   4.422   6.933
  214QMPE    C321722   1.329   4.180   7.237
  214QMPE    HX21723   1.236   4.134   7.275
  214QMPE    HY21724   1.410   4.155   7.310
  214QMPE   O3121725   1.367   4.136   7.105
  214QMPE   C3121726   1.271   4.078   7.035
  214QMPE   O3221727   1.167   4.034   7.082
  214QMPE   C3221728   1.322   4.061   6.892
  214QMPE   H2X21729   1.381   4.146   6.857
  214QMPE   H2Y21730   1.393   3.980   6.903
  214QMPE   C2321731   1.181   4.607   6.866
  214QMPE   H3R21732   1.275   4.558   6.831
  214QMPE   H3S21733   1.210   4.707   6.906
  214QMPE   C2421734   1.085   4.616   6.748
  214QMPE   H4R21735   0.983   4.646   6.782
  214QMPE   H4S21736   1.076   4.514   6.703
  214QMPE   C2521737   1.123   4.703   6.631
  214QMPE   H5R21738   1.227   4.678   6.597
  214QMPE   H5S21739   1.130   4.811   6.656
  214QMPE   C2621740   1.024   4.668   6.517
  214QMPE   H6R21741   1.010   4.561   6.501
  214QMPE   H6S21742   1.081   4.701   6.428
  214QMPE   C2721743   0.872   4.709   6.528
  214QMPE   H7R21744   0.874   4.811   6.538
  214QMPE   H7S21745   0.813   4.700   6.619
  214QMPE   C2821746   0.791   4.726   6.400
  214QMPE   H8R21747   0.784   4.634   6.349
  214QMPE   H8S21748   0.830   4.757   6.309
  214QMPE   C2921749   0.700   4.850   6.392
  214QMPE   H9R21750   0.702   4.946   6.449
  214QMPE  C21721751   0.587   4.798   6.445
  214QMPE  H17R21752   0.626   4.723   6.511
  214QMPE  H17S21753   0.504   4.849   6.485
  214QMPE  C21021754   0.605   4.823   6.286
  214QMPE  H10R21755   0.502   4.857   6.276
  214QMPE  C21121756   0.661   4.738   6.161
  214QMPE  H11R21757   0.722   4.652   6.180
  214QMPE  H11S21758   0.573   4.703   6.100
  214QMPE  C21221759   0.716   4.787   6.034
  214QMPE  H12R21760   0.769   4.874   6.029
  214QMPE  H12S21761   0.634   4.853   6.031
  214QMPE  C21321762   0.725   4.691   5.913
  214QMPE  H13R21763   0.628   4.643   5.885
  214QMPE  H13S21764   0.779   4.601   5.939
  214QMPE  C21421765   0.761   4.752   5.782
  214QMPE  H14R21766   0.865   4.779   5.787
  214QMPE  H14S21767   0.716   4.853   5.763
  214QMPE  C21521768   0.717   4.649   5.680
  214QMPE  H15R21769   0.627   4.677   5.636
  214QMPE  H15S21770   0.692   4.546   5.716
  214QMPE  C21621771   0.773   4.658   5.549
  214QMPE  H16R21772   0.878   4.646   5.572
  214QMPE  H16S21773   0.736   4.749   5.494
  214QMPE  H16T21774   0.730   4.570   5.499
  214QMPE   C3321775   1.215   4.012   6.793
  214QMPE   H3X21776   1.149   3.936   6.841
  214QMPE   H3Y21777   1.259   3.960   6.705
  214QMPE   C3421778   1.134   4.126   6.733
  214QMPE   H4X21779   1.106   4.196   6.815
  214QMPE   H4Y21780   1.041   4.080   6.691
  214QMPE   C3521781   1.206   4.202   6.620
  214QMPE   H5X21782   1.310   4.229   6.650
  214QMPE   H5Y21783   1.151   4.297   6.601
  214QMPE   C3621784   1.211   4.119   6.491
  214QMPE   H6X21785   1.109   4.077   6.475
  214QMPE   H6Y21786   1.282   4.034   6.506
  214QMPE   C3721787   1.256   4.193   6.364
  214QMPE   H7X21788   1.357   4.236   6.381
  214QMPE   H7Y21789   1.265   4.120   6.281
  214QMPE   C3821790   1.157   4.303   6.321
  214QMPE   H8X21791   1.057   4.275   6.360
  214QMPE   H8Y21792   1.189   4.398   6.368
  214QMPE   C3921793   1.149   4.326   6.168
  214QMPE   H9X21794   1.138   4.231   6.116
  214QMPE   H9Y21795   1.243   4.372   6.132
  214QMPE  C31021796   1.022   4.401   6.128
  214QMPE  H10X21797   1.008   4.485   6.199
  214QMPE  H10Y21798   0.936   4.330   6.140
  214QMPE  C31121799   1.019   4.464   5.987
  214QMPE  H11X21800   1.111   4.523   5.969
  214QMPE  H11Y21801   0.936   4.532   5.985
  214QMPE  C31221802   0.996   4.370   5.871
  214QMPE  H12X21803   0.916   4.295   5.882
  214QMPE  H12Y21804   1.087   4.315   5.875
  214QMPE  C31321805   0.995   4.436   5.734
  214QMPE  H13X21806   0.891   4.468   5.716
  214QMPE  H13Y21807   1.061   4.525   5.737
  214QMPE  C31421808   1.041   4.340   5.623
  214QMPE  H14X21809   0.986   4.244   5.636
  214QMPE  H14Y21810   1.151   4.323   5.634
  214QMPE  C31521811   1.015   4.392   5.483
  214QMPE  H15X21812   0.913   4.435   5.482
  214QMPE  H15Y21813   1.084   4.475   5.460
  214QMPE  H15Z21814   1.023   4.314   5.405
  215QMPE     N21815   5.062   0.285   7.612
  215QMPE   HN121816   5.047   0.388   7.610
  215QMPE   HN221817   4.986   0.251   7.549
  215QMPE   HN321818   5.045   0.251   7.708
  215QMPE   C1221819   5.200   0.261   7.558
  215QMPE  H12A21820   5.224   0.153   7.565
  215QMPE  H12B21821   5.272   0.322   7.617
  215QMPE   C1121822   5.204   0.312   7.414
  215QMPE  H11A21823   5.131   0.255   7.352
  215QMPE  H11B21824   5.307   0.292   7.376
  215QMPE     P21825   5.074   0.524   7.317
  215QMPE   O1321826   5.082   0.669   7.346
  215QMPE   O1421827   4.947   0.450   7.334
  215QMPE   O1121828   5.129   0.501   7.171
  215QMPE   O1221829   5.180   0.452   7.414
  215QMPE    C121830   5.269   0.504   7.160
  215QMPE    HA21831   5.299   0.398   7.178
  215QMPE    HB21832   5.321   0.562   7.240
  215QMPE    C221833   5.323   0.556   7.024
  215QMPE    HS21834   5.433   0.574   7.021
  215QMPE   O2121835   5.274   0.676   6.987
  215QMPE   C2121836   5.321   0.709   6.869
  215QMPE   O2221837   5.427   0.680   6.816
  215QMPE   C2221838   5.232   0.815   6.839
  215QMPE   H2R21839   5.241   0.872   6.933
  215QMPE   H2S21840   5.129   0.780   6.839
  215QMPE    C321841   5.288   0.456   6.915
  215QMPE    HX21842   5.269   0.363   6.970
  215QMPE    HY21843   5.373   0.458   6.842
  215QMPE   O3121844   5.166   0.474   6.855
  215QMPE   C3121845   5.149   0.404   6.749
  215QMPE   O3221846   5.230   0.339   6.684
  215QMPE   C3221847   5.002   0.419   6.734
  215QMPE   H2X21848   4.952   0.330   6.776
  215QMPE   H2Y21849   4.969   0.511   6.788
  215QMPE   C2321850   5.281   0.886   6.717
  215QMPE   H3R21851   5.297   0.818   6.631
  215QMPE   H3S21852   5.387   0.916   6.728
  215QMPE   C2421853   5.189   0.998   6.667
  215QMPE   H4R21854   5.233   1.013   6.575
  215QMPE   H4S21855   5.170   1.104   6.690
  215QMPE   C2521856   5.053   1.002   6.672
  215QMPE   H5R21857   5.004   1.089   6.730
  215QMPE   H5S21858   5.055   0.919   6.737
  215QMPE   C2621859   5.048   0.989   6.523
  215QMPE   H6R21860   5.098   1.076   6.477
  215QMPE   H6S21861   4.972   1.029   6.464
  215QMPE   C2721862   5.069   0.841   6.494
  215QMPE   H7R21863   5.062   0.778   6.588
  215QMPE   H7S21864   5.172   0.840   6.458
  215QMPE   C2821865   4.971   0.781   6.395
  215QMPE   H8R21866   4.875   0.766   6.449
  215QMPE   H8S21867   5.002   0.678   6.371
  215QMPE   C2921868   4.956   0.868   6.268
  215QMPE   H9R21869   4.922   0.974   6.275
  215QMPE  C21721870   4.880   0.790   6.160
  215QMPE  H17R21871   4.877   0.682   6.167
  215QMPE  H17S21872   4.816   0.848   6.095
  215QMPE  C21021873   5.019   0.842   6.139
  215QMPE  H10R21874   5.006   0.917   6.063
  215QMPE  C21121875   5.125   0.736   6.131
  215QMPE  H11R21876   5.092   0.647   6.189
  215QMPE  H11S21877   5.129   0.706   6.025
  215QMPE  C21221878   5.259   0.780   6.192
  215QMPE  H12R21879   5.315   0.685   6.205
  215QMPE  H12S21880   5.247   0.830   6.288
  215QMPE  C21321881   5.347   0.870   6.107
  215QMPE  H13R21882   5.441   0.894   6.161
  215QMPE  H13S21883   5.300   0.969   6.092
  215QMPE  C21421884   5.382   0.796   5.978
  215QMPE  H14R21885   5.292   0.755   5.927
  215QMPE  H14S21886   5.455   0.716   5.999
  215QMPE  C21521887   5.454   0.880   5.882
  215QMPE  H15R21888   5.532   0.836   5.818
  215QMPE  H15S21889   5.491   0.966   5.942
  215QMPE  C21621890   5.359   0.934   5.788
  215QMPE  H16R21891   5.265   0.898   5.753
  215QMPE  H16S21892   5.411   0.965   5.698
  215QMPE  H16T21893   5.343   1.019   5.855
  215QMPE   C3321894   4.977   0.438   6.588
  215QMPE   H3X21895   5.045   0.514   6.543
  215QMPE   H3Y21896   4.872   0.471   6.575
  215QMPE   C3421897   4.996   0.307   6.518
  215QMPE   H4X21898   4.919   0.236   6.554
  215QMPE   H4Y21899   5.088   0.248   6.537
  215QMPE   C3521900   4.987   0.336   6.371
  215QMPE   H5X21901   4.930   0.422   6.334
  215QMPE   H5Y21902   4.914   0.265   6.360
  215QMPE   C3621903   5.105   0.287   6.290
  215QMPE   H6X21904   5.127   0.180   6.310
  215QMPE   H6Y21905   5.186   0.350   6.332
  215QMPE   C3721906   5.086   0.312   6.140
  215QMPE   H7X21907   5.026   0.229   6.095
  215QMPE   H7Y21908   5.028   0.406   6.128
  215QMPE   C3821909   5.220   0.325   6.069
  215QMPE   H8X21910   5.274   0.415   6.105
  215QMPE   H8Y21911   5.281   0.237   6.102
  215QMPE   C3921912   5.208   0.330   5.914
  215QMPE   H9X21913   5.144   0.243   5.886
  215QMPE   H9Y21914   5.308   0.314   5.870
  215QMPE  C31021915   5.148   0.464   5.859
  215QMPE  H10X21916   5.217   0.546   5.887
  215QMPE  H10Y21917   5.052   0.480   5.912
  215QMPE  C31121918   5.120   0.473   5.707
  215QMPE  H11X21919   5.060   0.383   5.683
  215QMPE  H11Y21920   5.212   0.479   5.645
  215QMPE  C31221921   5.029   0.584   5.654
  215QMPE  H12X21922   4.940   0.597   5.719
  215QMPE  H12Y21923   4.991   0.556   5.552
  215QMPE  C31321924   5.093   0.717   5.631
  215QMPE  H13X21925   5.149   0.745   5.723
  215QMPE  H13Y21926   5.172   0.719   5.551
  215QMPE  C31421927   4.973   0.806   5.588
  215QMPE  H14X21928   4.906   0.775   5.509
  215QMPE  H14Y21929   5.023   0.883   5.529
  215QMPE  C31521930   4.871   0.851   5.699
  215QMPE  H15X21931   4.851   0.819   5.802
  215QMPE  H15Y21932   4.965   0.840   5.751
  215QMPE  H15Z21933   4.843   0.959   5.700
  216QMPE     N21934   2.507   7.470   7.554
  216QMPE   HN121935   2.518   7.573   7.549
  216QMPE   HN221936   2.554   7.434   7.639
  216QMPE   HN321937   2.548   7.426   7.468
  216QMPE   C1221938   2.363   7.431   7.567
  216QMPE  H12A21939   2.319   7.493   7.647
  216QMPE  H12B21940   2.357   7.324   7.595
  216QMPE   C1121941   2.287   7.457   7.437
  216QMPE  H11A21942   2.302   7.564   7.409
  216QMPE  H11B21943   2.179   7.438   7.457
  216QMPE     P21944   2.338   7.220   7.323
  216QMPE   O1321945   2.216   7.168   7.387
  216QMPE   O1421946   2.469   7.183   7.385
  216QMPE   O1121947   2.333   7.190   7.170
  216QMPE   O1221948   2.333   7.379   7.328
  216QMPE    C121949   2.375   7.285   7.073
  216QMPE    HA21950   2.432   7.231   6.994
  216QMPE    HB21951   2.447   7.358   7.116
  216QMPE    C221952   2.254   7.361   7.009
  216QMPE    HS21953   2.198   7.408   7.094
  216QMPE   O2121954   2.169   7.268   6.940
  216QMPE   C2121955   2.044   7.303   6.923
  216QMPE   O2221956   1.990   7.405   6.964
  216QMPE   C2221957   1.978   7.196   6.839
  216QMPE   H2R21958   1.940   7.117   6.906
  216QMPE   H2S21959   2.056   7.152   6.774
  216QMPE    C321960   2.303   7.474   6.913
  216QMPE    HX21961   2.371   7.538   6.973
  216QMPE    HY21962   2.218   7.538   6.882
  216QMPE   O3121963   2.366   7.420   6.795
  216QMPE   C3121964   2.484   7.469   6.764
  216QMPE   O3221965   2.550   7.548   6.829
  216QMPE   C3221966   2.528   7.424   6.625
  216QMPE   H2X21967   2.465   7.470   6.547
  216QMPE   H2Y21968   2.630   7.464   6.613
  216QMPE   C2321969   1.867   7.249   6.749
  216QMPE   H3R21970   1.815   7.334   6.797
  216QMPE   H3S21971   1.789   7.170   6.737
  216QMPE   C2421972   1.926   7.286   6.614
  216QMPE   H4R21973   1.849   7.279   6.534
  216QMPE   H4S21974   2.005   7.213   6.587
  216QMPE   C2521975   1.991   7.426   6.606
  216QMPE   H5R21976   2.066   7.449   6.682
  216QMPE   H5S21977   1.912   7.501   6.629
  216QMPE   C2621978   2.048   7.437   6.464
  216QMPE   H6R21979   1.971   7.415   6.387
  216QMPE   H6S21980   2.129   7.365   6.448
  216QMPE   C2721981   2.109   7.569   6.433
  216QMPE   H7R21982   2.191   7.592   6.504
  216QMPE   H7S21983   2.020   7.632   6.454
  216QMPE   C2821984   2.169   7.571   6.292
  216QMPE   H8R21985   2.094   7.543   6.218
  216QMPE   H8S21986   2.249   7.498   6.284
  216QMPE   C2921987   2.242   7.696   6.262
  216QMPE   H9R21988   2.324   7.724   6.329
  216QMPE  C21721989   2.169   7.769   6.146
  216QMPE  H17R21990   2.088   7.766   6.213
  216QMPE  H17S21991   2.100   7.836   6.168
  216QMPE  C21021992   2.312   7.734   6.144
  216QMPE  H10R21993   2.375   7.822   6.131
  216QMPE  C21121994   2.276   7.673   6.028
  216QMPE  H11R21995   2.340   7.590   6.000
  216QMPE  H11S21996   2.183   7.613   6.038
  216QMPE  C21221997   2.283   7.795   5.935
  216QMPE  H12R21998   2.262   7.725   5.862
  216QMPE  H12S21999   2.392   7.814   5.930
  216QMPE  C21322000   2.194   7.923   5.895
  216QMPE  H13R22001   2.232   7.971   5.807
  216QMPE  H13S22002   2.225   7.975   5.982
  216QMPE  C21422003   2.043   7.950   5.850
  216QMPE  H14R22004   2.002   8.046   5.854
  216QMPE  H14S22005   1.997   7.929   5.941
  216QMPE  C21522006   1.962   7.888   5.733
  216QMPE  H15R22007   1.855   7.874   5.766
  216QMPE  H15S22008   1.988   7.788   5.715
  216QMPE  C21622009   1.975   7.909   5.587
  216QMPE  H16R22010   2.024   7.839   5.522
  216QMPE  H16S22011   2.010   8.004   5.551
  216QMPE  H16T22012   1.869   7.884   5.581
  216QMPE   C3322013   2.524   7.271   6.610
  216QMPE   H3X22014   2.568   7.223   6.700
  216QMPE   H3Y22015   2.589   7.242   6.524
  216QMPE   C3422016   2.385   7.219   6.574
  216QMPE   H4X22017   2.341   7.282   6.494
  216QMPE   H4Y22018   2.315   7.213   6.661
  216QMPE   C3522019   2.395   7.080   6.520
  216QMPE   H5X22020   2.424   7.020   6.610
  216QMPE   H5Y22021   2.473   7.074   6.439
  216QMPE   C3622022   2.268   7.018   6.467
  216QMPE   H6X22023   2.200   6.986   6.548
  216QMPE   H6Y22024   2.306   6.931   6.416
  216QMPE   C3722025   2.200   7.094   6.356
  216QMPE   H7X22026   2.164   7.188   6.397
  216QMPE   H7Y22027   2.277   7.116   6.279
  216QMPE   C3822028   2.081   7.018   6.296
  216QMPE   H8X22029   2.100   6.908   6.296
  216QMPE   H8Y22030   1.993   7.033   6.362
  216QMPE   C3922031   2.049   7.066   6.153
  216QMPE   H9X22032   1.959   7.010   6.119
  216QMPE   H9Y22033   2.133   7.039   6.086
  216QMPE  C31022034   2.024   7.218   6.145
  216QMPE  H10X22035   2.117   7.276   6.163
  216QMPE  H10Y22036   1.953   7.243   6.227
  216QMPE  C31122037   1.964   7.269   6.013
  216QMPE  H11X22038   1.918   7.368   6.033
  216QMPE  H11Y22039   1.884   7.200   5.979
  216QMPE  C31222040   2.066   7.285   5.900
  216QMPE  H12X22041   2.124   7.192   5.887
  216QMPE  H12Y22042   2.143   7.360   5.932
  216QMPE  C31322043   2.000   7.314   5.762
  216QMPE  H13X22044   1.920   7.242   5.740
  216QMPE  H13Y22045   1.941   7.407   5.751
  216QMPE  C31422046   2.106   7.310   5.653
  216QMPE  H14X22047   2.140   7.205   5.645
  216QMPE  H14Y22048   2.197   7.364   5.688
  216QMPE  C31522049   2.054   7.361   5.519
  216QMPE  H15X22050   1.963   7.313   5.483
  216QMPE  H15Y22051   2.018   7.466   5.529
  216QMPE  H15Z22052   2.135   7.358   5.441
  217QMPE     N22053   7.052   1.598   7.680
  217QMPE   HN122054   6.987   1.539   7.624
  217QMPE   HN222055   7.122   1.532   7.720
  217QMPE   HN322056   7.001   1.645   7.757
  217QMPE   C1222057   7.114   1.695   7.584
  217QMPE  H12A22058   7.224   1.676   7.583
  217QMPE  H12B22059   7.098   1.798   7.622
  217QMPE   C1122060   7.062   1.676   7.439
  217QMPE  H11A22061   7.122   1.594   7.394
  217QMPE  H11B22062   7.083   1.769   7.381
  217QMPE     P22063   6.864   1.602   7.284
  217QMPE   O1322064   6.794   1.723   7.234
  217QMPE   O1422065   6.785   1.479   7.296
  217QMPE   O1122066   6.994   1.576   7.197
  217QMPE   O1222067   6.923   1.643   7.431
  217QMPE    C122068   7.053   1.675   7.111
  217QMPE    HA22069   7.162   1.678   7.133
  217QMPE    HB22070   7.011   1.777   7.128
  217QMPE    C222071   7.037   1.646   6.959
  217QMPE    HS22072   7.098   1.720   6.902
  217QMPE   O2122073   6.899   1.656   6.918
  217QMPE   C2122074   6.853   1.776   6.883
  217QMPE   O2222075   6.914   1.881   6.890
  217QMPE   C2222076   6.717   1.762   6.818
  217QMPE   H2R22077   6.704   1.838   6.738
  217QMPE   H2S22078   6.635   1.776   6.891
  217QMPE    C322079   7.094   1.505   6.926
  217QMPE    HX22080   7.038   1.427   6.980
  217QMPE    HY22081   7.199   1.500   6.964
  217QMPE   O3122082   7.087   1.473   6.786
  217QMPE   C3122083   7.199   1.495   6.719
  217QMPE   O3222084   7.293   1.564   6.755
  217QMPE   C3222085   7.190   1.418   6.588
  217QMPE   H2X22086   7.272   1.344   6.584
  217QMPE   H2Y22087   7.094   1.361   6.588
  217QMPE   C2322088   6.706   1.626   6.754
  217QMPE   H3R22089   6.704   1.542   6.829
  217QMPE   H3S22090   6.793   1.610   6.686
  217QMPE   C2422091   6.585   1.622   6.669
  217QMPE   H4R22092   6.587   1.705   6.594
  217QMPE   H4S22093   6.487   1.627   6.723
  217QMPE   C2522094   6.601   1.501   6.587
  217QMPE   H5R22095   6.569   1.409   6.645
  217QMPE   H5S22096   6.699   1.482   6.539
  217QMPE   C2622097   6.506   1.526   6.476
  217QMPE   H6R22098   6.415   1.541   6.542
  217QMPE   H6S22099   6.537   1.426   6.435
  217QMPE   C2722100   6.490   1.620   6.358
  217QMPE   H7R22101   6.585   1.609   6.305
  217QMPE   H7S22102   6.466   1.717   6.406
  217QMPE   C2822103   6.377   1.595   6.252
  217QMPE   H8R22104   6.274   1.585   6.292
  217QMPE   H8S22105   6.387   1.506   6.193
  217QMPE   C2922106   6.388   1.670   6.124
  217QMPE   H9R22107   6.385   1.775   6.129
  217QMPE  C21722108   6.328   1.608   6.000
  217QMPE  H17R22109   6.330   1.506   5.975
  217QMPE  H17S22110   6.262   1.670   5.944
  217QMPE  C21022111   6.479   1.621   6.015
  217QMPE  H10R22112   6.509   1.693   5.940
  217QMPE  C21122113   6.551   1.483   6.020
  217QMPE  H11R22114   6.644   1.494   6.079
  217QMPE  H11S22115   6.498   1.398   6.067
  217QMPE  C21222116   6.585   1.437   5.877
  217QMPE  H12R22117   6.651   1.349   5.889
  217QMPE  H12S22118   6.640   1.518   5.825
  217QMPE  C21322119   6.460   1.396   5.795
  217QMPE  H13R22120   6.389   1.481   5.793
  217QMPE  H13S22121   6.413   1.310   5.847
  217QMPE  C21422122   6.476   1.357   5.648
  217QMPE  H14R22123   6.471   1.447   5.584
  217QMPE  H14S22124   6.393   1.288   5.620
  217QMPE  C21522125   6.603   1.281   5.619
  217QMPE  H15R22126   6.617   1.203   5.697
  217QMPE  H15S22127   6.689   1.351   5.628
  217QMPE  C21622128   6.601   1.219   5.480
  217QMPE  H16R22129   6.509   1.183   5.436
  217QMPE  H16S22130   6.667   1.130   5.483
  217QMPE  H16T22131   6.641   1.293   5.407
  217QMPE   C3322132   7.196   1.517   6.471
  217QMPE   H3X22133   7.302   1.523   6.436
  217QMPE   H3Y22134   7.166   1.619   6.506
  217QMPE   C3422135   7.100   1.487   6.355
  217QMPE   H4X22136   6.996   1.480   6.392
  217QMPE   H4Y22137   7.128   1.392   6.305
  217QMPE   C3522138   7.106   1.596   6.248
  217QMPE   H5X22139   7.213   1.620   6.229
  217QMPE   H5Y22140   7.058   1.690   6.284
  217QMPE   C3622141   7.049   1.550   6.114
  217QMPE   H6X22142   6.943   1.517   6.119
  217QMPE   H6Y22143   7.109   1.463   6.080
  217QMPE   C3722144   7.068   1.659   6.008
  217QMPE   H7X22145   7.176   1.687   6.010
  217QMPE   H7Y22146   7.044   1.615   5.909
  217QMPE   C3822147   6.984   1.784   6.028
  217QMPE   H8X22148   6.958   1.806   6.134
  217QMPE   H8Y22149   7.043   1.872   5.992
  217QMPE   C3922150   6.854   1.772   5.949
  217QMPE   H9X22151   6.796   1.848   6.004
  217QMPE   H9Y22152   6.795   1.682   5.973
  217QMPE  C31022153   6.870   1.782   5.793
  217QMPE  H10X22154   6.932   1.700   5.756
  217QMPE  H10Y22155   6.933   1.868   5.763
  217QMPE  C31122156   6.738   1.782   5.711
  217QMPE  H11X22157   6.666   1.858   5.743
  217QMPE  H11Y22158   6.678   1.691   5.726
  217QMPE  C31222159   6.759   1.811   5.560
  217QMPE  H12X22160   6.849   1.873   5.534
  217QMPE  H12Y22161   6.670   1.845   5.509
  217QMPE  C31322162   6.756   1.691   5.484
  217QMPE  H13X22163   6.837   1.659   5.555
  217QMPE  H13Y22164   6.669   1.626   5.500
  217QMPE  C31422165   6.798   1.701   5.337
  217QMPE  H14X22166   6.726   1.743   5.269
  217QMPE  H14Y22167   6.799   1.601   5.286
  217QMPE  C31522168   6.940   1.754   5.325
  217QMPE  H15X22169   7.021   1.689   5.364
  217QMPE  H15Y22170   6.954   1.740   5.224
  217QMPE  H15Z22171   6.960   1.861   5.339
  218QMPE     N22172   1.690   0.805   7.464
  218QMPE   HN122173   1.794   0.797   7.452
  218QMPE   HN222174   1.664   0.906   7.463
  218QMPE   HN322175   1.658   0.764   7.555
  218QMPE   C1222176   1.617   0.740   7.350
  218QMPE  H12A22177   1.673   0.760   7.258
  218QMPE  H12B22178   1.517   0.789   7.342
  218QMPE   C1122179   1.604   0.588   7.370
  218QMPE  H11A22180   1.695   0.540   7.411
  218QMPE  H11B22181   1.593   0.541   7.269
  218QMPE     P22182   1.348   0.543   7.394
  218QMPE   O1322183   1.256   0.628   7.471
  218QMPE   O1422184   1.318   0.400   7.387
  218QMPE   O1122185   1.375   0.605   7.250
  218QMPE   O1222186   1.495   0.561   7.457
  218QMPE    C122187   1.274   0.664   7.168
  218QMPE    HA22188   1.265   0.771   7.197
  218QMPE    HB22189   1.175   0.615   7.182
  218QMPE    C222190   1.311   0.657   7.016
  218QMPE    HS22191   1.226   0.704   6.961
  218QMPE   O2122192   1.333   0.520   6.976
  218QMPE   C2122193   1.334   0.494   6.846
  218QMPE   O2222194   1.299   0.571   6.758
  218QMPE   C2222195   1.386   0.353   6.818
  218QMPE   H2R22196   1.305   0.292   6.775
  218QMPE   H2S22197   1.418   0.298   6.908
  218QMPE    C322198   1.440   0.741   6.994
  218QMPE    HX22199   1.518   0.693   7.057
  218QMPE    HY22200   1.420   0.844   7.032
  218QMPE   O3122201   1.490   0.738   6.859
  218QMPE   C3122202   1.536   0.852   6.814
  218QMPE   O3222203   1.519   0.961   6.864
  218QMPE   C3222204   1.623   0.825   6.694
  218QMPE   H2X22205   1.696   0.908   6.685
  218QMPE   H2Y22206   1.673   0.727   6.701
  218QMPE   C2322207   1.490   0.364   6.706
  218QMPE   H3R22208   1.571   0.438   6.728
  218QMPE   H3S22209   1.439   0.397   6.613
  218QMPE   C2422210   1.555   0.232   6.678
  218QMPE   H4R22211   1.477   0.156   6.658
  218QMPE   H4S22212   1.612   0.202   6.770
  218QMPE   C2522213   1.652   0.240   6.564
  218QMPE   H5R22214   1.606   0.258   6.464
  218QMPE   H5S22215   1.707   0.146   6.562
  218QMPE   C2622216   1.767   0.331   6.599
  218QMPE   H6R22217   1.804   0.308   6.702
  218QMPE   H6S22218   1.740   0.435   6.576
  218QMPE   C2722219   1.884   0.303   6.519
  218QMPE   H7R22220   1.888   0.193   6.537
  218QMPE   H7S22221   1.987   0.331   6.543
  218QMPE   C2822222   1.861   0.363   6.383
  218QMPE   H8R22223   1.769   0.411   6.353
  218QMPE   H8S22224   1.813   0.281   6.333
  218QMPE   C2922225   1.986   0.440   6.332
  218QMPE   H9R22226   2.090   0.406   6.352
  218QMPE  C21722227   1.947   0.584   6.331
  218QMPE  H17R22228   1.856   0.581   6.387
  218QMPE  H17S22229   2.013   0.661   6.355
  218QMPE  C21022230   1.976   0.517   6.202
  218QMPE  H10R22231   2.071   0.555   6.158
  218QMPE  C21122232   1.844   0.565   6.145
  218QMPE  H11R22233   1.760   0.544   6.209
  218QMPE  H11S22234   1.856   0.665   6.100
  218QMPE  C21222235   1.801   0.486   6.038
  218QMPE  H12R22236   1.699   0.464   5.999
  218QMPE  H12S22237   1.813   0.389   6.091
  218QMPE  C21322238   1.914   0.527   5.946
  218QMPE  H13R22239   1.841   0.468   5.884
  218QMPE  H13S22240   2.018   0.492   5.962
  218QMPE  C21422241   1.943   0.602   5.826
  218QMPE  H14R22242   1.984   0.553   5.731
  218QMPE  H14S22243   2.020   0.673   5.858
  218QMPE  C21522244   1.824   0.636   5.777
  218QMPE  H15R22245   1.761   0.656   5.864
  218QMPE  H15S22246   1.767   0.553   5.726
  218QMPE  C21622247   1.906   0.730   5.694
  218QMPE  H16R22248   1.934   0.833   5.711
  218QMPE  H16S22249   1.908   0.660   5.610
  218QMPE  H16T22250   1.856   0.796   5.628
  218QMPE   C3322251   1.538   0.819   6.570
  218QMPE   H3X22252   1.507   0.926   6.560
  218QMPE   H3Y22253   1.441   0.765   6.584
  218QMPE   C3422254   1.617   0.753   6.453
  218QMPE   H4X22255   1.725   0.761   6.472
  218QMPE   H4Y22256   1.621   0.800   6.354
  218QMPE   C3522257   1.575   0.610   6.417
  218QMPE   H5X22258   1.589   0.555   6.512
  218QMPE   H5Y22259   1.652   0.582   6.346
  218QMPE   C3622260   1.436   0.572   6.360
  218QMPE   H6X22261   1.355   0.620   6.419
  218QMPE   H6Y22262   1.430   0.462   6.374
  218QMPE   C3722263   1.399   0.577   6.209
  218QMPE   H7X22264   1.375   0.674   6.189
  218QMPE   H7Y22265   1.485   0.567   6.140
  218QMPE   C3822266   1.246   0.554   6.179
  218QMPE   H8X22267   1.238   0.448   6.198
  218QMPE   H8Y22268   1.186   0.618   6.249
  218QMPE   C3922269   1.174   0.576   6.046
  218QMPE   H9X22270   1.132   0.678   6.036
  218QMPE   H9Y22271   1.071   0.541   6.036
  218QMPE  C31022272   1.256   0.527   5.929
  218QMPE  H10X22273   1.361   0.564   5.907
  218QMPE  H10Y22274   1.194   0.525   5.837
  218QMPE  C31122275   1.312   0.406   5.937
  218QMPE  H11X22276   1.216   0.356   5.971
  218QMPE  H11Y22277   1.385   0.394   6.020
  218QMPE  C31222278   1.370   0.399   5.789
  218QMPE  H12X22279   1.326   0.380   5.688
  218QMPE  H12Y22280   1.289   0.348   5.794
  218QMPE  C31322281   1.513   0.363   5.800
  218QMPE  H13X22282   1.543   0.464   5.786
  218QMPE  H13Y22283   1.550   0.330   5.898
  218QMPE  C31422284   1.574   0.267   5.701
  218QMPE  H14X22285   1.570   0.168   5.763
  218QMPE  H14Y22286   1.517   0.337   5.634
  218QMPE  C31522287   1.526   0.217   5.569
  218QMPE  H15X22288   1.582   0.133   5.598
  218QMPE  H15Y22289   1.421   0.203   5.532
  218QMPE  H15Z22290   1.591   0.220   5.484
  219QMPE     N22291   1.975   7.732   7.508
  219QMPE   HN122292   1.883   7.782   7.513
  219QMPE   HN222293   1.983   7.676   7.420
  219QMPE   HN322294   1.989   7.671   7.592
  219QMPE   C1222295   2.076   7.843   7.497
  219QMPE  H12A22296   2.174   7.801   7.467
  219QMPE  H12B22297   2.090   7.887   7.595
  219QMPE   C1122298   2.028   7.952   7.402
  219QMPE  H11A22299   2.036   7.914   7.298
  219QMPE  H11B22300   2.098   8.039   7.410
  219QMPE     P22301   1.833   8.113   7.355
  219QMPE   O1322302   1.919   8.226   7.393
  219QMPE   O1422303   1.691   8.125   7.388
  219QMPE   O1122304   1.850   8.058   7.207
  219QMPE   O1222305   1.892   7.987   7.432
  219QMPE    C122306   1.778   7.939   7.174
  219QMPE    HA22307   1.686   7.943   7.220
  219QMPE    HB22308   1.806   7.847   7.228
  219QMPE    C222309   1.739   7.923   7.026
  219QMPE    HS22310   1.697   7.820   7.026
  219QMPE   O2122311   1.856   7.917   6.953
  219QMPE   C2122312   1.924   7.807   6.972
  219QMPE   O2222313   1.900   7.712   7.045
  219QMPE   C2222314   2.041   7.822   6.886
  219QMPE   H2R22315   2.119   7.747   6.907
  219QMPE   H2S22316   2.070   7.919   6.924
  219QMPE    C322317   1.643   8.033   6.958
  219QMPE    HX22318   1.692   8.131   6.967
  219QMPE    HY22319   1.543   8.054   6.997
  219QMPE   O3122320   1.581   7.996   6.834
  219QMPE   C3122321   1.641   8.031   6.729
  219QMPE   O3222322   1.748   8.089   6.725
  219QMPE   C3222323   1.547   7.994   6.613
  219QMPE   H2X22324   1.519   7.888   6.625
  219QMPE   H2Y22325   1.451   8.049   6.626
  219QMPE   C2322326   1.990   7.820   6.741
  219QMPE   H3R22327   1.924   7.909   6.719
  219QMPE   H3S22328   1.943   7.726   6.717
  219QMPE   C2422329   2.098   7.801   6.639
  219QMPE   H4R22330   2.205   7.780   6.660
  219QMPE   H4S22331   2.119   7.888   6.687
  219QMPE   C2522332   2.067   7.856   6.503
  219QMPE   H5R22333   1.997   7.943   6.483
  219QMPE   H5S22334   2.069   7.795   6.416
  219QMPE   C2622335   2.198   7.889   6.458
  219QMPE   H6R22336   2.302   7.878   6.498
  219QMPE   H6S22337   2.180   7.958   6.530
  219QMPE   C2722338   2.189   7.953   6.326
  219QMPE   H7R22339   2.272   7.911   6.275
  219QMPE   H7S22340   2.292   7.978   6.329
  219QMPE   C2822341   2.068   8.030   6.240
  219QMPE   H8R22342   1.974   7.986   6.241
  219QMPE   H8S22343   2.091   8.017   6.130
  219QMPE   C2922344   2.047   8.176   6.232
  219QMPE   H9R22345   2.112   8.256   6.219
  219QMPE  C21722346   1.964   8.197   6.343
  219QMPE  H17R22347   1.899   8.118   6.370
  219QMPE  H17S22348   2.028   8.246   6.415
  219QMPE  C21022349   1.944   8.263   6.207
  219QMPE  H10R22350   1.980   8.366   6.183
  219QMPE  C21122351   1.837   8.224   6.124
  219QMPE  H11R22352   1.816   8.124   6.150
  219QMPE  H11S22353   1.756   8.295   6.144
  219QMPE  C21222354   1.889   8.215   5.985
  219QMPE  H12R22355   1.814   8.170   5.920
  219QMPE  H12S22356   1.975   8.147   6.002
  219QMPE  C21322357   1.918   8.351   5.926
  219QMPE  H13R22358   1.985   8.401   6.001
  219QMPE  H13S22359   1.812   8.372   5.930
  219QMPE  C21422360   1.958   8.413   5.779
  219QMPE  H14R22361   2.059   8.428   5.754
  219QMPE  H14S22362   2.034   8.489   5.789
  219QMPE  C21522363   1.857   8.416   5.661
  219QMPE  H15R22364   1.772   8.460   5.701
  219QMPE  H15S22365   1.819   8.317   5.626
  219QMPE  C21622366   1.890   8.474   5.528
  219QMPE  H16R22367   1.958   8.392   5.528
  219QMPE  H16S22368   1.961   8.557   5.527
  219QMPE  H16T22369   1.869   8.421   5.432
  219QMPE   C3322370   1.603   8.020   6.471
  219QMPE   H3X22371   1.668   8.103   6.450
  219QMPE   H3Y22372   1.518   8.035   6.402
  219QMPE   C3422373   1.690   7.907   6.424
  219QMPE   H4X22374   1.608   7.838   6.421
  219QMPE   H4Y22375   1.774   7.882   6.493
  219QMPE   C3522376   1.727   7.913   6.278
  219QMPE   H5X22377   1.770   8.010   6.269
  219QMPE   H5Y22378   1.634   7.909   6.218
  219QMPE   C3622379   1.832   7.812   6.235
  219QMPE   H6X22380   1.816   7.718   6.267
  219QMPE   H6Y22381   1.919   7.811   6.300
  219QMPE   C3722382   1.853   7.798   6.085
  219QMPE   H7X22383   1.766   7.806   6.017
  219QMPE   H7Y22384   1.905   7.894   6.081
  219QMPE   C3822385   1.926   7.667   6.042
  219QMPE   H8X22386   1.992   7.646   6.118
  219QMPE   H8Y22387   1.878   7.571   6.037
  219QMPE   C3922388   1.996   7.681   5.913
  219QMPE   H9X22389   2.061   7.754   5.946
  219QMPE   H9Y22390   1.909   7.719   5.865
  219QMPE  C31022391   2.087   7.588   5.833
  219QMPE  H10X22392   2.023   7.512   5.866
  219QMPE  H10Y22393   2.181   7.543   5.868
  219QMPE  C31122394   2.138   7.629   5.692
  219QMPE  H11X22395   2.040   7.627   5.639
  219QMPE  H11Y22396   2.195   7.546   5.651
  219QMPE  C31222397   2.229   7.761   5.655
  219QMPE  H12X22398   2.183   7.851   5.679
  219QMPE  H12Y22399   2.235   7.811   5.559
  219QMPE  C31322400   2.382   7.756   5.667
  219QMPE  H13X22401   2.389   7.820   5.751
  219QMPE  H13Y22402   2.420   7.657   5.697
  219QMPE  C31422403   2.471   7.873   5.620
  219QMPE  H14X22404   2.503   7.849   5.519
  219QMPE  H14Y22405   2.558   7.879   5.692
  219QMPE  C31522406   2.405   8.011   5.621
  219QMPE  H15X22407   2.323   8.013   5.545
  219QMPE  H15Y22408   2.368   8.038   5.719
  219QMPE  H15Z22409   2.475   8.095   5.611
  220QMPE     N22410   7.806   3.050   7.481
  220QMPE   HN122411   7.731   3.098   7.531
  220QMPE   HN222412   7.896   3.067   7.532
  220QMPE   HN322413   7.822   3.094   7.386
  220QMPE   C1222414   7.776   2.901   7.475
  220QMPE  H12A22415   7.681   2.886   7.421
  220QMPE  H12B22416   7.771   2.863   7.579
  220QMPE   C1122417   7.879   2.819   7.402
  220QMPE  H11A22418   7.872   2.838   7.290
  220QMPE  H11B22419   7.867   2.709   7.412
  220QMPE     P22420   8.097   2.925   7.375
  220QMPE   O1322421   8.103   2.848   7.249
  220QMPE   O1422422   8.209   2.976   7.458
  220QMPE   O1122423   8.041   3.062   7.347
  220QMPE   O1222424   7.998   2.854   7.467
  220QMPE    C122425   8.129   3.134   7.260
  220QMPE    HA22426   8.235   3.119   7.280
  220QMPE    HB22427   8.124   3.243   7.283
  220QMPE    C222428   8.081   3.118   7.115
  220QMPE    HS22429   8.075   3.218   7.086
  220QMPE   O2122430   7.966   3.043   7.089
  220QMPE   C2122431   7.866   3.095   7.147
  220QMPE   O2222432   7.864   3.179   7.235
  220QMPE   C2222433   7.745   3.028   7.103
  220QMPE   H2R22434   7.687   3.015   7.195
  220QMPE   H2S22435   7.776   2.926   7.069
  220QMPE    C322436   8.173   3.063   7.014
  220QMPE    HX22437   8.217   2.977   7.053
  220QMPE    HY22438   8.234   3.156   7.023
  220QMPE   O3122439   8.147   3.045   6.874
  220QMPE   C3122440   8.139   2.923   6.828
  220QMPE   O3222441   8.157   2.818   6.886
  220QMPE   C3222442   8.114   2.938   6.679
  220QMPE   H2X22443   8.025   2.999   6.664
  220QMPE   H2Y22444   8.194   2.992   6.624
  220QMPE   C2322445   7.676   3.123   7.005
  220QMPE   H3R22446   7.737   3.162   6.921
  220QMPE   H3S22447   7.614   3.202   7.053
  220QMPE   C2422448   7.586   3.049   6.925
  220QMPE   H4R22449   7.521   3.108   6.855
  220QMPE   H4S22450   7.522   3.004   7.006
  220QMPE   C2522451   7.679   2.946   6.863
  220QMPE   H5R22452   7.638   2.870   6.919
  220QMPE   H5S22453   7.785   2.929   6.873
  220QMPE   C2622454   7.666   2.932   6.726
  220QMPE   H6R22455   7.687   3.026   6.680
  220QMPE   H6S22456   7.555   2.946   6.737
  220QMPE   C2722457   7.748   2.838   6.618
  220QMPE   H7R22458   7.670   2.774   6.618
  220QMPE   H7S22459   7.777   2.738   6.660
  220QMPE   C2822460   7.743   2.864   6.440
  220QMPE   H8R22461   7.775   2.758   6.431
  220QMPE   H8S22462   7.822   2.926   6.420
  220QMPE   C2922463   7.601   2.907   6.327
  220QMPE   H9R22464   7.484   2.889   6.338
  220QMPE  C21722465   7.540   2.878   6.200
  220QMPE  H17R22466   7.592   2.791   6.182
  220QMPE  H17S22467   7.423   2.889   6.177
  220QMPE  C21022468   7.588   2.998   6.232
  220QMPE  H10R22469   7.494   3.039   6.245
  220QMPE  C21122470   7.712   3.049   6.218
  220QMPE  H11R22471   7.739   3.102   6.308
  220QMPE  H11S22472   7.784   2.967   6.218
  220QMPE  C21222473   7.683   3.149   6.112
  220QMPE  H12R22474   7.784   3.165   6.091
  220QMPE  H12S22475   7.621   3.240   6.123
  220QMPE  C21322476   7.630   3.099   5.999
  220QMPE  H13R22477   7.538   3.054   6.031
  220QMPE  H13S22478   7.721   3.040   5.980
  220QMPE  C21422479   7.603   3.167   5.876
  220QMPE  H14R22480   7.554   3.264   5.880
  220QMPE  H14S22481   7.525   3.100   5.834
  220QMPE  C21522482   7.732   3.189   5.819
  220QMPE  H15R22483   7.807   3.106   5.821
  220QMPE  H15S22484   7.756   3.263   5.898
  220QMPE  C21622485   7.708   3.244   5.683
  220QMPE  H16R22486   7.640   3.331   5.689
  220QMPE  H16S22487   7.689   3.173   5.602
  220QMPE  H16T22488   7.803   3.274   5.649
  220QMPE   C3322489   8.100   2.804   6.614
  220QMPE   H3X22490   8.014   2.750   6.659
  220QMPE   H3Y22491   8.192   2.741   6.630
  220QMPE   C3422492   8.079   2.831   6.465
  220QMPE   H4X22493   8.174   2.866   6.420
  220QMPE   H4Y22494   7.999   2.903   6.446
  220QMPE   C3522495   8.039   2.708   6.394
  220QMPE   H5X22496   7.938   2.667   6.398
  220QMPE   H5Y22497   8.088   2.646   6.471
  220QMPE   C3622498   8.108   2.688   6.258
  220QMPE   H6X22499   8.089   2.589   6.207
  220QMPE   H6Y22500   8.213   2.699   6.287
  220QMPE   C3722501   8.078   2.770   6.141
  220QMPE   H7X22502   8.132   2.863   6.162
  220QMPE   H7Y22503   8.124   2.718   6.052
  220QMPE   C3822504   7.928   2.778   6.130
  220QMPE   H8X22505   7.880   2.782   6.230
  220QMPE   H8Y22506   7.912   2.877   6.084
  220QMPE   C3922507   7.872   2.657   6.055
  220QMPE   H9X22508   7.770   2.665   6.029
  220QMPE   H9Y22509   7.859   2.568   6.117
  220QMPE  C31022510   7.942   2.622   5.924
  220QMPE  H10X22511   7.885   2.536   5.885
  220QMPE  H10Y22512   8.039   2.574   5.935
  220QMPE  C31122513   7.962   2.738   5.827
  220QMPE  H11X22514   8.022   2.825   5.860
  220QMPE  H11Y22515   7.867   2.776   5.800
  220QMPE  C31222516   7.999   2.690   5.691
  220QMPE  H12X22517   7.908   2.641   5.672
  220QMPE  H12Y22518   8.069   2.609   5.680
  220QMPE  C31322519   8.015   2.793   5.588
  220QMPE  H13X22520   8.090   2.866   5.628
  220QMPE  H13Y22521   8.050   2.751   5.490
  220QMPE  C31422522   7.889   2.865   5.558
  220QMPE  H14X22523   7.855   2.932   5.641
  220QMPE  H14Y22524   7.802   2.832   5.497
  220QMPE  C31522525   7.938   2.942   5.457
  220QMPE  H15X22526   7.971   2.916   5.356
  220QMPE  H15Y22527   7.854   3.017   5.463
  220QMPE  H15Z22528   8.037   2.980   5.491
  221QMPE     N22529   2.874   4.336   3.695
  221QMPE   HN122530   2.870   4.232   3.696
  221QMPE   HN222531   2.913   4.366   3.603
  221QMPE   HN322532   2.936   4.370   3.770
  221QMPE   C1222533   2.737   4.398   3.711
  221QMPE  H12A22534   2.746   4.482   3.781
  221QMPE  H12B22535   2.669   4.323   3.756
  221QMPE   C1122536   2.677   4.439   3.575
  221QMPE  H11A22537   2.570   4.470   3.584
  221QMPE  H11B22538   2.677   4.348   3.511
  221QMPE     P22539   2.732   4.694   3.537
  221QMPE   O1322540   2.592   4.738   3.515
  221QMPE   O1422541   2.843   4.768   3.475
  221QMPE   O1122542   2.748   4.682   3.691
  221QMPE   O1222543   2.755   4.539   3.509
  221QMPE    C122544   2.844   4.766   3.748
  221QMPE    HA22545   2.814   4.870   3.736
  221QMPE    HB22546   2.934   4.757   3.686
  221QMPE    C222547   2.869   4.723   3.893
  221QMPE    HS22548   2.933   4.635   3.875
  221QMPE   O2122549   2.753   4.689   3.958
  221QMPE   C2122550   2.774   4.600   4.048
  221QMPE   O2222551   2.871   4.525   4.056
  221QMPE   C2222552   2.642   4.590   4.115
  221QMPE   H2R22553   2.567   4.651   4.059
  221QMPE   H2S22554   2.653   4.631   4.218
  221QMPE    C322555   2.933   4.830   3.984
  221QMPE    HX22556   2.955   4.918   3.925
  221QMPE    HY22557   3.019   4.817   3.953
  221QMPE   O3122558   2.977   4.824   4.123
  221QMPE   C3122559   3.057   4.742   4.187
  221QMPE   O3222560   3.112   4.640   4.151
  221QMPE   C3222561   3.061   4.762   4.331
  221QMPE   H2X22562   3.160   4.805   4.360
  221QMPE   H2Y22563   2.974   4.825   4.359
  221QMPE   C2322564   2.609   4.442   4.105
  221QMPE   H3R22565   2.680   4.389   4.171
  221QMPE   H3S22566   2.623   4.411   3.998
  221QMPE   C2422567   2.465   4.405   4.136
  221QMPE   H4R22568   2.444   4.302   4.105
  221QMPE   H4S22569   2.404   4.468   4.068
  221QMPE   C2522570   2.425   4.422   4.283
  221QMPE   H5R22571   2.320   4.385   4.298
  221QMPE   H5S22572   2.431   4.531   4.299
  221QMPE   C2622573   2.512   4.365   4.393
  221QMPE   H6R22574   2.467   4.388   4.492
  221QMPE   H6S22575   2.610   4.416   4.390
  221QMPE   C2722576   2.523   4.215   4.383
  221QMPE   H7R22577   2.552   4.181   4.282
  221QMPE   H7S22578   2.423   4.170   4.407
  221QMPE   C2822579   2.625   4.167   4.484
  221QMPE   H8R22580   2.715   4.232   4.477
  221QMPE   H8S22581   2.652   4.062   4.461
  221QMPE   C2922582   2.558   4.174   4.620
  221QMPE   H9R22583   2.454   4.139   4.628
  221QMPE  C21722584   2.592   4.291   4.712
  221QMPE  H17R22585   2.670   4.358   4.682
  221QMPE  H17S22586   2.512   4.316   4.780
  221QMPE  C21022587   2.649   4.151   4.736
  221QMPE  H10R22588   2.604   4.096   4.821
  221QMPE  C21122589   2.797   4.134   4.698
  221QMPE  H11R22590   2.820   4.025   4.673
  221QMPE  H11S22591   2.836   4.202   4.623
  221QMPE  C21222592   2.892   4.173   4.811
  221QMPE  H12R22593   2.996   4.148   4.808
  221QMPE  H12S22594   2.857   4.072   4.850
  221QMPE  C21322595   2.887   4.314   4.904
  221QMPE  H13R22596   2.776   4.313   4.883
  221QMPE  H13S22597   2.905   4.401   4.840
  221QMPE  C21422598   2.939   4.335   5.083
  221QMPE  H14R22599   2.931   4.430   5.138
  221QMPE  H14S22600   3.046   4.334   5.065
  221QMPE  C21522601   2.899   4.249   5.238
  221QMPE  H15R22602   2.928   4.146   5.261
  221QMPE  H15S22603   2.799   4.195   5.248
  221QMPE  C21622604   2.851   4.291   5.362
  221QMPE  H16R22605   2.941   4.276   5.425
  221QMPE  H16S22606   2.764   4.231   5.412
  221QMPE  H16T22607   2.816   4.390   5.331
  221QMPE   C3322608   3.050   4.618   4.374
  221QMPE   H3X22609   3.154   4.575   4.370
  221QMPE   H3Y22610   2.981   4.560   4.308
  221QMPE   C3422611   2.988   4.609   4.509
  221QMPE   H4X22612   3.036   4.685   4.574
  221QMPE   H4Y22613   3.014   4.507   4.544
  221QMPE   C3522614   2.837   4.631   4.500
  221QMPE   H5X22615   2.788   4.550   4.443
  221QMPE   H5Y22616   2.813   4.724   4.444
  221QMPE   C3622617   2.776   4.643   4.637
  221QMPE   H6X22618   2.832   4.723   4.692
  221QMPE   H6Y22619   2.790   4.551   4.697
  221QMPE   C3722620   2.625   4.670   4.621
  221QMPE   H7X22621   2.608   4.775   4.587
  221QMPE   H7Y22622   2.569   4.596   4.565
  221QMPE   C3822623   2.558   4.658   4.747
  221QMPE   H8X22624   2.446   4.679   4.750
  221QMPE   H8Y22625   2.574   4.565   4.804
  221QMPE   C3922626   2.628   4.774   4.801
  221QMPE   H9X22627   2.541   4.842   4.783
  221QMPE   H9Y22628   2.728   4.819   4.810
  221QMPE  C31022629   2.641   4.753   4.933
  221QMPE  H10X22630   2.532   4.718   4.934
  221QMPE  H10Y22631   2.606   4.859   4.952
  221QMPE  C31122632   2.747   4.676   5.064
  221QMPE  H11X22633   2.850   4.673   5.057
  221QMPE  H11Y22634   2.730   4.621   4.968
  221QMPE  C31222635   2.677   4.611   5.254
  221QMPE  H12X22636   2.649   4.693   5.322
  221QMPE  H12Y22637   2.748   4.558   5.307
  221QMPE  C31322638   2.498   4.549   5.306
  221QMPE  H13X22639   2.483   4.450   5.267
  221QMPE  H13Y22640   2.479   4.480   5.386
  221QMPE  C31422641   2.355   4.622   5.292
  221QMPE  H14X22642   2.327   4.632   5.182
  221QMPE  H14Y22643   2.365   4.721   5.342
  221QMPE  C31522644   2.228   4.573   5.348
  221QMPE  H15X22645   2.246   4.519   5.440
  221QMPE  H15Y22646   2.148   4.634   5.370
  221QMPE  H15Z22647   2.175   4.523   5.264
  222QMPE     N22648   1.654   3.673   3.507
  222QMPE   HN122649   1.683   3.767   3.540
  222QMPE   HN222650   1.596   3.686   3.421
  222QMPE   HN322651   1.602   3.623   3.582
  222QMPE   C1222652   1.773   3.591   3.471
  222QMPE  H12A22653   1.853   3.657   3.431
  222QMPE  H12B22654   1.742   3.518   3.393
  222QMPE   C1122655   1.826   3.510   3.588
  222QMPE  H11A22656   1.754   3.428   3.611
  222QMPE  H11B22657   1.845   3.572   3.679
  222QMPE     P22658   2.056   3.391   3.627
  222QMPE   O1322659   2.169   3.487   3.628
  222QMPE   O1422660   2.082   3.254   3.579
  222QMPE   O1122661   1.986   3.386   3.771
  222QMPE   O1222662   1.945   3.455   3.536
  222QMPE    C122663   2.054   3.310   3.874
  222QMPE    HA22664   2.165   3.316   3.863
  222QMPE    HB22665   2.026   3.202   3.869
  222QMPE    C222666   2.027   3.359   4.020
  222QMPE    HS22667   2.089   3.292   4.085
  222QMPE   O2122668   1.887   3.349   4.052
  222QMPE   C2122669   1.859   3.295   4.170
  222QMPE   O2222670   1.936   3.245   4.248
  222QMPE   C2222671   1.716   3.312   4.193
  222QMPE   H2R22672   1.661   3.292   4.099
  222QMPE   H2S22673   1.710   3.422   4.209
  222QMPE    C322674   2.074   3.506   4.037
  222QMPE    HX22675   2.000   3.569   3.985
  222QMPE    HY22676   2.173   3.522   3.988
  222QMPE   O3122677   2.075   3.548   4.174
  222QMPE   C3122678   2.178   3.510   4.246
  222QMPE   O3222679   2.283   3.468   4.203
  222QMPE   C3222680   2.142   3.525   4.392
  222QMPE   H2X22681   2.178   3.435   4.442
  222QMPE   H2Y22682   2.186   3.617   4.432
  222QMPE   C2322683   1.675   3.224   4.315
  222QMPE   H3R22684   1.578   3.249   4.363
  222QMPE   H3S22685   1.746   3.234   4.399
  222QMPE   C2422686   1.645   3.082   4.274
  222QMPE   H4R22687   1.736   3.035   4.234
  222QMPE   H4S22688   1.575   3.092   4.189
  222QMPE   C2522689   1.582   2.993   4.383
  222QMPE   H5R22690   1.570   2.897   4.334
  222QMPE   H5S22691   1.484   3.014   4.428
  222QMPE   C2622692   1.659   2.995   4.510
  222QMPE   H6R22693   1.600   2.949   4.591
  222QMPE   H6S22694   1.668   3.106   4.539
  222QMPE   C2722695   1.792   2.920   4.492
  222QMPE   H7R22696   1.852   2.948   4.403
  222QMPE   H7S22697   1.805   3.007   4.538
  222QMPE   C2822698   1.881   2.908   4.619
  222QMPE   H8R22699   1.954   2.830   4.596
  222QMPE   H8S22700   1.812   2.883   4.703
  222QMPE   C2922701   1.958   3.040   4.646
  222QMPE   H9R22702   1.906   3.135   4.622
  222QMPE  C21722703   2.084   3.028   4.561
  222QMPE  H17R22704   2.110   2.928   4.529
  222QMPE  H17S22705   2.107   3.117   4.505
  222QMPE  C21022706   2.087   3.048   4.711
  222QMPE  H10R22707   2.100   3.148   4.754
  222QMPE  C21122708   2.124   2.933   4.796
  222QMPE  H11R22709   2.133   2.836   4.740
  222QMPE  H11S22710   2.219   2.969   4.836
  222QMPE  C21222711   2.040   2.913   4.920
  222QMPE  H12R22712   2.098   2.840   4.984
  222QMPE  H12S22713   1.943   2.874   4.882
  222QMPE  C21322714   2.012   3.023   5.013
  222QMPE  H13R22715   1.953   3.098   4.956
  222QMPE  H13S22716   2.111   3.059   5.045
  222QMPE  C21422717   1.933   2.979   5.136
  222QMPE  H14R22718   1.979   2.891   5.189
  222QMPE  H14S22719   1.828   2.956   5.103
  222QMPE  C21522720   1.914   3.091   5.231
  222QMPE  H15R22721   1.840   3.060   5.309
  222QMPE  H15S22722   1.870   3.170   5.167
  222QMPE  C21622723   2.044   3.135   5.295
  222QMPE  H16R22724   2.125   3.154   5.220
  222QMPE  H16S22725   2.081   3.059   5.367
  222QMPE  H16T22726   2.024   3.231   5.347
  222QMPE   C3322727   1.992   3.518   4.422
  222QMPE   H3X22728   1.962   3.411   4.412
  222QMPE   H3Y22729   1.936   3.578   4.348
  222QMPE   C3422730   1.954   3.564   4.562
  222QMPE   H4X22731   1.983   3.670   4.576
  222QMPE   H4Y22732   2.009   3.504   4.638
  222QMPE   C3522733   1.802   3.545   4.573
  222QMPE   H5X22734   1.781   3.437   4.557
  222QMPE   H5Y22735   1.751   3.602   4.493
  222QMPE   C3622736   1.743   3.591   4.706
  222QMPE   H6X22737   1.633   3.604   4.709
  222QMPE   H6Y22738   1.783   3.691   4.732
  222QMPE   C3722739   1.767   3.485   4.807
  222QMPE   H7X22740   1.703   3.395   4.786
  222QMPE   H7Y22741   1.874   3.455   4.809
  222QMPE   C3822742   1.738   3.536   4.943
  222QMPE   H8X22743   1.785   3.632   4.970
  222QMPE   H8Y22744   1.627   3.554   4.948
  222QMPE   C3922745   1.800   3.436   5.033
  222QMPE   H9X22746   1.880   3.462   5.105
  222QMPE   H9Y22747   1.811   3.329   4.991
  222QMPE  C31022748   1.697   3.430   5.128
  222QMPE  H10X22749   1.728   3.340   5.192
  222QMPE  H10Y22750   1.645   3.340   5.079
  222QMPE  C31122751   1.611   3.577   5.208
  222QMPE  H11X22752   1.598   3.685   5.203
  222QMPE  H11Y22753   1.706   3.591   5.214
  222QMPE  C31222754   1.539   3.578   5.380
  222QMPE  H12X22755   1.418   3.571   5.328
  222QMPE  H12Y22756   1.477   3.662   5.419
  222QMPE  C31322757   1.609   3.395   5.512
  222QMPE  H13X22758   1.549   3.335   5.589
  222QMPE  H13Y22759   1.609   3.278   5.462
  222QMPE  C31422760   1.729   3.363   5.529
  222QMPE  H14X22761   1.694   3.457   5.569
  222QMPE  H14Y22762   1.780   3.382   5.440
  222QMPE  C31522763   1.771   3.258   5.627
  222QMPE  H15X22764   1.815   3.185   5.556
  222QMPE  H15Y22765   1.848   3.298   5.694
  222QMPE  H15Z22766   1.688   3.227   5.694
  223QMPE     N22767   4.188   5.847   3.714
  223QMPE   HN122768   4.151   5.756   3.749
  223QMPE   HN222769   4.259   5.882   3.782
  223QMPE   HN322770   4.118   5.922   3.702
  223QMPE   C1222771   4.259   5.827   3.583
  223QMPE  H12A22772   4.296   5.925   3.549
  223QMPE  H12B22773   4.188   5.782   3.509
  223QMPE   C1122774   4.374   5.730   3.600
  223QMPE  H11A22775   4.442   5.757   3.684
  223QMPE  H11B22776   4.435   5.741   3.506
  223QMPE     P22777   4.403   5.481   3.554
  223QMPE   O1322778   4.415   5.492   3.407
  223QMPE   O1422779   4.367   5.350   3.609
  223QMPE   O1122780   4.541   5.524   3.615
  223QMPE   O1222781   4.316   5.600   3.616
  223QMPE    C122782   4.619   5.434   3.688
  223QMPE    HA22783   4.722   5.469   3.669
  223QMPE    HB22784   4.602   5.330   3.653
  223QMPE    C222785   4.600   5.444   3.840
  223QMPE    HS22786   4.491   5.425   3.859
  223QMPE   O2122787   4.649   5.572   3.877
  223QMPE   C2122788   4.557   5.655   3.915
  223QMPE   O2222789   4.438   5.635   3.926
  223QMPE   C2222790   4.625   5.783   3.957
  223QMPE   H2R22791   4.553   5.865   3.939
  223QMPE   H2S22792   4.716   5.799   3.894
  223QMPE    C322793   4.682   5.340   3.921
  223QMPE    HX22794   4.787   5.358   3.893
  223QMPE    HY22795   4.645   5.241   3.885
  223QMPE   O3122796   4.670   5.349   4.064
  223QMPE   C3122797   4.768   5.417   4.125
  223QMPE   O3222798   4.876   5.444   4.077
  223QMPE   C3222799   4.724   5.458   4.264
  223QMPE   H2X22800   4.804   5.520   4.308
  223QMPE   H2Y22801   4.628   5.513   4.251
  223QMPE   C2322802   4.662   5.768   4.106
  223QMPE   H3R22803   4.742   5.690   4.112
  223QMPE   H3S22804   4.573   5.731   4.162
  223QMPE   C2422805   4.709   5.897   4.174
  223QMPE   H4R22806   4.629   5.974   4.167
  223QMPE   H4S22807   4.799   5.934   4.120
  223QMPE   C2522808   4.747   5.880   4.322
  223QMPE   H5R22809   4.806   5.971   4.349
  223QMPE   H5S22810   4.812   5.791   4.334
  223QMPE   C2622811   4.627   5.875   4.420
  223QMPE   H6R22812   4.561   5.788   4.400
  223QMPE   H6S22813   4.566   5.966   4.401
  223QMPE   C2722814   4.671   5.882   4.569
  223QMPE   H7R22815   4.747   5.963   4.576
  223QMPE   H7S22816   4.720   5.788   4.603
  223QMPE   C2822817   4.559   5.918   4.668
  223QMPE   H8R22818   4.499   6.003   4.629
  223QMPE   H8S22819   4.608   5.952   4.762
  223QMPE   C2922820   4.480   5.791   4.703
  223QMPE   H9R22821   4.536   5.712   4.756
  223QMPE  C21722822   4.374   5.748   4.602
  223QMPE  H17R22823   4.355   5.821   4.525
  223QMPE  H17S22824   4.377   5.641   4.587
  223QMPE  C21022825   4.335   5.790   4.743
  223QMPE  H10R22826   4.308   5.708   4.811
  223QMPE  C21122827   4.281   5.927   4.775
  223QMPE  H11R22828   4.264   5.993   4.688
  223QMPE  H11S22829   4.182   5.914   4.816
  223QMPE  C21222830   4.348   5.989   4.897
  223QMPE  H12R22831   4.456   5.977   4.901
  223QMPE  H12S22832   4.318   5.928   4.985
  223QMPE  C21322833   4.306   6.136   4.904
  223QMPE  H13R22834   4.196   6.138   4.881
  223QMPE  H13S22835   4.359   6.194   4.828
  223QMPE  C21422836   4.320   6.208   5.037
  223QMPE  H14R22837   4.240   6.148   5.077
  223QMPE  H14S22838   4.287   6.311   5.043
  223QMPE  C21522839   4.449   6.199   5.116
  223QMPE  H15R22840   4.541   6.205   5.058
  223QMPE  H15S22841   4.443   6.101   5.134
  223QMPE  C21622842   4.455   6.255   5.258
  223QMPE  H16R22843   4.416   6.358   5.255
  223QMPE  H16S22844   4.560   6.254   5.294
  223QMPE  H16T22845   4.395   6.196   5.332
  223QMPE   C3322846   4.698   5.341   4.357
  223QMPE   H3X22847   4.785   5.274   4.367
  223QMPE   H3Y22848   4.611   5.294   4.310
  223QMPE   C3422849   4.643   5.374   4.494
  223QMPE   H4X22850   4.556   5.442   4.476
  223QMPE   H4Y22851   4.720   5.428   4.553
  223QMPE   C3522852   4.597   5.244   4.562
  223QMPE   H5X22853   4.684   5.186   4.598
  223QMPE   H5Y22854   4.548   5.180   4.485
  223QMPE   C3622855   4.498   5.264   4.676
  223QMPE   H6X22856   4.466   5.163   4.710
  223QMPE   H6Y22857   4.407   5.315   4.636
  223QMPE   C3722858   4.554   5.339   4.797
  223QMPE   H7X22859   4.651   5.294   4.826
  223QMPE   H7Y22860   4.573   5.446   4.773
  223QMPE   C3822861   4.459   5.328   4.917
  223QMPE   H8X22862   4.374   5.399   4.904
  223QMPE   H8Y22863   4.417   5.225   4.923
  223QMPE   C3922864   4.527   5.353   5.049
  223QMPE   H9X22865   4.613   5.287   5.064
  223QMPE   H9Y22866   4.456   5.348   5.136
  223QMPE  C31022867   4.593   5.482   5.054
  223QMPE  H10X22868   4.662   5.510   4.971
  223QMPE  H10Y22869   4.655   5.484   5.148
  223QMPE  C31122870   4.483   5.577   5.067
  223QMPE  H11X22871   4.408   5.569   5.148
  223QMPE  H11Y22872   4.428   5.596   4.969
  223QMPE  C31222873   4.578   5.674   5.122
  223QMPE  H12X22874   4.503   5.731   5.064
  223QMPE  H12Y22875   4.643   5.718   5.042
  223QMPE  C31322876   4.610   5.679   5.298
  223QMPE  H13X22877   4.689   5.607   5.303
  223QMPE  H13Y22878   4.680   5.748   5.356
  223QMPE  C31422879   4.518   5.740   5.421
  223QMPE  H14X22880   4.457   5.835   5.412
  223QMPE  H14Y22881   4.568   5.774   5.515
  223QMPE  C31522882   4.415   5.638   5.435
  223QMPE  H15X22883   4.339   5.649   5.354
  223QMPE  H15Y22884   4.476   5.546   5.417
  223QMPE  H15Z22885   4.371   5.645   5.536
  224QMPE     N22886   5.875   5.297   3.515
  224QMPE   HN122887   5.811   5.353   3.455
  224QMPE   HN222888   5.963   5.273   3.464
  224QMPE   HN322889   5.827   5.211   3.549
  224QMPE   C1222890   5.908   5.381   3.635
  224QMPE  H12A22891   5.984   5.327   3.694
  224QMPE  H12B22892   5.815   5.390   3.696
  224QMPE   C1122893   5.956   5.521   3.590
  224QMPE  H11A22894   6.046   5.511   3.526
  224QMPE  H11B22895   5.993   5.578   3.679
  224QMPE     P22896   5.742   5.674   3.595
  224QMPE   O1322897   5.633   5.581   3.627
  224QMPE   O1422898   5.702   5.794   3.518
  224QMPE   O1122899   5.818   5.710   3.729
  224QMPE   O1222900   5.854   5.591   3.517
  224QMPE    C122901   5.755   5.797   3.823
  224QMPE    HA22902   5.655   5.781   3.812
  224QMPE    HB22903   5.763   5.905   3.800
  224QMPE    C222904   5.773   5.759   3.973
  224QMPE    HS22905   5.752   5.849   4.037
  224QMPE   O2122906   5.905   5.712   3.992
  224QMPE   C2122907   6.002   5.792   3.950
  224QMPE   O2222908   5.991   5.908   3.917
  224QMPE   C2222909   6.132   5.717   3.972
  224QMPE   H2R22910   6.189   5.720   3.877
  224QMPE   H2S22911   6.113   5.610   3.997
  224QMPE    C322912   5.677   5.645   4.022
  224QMPE    HX22913   5.719   5.548   3.993
  224QMPE    HY22914   5.578   5.643   3.981
  224QMPE   O3122915   5.662   5.653   4.162
  224QMPE   C3122916   5.552   5.607   4.216
  224QMPE   O3222917   5.462   5.544   4.163
  224QMPE   C3222918   5.562   5.654   4.356
  224QMPE   H2X22919   5.670   5.664   4.382
  224QMPE   H2Y22920   5.512   5.753   4.363
  224QMPE   C2322921   6.213   5.788   4.082
  224QMPE   H3R22922   6.188   5.897   4.087
  224QMPE   H3S22923   6.320   5.778   4.053
  224QMPE   C2422924   6.195   5.729   4.223
  224QMPE   H4R22925   6.269   5.776   4.292
  224QMPE   H4S22926   6.218   5.621   4.214
  224QMPE   C2522927   6.056   5.754   4.283
  224QMPE   H5R22928   5.979   5.705   4.220
  224QMPE   H5S22929   6.036   5.864   4.284
  224QMPE   C2622930   6.039   5.699   4.425
  224QMPE   H6R22931   5.934   5.716   4.456
  224QMPE   H6S22932   6.103   5.753   4.498
  224QMPE   C2722933   6.066   5.548   4.429
  224QMPE   H7R22934   6.160   5.520   4.379
  224QMPE   H7S22935   5.983   5.499   4.372
  224QMPE   C2822936   6.075   5.498   4.574
  224QMPE   H8R22937   5.972   5.509   4.616
  224QMPE   H8S22938   6.146   5.558   4.633
  224QMPE   C2922939   6.131   5.358   4.587
  224QMPE   H9R22940   6.228   5.328   4.545
  224QMPE  C21722941   6.029   5.270   4.528
  224QMPE  H17R22942   5.929   5.308   4.523
  224QMPE  H17S22943   6.067   5.187   4.469
  224QMPE  C21022944   6.064   5.260   4.679
  224QMPE  H10R22945   6.122   5.170   4.707
  224QMPE  C21122946   5.960   5.308   4.785
  224QMPE  H11R22947   5.880   5.369   4.739
  224QMPE  H11S22948   5.908   5.224   4.835
  224QMPE  C21222949   6.022   5.381   4.902
  224QMPE  H12R22950   6.060   5.477   4.863
  224QMPE  H12S22951   6.103   5.319   4.946
  224QMPE  C21322952   5.915   5.408   5.009
  224QMPE  H13R22953   5.885   5.306   5.038
  224QMPE  H13S22954   5.827   5.457   4.963
  224QMPE  C21422955   5.971   5.490   5.127
  224QMPE  H14R22956   5.999   5.590   5.088
  224QMPE  H14S22957   6.064   5.443   5.165
  224QMPE  C21522958   5.881   5.513   5.249
  224QMPE  H15R22959   5.927   5.588   5.316
  224QMPE  H15S22960   5.893   5.421   5.311
  224QMPE  C21622961   5.733   5.552   5.219
  224QMPE  H16R22962   5.672   5.557   5.312
  224QMPE  H16S22963   5.682   5.478   5.154
  224QMPE  H16T22964   5.720   5.641   5.157
  224QMPE   C3322965   5.500   5.563   4.457
  224QMPE   H3X22966   5.531   5.456   4.460
  224QMPE   H3Y22967   5.394   5.564   4.431
  224QMPE   C3422968   5.524   5.631   4.589
  224QMPE   H4X22969   5.491   5.554   4.659
  224QMPE   H4Y22970   5.467   5.726   4.597
  224QMPE   C3522971   5.665   5.630   4.643
  224QMPE   H5X22972   5.731   5.690   4.579
  224QMPE   H5Y22973   5.690   5.521   4.644
  224QMPE   C3622974   5.680   5.671   4.790
  224QMPE   H6X22975   5.771   5.631   4.836
  224QMPE   H6Y22976   5.612   5.602   4.832
  224QMPE   C3722977   5.647   5.817   4.829
  224QMPE   H7X22978   5.563   5.860   4.770
  224QMPE   H7Y22979   5.618   5.828   4.936
  224QMPE   C3822980   5.768   5.902   4.803
  224QMPE   H8X22981   5.790   5.894   4.694
  224QMPE   H8Y22982   5.747   6.008   4.829
  224QMPE   C3922983   5.889   5.850   4.879
  224QMPE   H9X22984   5.931   5.765   4.819
  224QMPE   H9Y22985   5.865   5.806   4.978
  224QMPE  C31022986   5.991   5.963   4.890
  224QMPE  H10X22987   6.004   5.993   4.996
  224QMPE  H10Y22988   5.954   6.052   4.834
  224QMPE  C31122989   6.120   5.921   4.824
  224QMPE  H11X22990   6.183   6.008   4.799
  224QMPE  H11Y22991   6.098   5.882   4.722
  224QMPE  C31222992   6.192   5.810   4.903
  224QMPE  H12X22993   6.285   5.806   4.845
  224QMPE  H12Y22994   6.141   5.713   4.893
  224QMPE  C31322995   6.214   5.827   5.054
  224QMPE  H13X22996   6.300   5.895   5.067
  224QMPE  H13Y22997   6.124   5.860   5.108
  224QMPE  C31422998   6.274   5.720   5.143
  224QMPE  H14X22999   6.345   5.688   5.067
  224QMPE  H14Y23000   6.220   5.627   5.156
  224QMPE  C31523001   6.332   5.770   5.279
  224QMPE  H15X23002   6.260   5.799   5.356
  224QMPE  H15Y23003   6.397   5.692   5.325
  224QMPE  H15Z23004   6.401   5.856   5.264
  225QMPE     N23005   2.018   2.038   3.498
  225QMPE   HN123006   1.932   2.069   3.548
  225QMPE   HN223007   2.092   2.016   3.570
  225QMPE   HN323008   2.050   2.108   3.431
  225QMPE   C1223009   1.981   1.916   3.418
  225QMPE  H12A23010   2.075   1.862   3.395
  225QMPE  H12B23011   1.935   1.949   3.322
  225QMPE   C1123012   1.878   1.833   3.495
  225QMPE  H11A23013   1.857   1.736   3.444
  225QMPE  H11B23014   1.781   1.887   3.496
  225QMPE     P23015   2.019   1.702   3.669
  225QMPE   O1323016   2.013   1.688   3.815
  225QMPE   O1423017   2.144   1.740   3.602
  225QMPE   O1123018   1.956   1.582   3.589
  225QMPE   O1223019   1.918   1.818   3.631
  225QMPE    C123020   2.002   1.450   3.617
  225QMPE    HA23021   2.111   1.437   3.613
  225QMPE    HB23022   1.973   1.386   3.529
  225QMPE    C223023   1.926   1.384   3.737
  225QMPE    HS23024   1.864   1.333   3.668
  225QMPE   O2123025   1.846   1.470   3.815
  225QMPE   C2123026   1.731   1.497   3.769
  225QMPE   O2223027   1.682   1.467   3.662
  225QMPE   C2223028   1.667   1.586   3.875
  225QMPE   H2R23029   1.575   1.623   3.834
  225QMPE   H2S23030   1.730   1.677   3.876
  225QMPE    C323031   1.999   1.305   3.848
  225QMPE    HX23032   2.081   1.244   3.799
  225QMPE    HY23033   1.946   1.232   3.912
  225QMPE   O3123034   2.049   1.407   3.931
  225QMPE   C3123035   2.029   1.484   4.043
  225QMPE   O3223036   1.937   1.461   4.116
  225QMPE   C3223037   2.169   1.560   4.109
  225QMPE   H2X23038   2.265   1.538   4.062
  225QMPE   H2Y23039   2.159   1.664   4.084
  225QMPE   C2323040   1.657   1.524   4.017
  225QMPE   H3R23041   1.753   1.484   4.036
  225QMPE   H3S23042   1.596   1.433   4.026
  225QMPE   C2423043   1.629   1.619   4.133
  225QMPE   H4R23044   1.626   1.558   4.227
  225QMPE   H4S23045   1.529   1.662   4.113
  225QMPE   C2523046   1.729   1.732   4.158
  225QMPE   H5R23047   1.722   1.802   4.072
  225QMPE   H5S23048   1.834   1.695   4.162
  225QMPE   C2623049   1.694   1.812   4.286
  225QMPE   H6R23050   1.582   1.813   4.295
  225QMPE   H6S23051   1.727   1.916   4.270
  225QMPE   C2723052   1.757   1.760   4.416
  225QMPE   H7R23053   1.867   1.764   4.411
  225QMPE   H7S23054   1.733   1.652   4.428
  225QMPE   C2823055   1.707   1.831   4.543
  225QMPE   H8R23056   1.751   1.781   4.635
  225QMPE   H8S23057   1.599   1.838   4.560
  225QMPE   C2923058   1.711   1.973   4.543
  225QMPE   H9R23059   1.697   2.036   4.453
  225QMPE  C21723060   1.843   1.982   4.596
  225QMPE  H17R23061   1.898   1.913   4.660
  225QMPE  H17S23062   1.886   2.021   4.504
  225QMPE  C21023063   1.726   2.039   4.672
  225QMPE  H10R23064   1.719   2.149   4.672
  225QMPE  C21123065   1.707   1.961   4.802
  225QMPE  H11R23066   1.783   1.883   4.825
  225QMPE  H11S23067   1.714   2.019   4.894
  225QMPE  C21223068   1.562   1.944   4.821
  225QMPE  H12R23069   1.532   1.869   4.749
  225QMPE  H12S23070   1.516   2.044   4.799
  225QMPE  C21323071   1.536   1.914   4.965
  225QMPE  H13R23072   1.624   1.862   5.013
  225QMPE  H13S23073   1.449   1.849   4.973
  225QMPE  C21423074   1.507   2.041   5.042
  225QMPE  H14R23075   1.413   2.091   5.013
  225QMPE  H14S23076   1.585   2.121   5.037
  225QMPE  C21523077   1.499   1.988   5.181
  225QMPE  H15R23078   1.499   2.094   5.217
  225QMPE  H15S23079   1.535   2.011   5.281
  225QMPE  C21623080   1.415   1.868   5.219
  225QMPE  H16R23081   1.430   1.854   5.329
  225QMPE  H16S23082   1.420   1.771   5.171
  225QMPE  H16T23083   1.313   1.893   5.189
  225QMPE   C3323084   2.264   1.523   4.234
  225QMPE   H3X23085   2.368   1.496   4.214
  225QMPE   H3Y23086   2.289   1.423   4.257
  225QMPE   C3423087   2.197   1.541   4.362
  225QMPE   H4X23088   2.103   1.483   4.354
  225QMPE   H4Y23089   2.172   1.647   4.361
  225QMPE   C3523090   2.286   1.496   4.477
  225QMPE   H5X23091   2.365   1.573   4.483
  225QMPE   H5Y23092   2.343   1.403   4.460
  225QMPE   C3623093   2.205   1.468   4.602
  225QMPE   H6X23094   2.273   1.423   4.677
  225QMPE   H6Y23095   2.127   1.391   4.580
  225QMPE   C3723096   2.139   1.592   4.660
  225QMPE   H7X23097   2.221   1.664   4.681
  225QMPE   H7Y23098   2.069   1.639   4.587
  225QMPE   C3823099   2.060   1.558   4.787
  225QMPE   H8X23100   1.967   1.503   4.759
  225QMPE   H8Y23101   2.123   1.491   4.849
  225QMPE   C3923102   2.019   1.681   4.868
  225QMPE   H9X23103   1.942   1.739   4.813
  225QMPE   H9Y23104   2.110   1.744   4.882
  225QMPE  C31023105   1.968   1.643   5.006
  225QMPE  H10X23106   2.046   1.578   5.052
  225QMPE  H10Y23107   1.872   1.586   5.005
  225QMPE  C31123108   1.955   1.756   5.106
  225QMPE  H11X23109   1.861   1.813   5.084
  225QMPE  H11Y23110   2.039   1.828   5.095
  225QMPE  C31223111   1.960   1.686   5.243
  225QMPE  H12X23112   2.053   1.629   5.257
  225QMPE  H12Y23113   1.869   1.621   5.250
  225QMPE  C31323114   1.968   1.767   5.367
  225QMPE  H13X23115   1.863   1.757   5.394
  225QMPE  H13Y23116   1.987   1.728   5.468
  225QMPE  C31423117   2.037   1.900   5.350
  225QMPE  H14X23118   2.019   1.962   5.267
  225QMPE  H14Y23119   2.145   1.898   5.334
  225QMPE  C31523120   1.989   1.969   5.466
  225QMPE  H15X23121   2.008   2.063   5.508
  225QMPE  H15Y23122   1.927   2.059   5.451
  225QMPE  H15Z23123   1.964   1.905   5.545
  226QMPE     N23124   5.867   6.338   3.299
  226QMPE   HN123125   5.946   6.390   3.257
  226QMPE   HN223126   5.819   6.277   3.230
  226QMPE   HN323127   5.798   6.406   3.337
  226QMPE   C1223128   5.926   6.263   3.416
  226QMPE  H12A23129   5.999   6.190   3.378
  226QMPE  H12B23130   5.843   6.212   3.469
  226QMPE   C1123131   5.993   6.362   3.513
  226QMPE  H11A23132   6.068   6.422   3.460
  226QMPE  H11B23133   6.053   6.310   3.591
  226QMPE     P23134   5.837   6.422   3.711
  226QMPE   O1323135   5.935   6.467   3.812
  226QMPE   O1423136   5.789   6.284   3.717
  226QMPE   O1123137   5.713   6.518   3.701
  226QMPE   O1223138   5.895   6.451   3.564
  226QMPE    C123139   5.728   6.656   3.672
  226QMPE    HA23140   5.653   6.690   3.597
  226QMPE    HB23141   5.828   6.684   3.632
  226QMPE    C223142   5.706   6.739   3.798
  226QMPE    HS23143   5.720   6.844   3.774
  226QMPE   O2123144   5.774   6.703   3.915
  226QMPE   C2123145   5.901   6.710   3.905
  226QMPE   O2223146   5.964   6.748   3.806
  226QMPE   C2223147   5.935   6.717   4.056
  226QMPE   H2R23148   5.956   6.614   4.084
  226QMPE   H2S23149   5.851   6.765   4.114
  226QMPE    C323150   5.568   6.734   3.840
  226QMPE    HX23151   5.514   6.768   3.754
  226QMPE    HY23152   5.562   6.807   3.924
  226QMPE   O3123153   5.518   6.606   3.867
  226QMPE   C3123154   5.504   6.585   3.992
  226QMPE   O3223155   5.507   6.665   4.084
  226QMPE   C3223156   5.478   6.443   4.008
  226QMPE   H2X23157   5.367   6.428   4.011
  226QMPE   H2Y23158   5.510   6.388   3.917
  226QMPE   C2323159   6.056   6.792   4.103
  226QMPE   H3R23160   6.006   6.878   4.157
  226QMPE   H3S23161   6.129   6.815   4.022
  226QMPE   C2423162   6.135   6.741   4.214
  226QMPE   H4R23163   6.230   6.798   4.234
  226QMPE   H4S23164   6.168   6.649   4.168
  226QMPE   C2523165   6.042   6.738   4.333
  226QMPE   H5R23166   5.994   6.642   4.317
  226QMPE   H5S23167   5.949   6.796   4.325
  226QMPE   C2623168   6.107   6.757   4.469
  226QMPE   H6R23169   6.032   6.727   4.544
  226QMPE   H6S23170   6.148   6.858   4.492
  226QMPE   C2723171   6.220   6.663   4.476
  226QMPE   H7R23172   6.284   6.679   4.565
  226QMPE   H7S23173   6.280   6.683   4.387
  226QMPE   C2823174   6.175   6.525   4.446
  226QMPE   H8R23175   6.131   6.516   4.344
  226QMPE   H8S23176   6.099   6.501   4.521
  226QMPE   C2923177   6.292   6.438   4.436
  226QMPE   H9R23178   6.375   6.476   4.382
  226QMPE  C21723179   6.248   6.294   4.431
  226QMPE  H17R23180   6.146   6.280   4.460
  226QMPE  H17S23181   6.302   6.242   4.352
  226QMPE  C21023182   6.334   6.350   4.544
  226QMPE  H10R23183   6.432   6.300   4.535
  226QMPE  C21123184   6.269   6.395   4.677
  226QMPE  H11R23185   6.166   6.427   4.674
  226QMPE  H11S23186   6.243   6.296   4.714
  226QMPE  C21223187   6.357   6.500   4.759
  226QMPE  H12R23188   6.384   6.586   4.695
  226QMPE  H12S23189   6.455   6.454   4.751
  226QMPE  C21323190   6.341   6.536   4.918
  226QMPE  H13R23191   6.237   6.576   4.915
  226QMPE  H13S23192   6.409   6.621   4.938
  226QMPE  C21423193   6.346   6.448   5.059
  226QMPE  H14R23194   6.385   6.353   5.040
  226QMPE  H14S23195   6.249   6.441   5.106
  226QMPE  C21523196   6.454   6.374   5.153
  226QMPE  H15R23197   6.449   6.476   5.143
  226QMPE  H15S23198   6.555   6.325   5.139
  226QMPE  C21623199   6.447   6.324   5.288
  226QMPE  H16R23200   6.359   6.373   5.331
  226QMPE  H16S23201   6.541   6.328   5.346
  226QMPE  H16T23202   6.446   6.218   5.254
  226QMPE   C3323203   5.549   6.408   4.141
  226QMPE   H3X23204   5.526   6.316   4.194
  226QMPE   H3Y23205   5.513   6.471   4.224
  226QMPE   C3423206   5.695   6.373   4.118
  226QMPE   H4X23207   5.742   6.462   4.072
  226QMPE   H4Y23208   5.701   6.291   4.042
  226QMPE   C3523209   5.768   6.326   4.245
  226QMPE   H5X23210   5.875   6.349   4.227
  226QMPE   H5Y23211   5.759   6.215   4.255
  226QMPE   C3623212   5.727   6.387   4.381
  226QMPE   H6X23213   5.805   6.352   4.453
  226QMPE   H6Y23214   5.629   6.349   4.417
  226QMPE   C3723215   5.727   6.540   4.390
  226QMPE   H7X23216   5.831   6.572   4.375
  226QMPE   H7Y23217   5.665   6.584   4.309
  226QMPE   C3823218   5.678   6.592   4.526
  226QMPE   H8X23219   5.668   6.703   4.524
  226QMPE   H8Y23220   5.578   6.547   4.537
  226QMPE   C3923221   5.761   6.549   4.648
  226QMPE   H9X23222   5.863   6.590   4.642
  226QMPE   H9Y23223   5.763   6.437   4.647
  226QMPE  C31023224   5.708   6.593   4.785
  226QMPE  H10X23225   5.605   6.572   4.781
  226QMPE  H10Y23226   5.702   6.702   4.799
  226QMPE  C31123227   5.765   6.514   4.904
  226QMPE  H11X23228   5.734   6.407   4.897
  226QMPE  H11Y23229   5.721   6.555   4.997
  226QMPE  C31223230   5.917   6.519   4.913
  226QMPE  H12X23231   5.954   6.620   4.886
  226QMPE  H12Y23232   5.959   6.447   4.838
  226QMPE  C31323233   5.969   6.476   5.051
  226QMPE  H13X23234   5.939   6.372   5.074
  226QMPE  H13Y23235   6.079   6.479   5.043
  226QMPE  C31423236   5.931   6.563   5.170
  226QMPE  H14X23237   5.957   6.516   5.267
  226QMPE  H14Y23238   5.823   6.587   5.171
  226QMPE  C31523239   6.008   6.690   5.162
  226QMPE  H15X23240   6.116   6.685   5.138
  226QMPE  H15Y23241   5.954   6.740   5.078
  226QMPE  H15Z23242   5.998   6.746   5.256
  227QMPE     N23243   1.676   6.743   3.676
  227QMPE   HN123244   1.706   6.649   3.639
  227QMPE   HN223245   1.698   6.816   3.606
  227QMPE   HN323246   1.730   6.757   3.764
  227QMPE   C1223247   1.528   6.727   3.708
  227QMPE  H12A23248   1.494   6.817   3.762
  227QMPE  H12B23249   1.519   6.641   3.777
  227QMPE   C1123250   1.438   6.695   3.586
  227QMPE  H11A23251   1.428   6.785   3.522
  227QMPE  H11B23252   1.336   6.671   3.626
  227QMPE     P23253   1.494   6.439   3.544
  227QMPE   O1323254   1.532   6.360   3.426
  227QMPE   O1423255   1.374   6.404   3.624
  227QMPE   O1123256   1.616   6.468   3.636
  227QMPE   O1223257   1.488   6.591   3.503
  227QMPE    C123258   1.734   6.395   3.612
  227QMPE    HA23259   1.807   6.454   3.555
  227QMPE    HB23260   1.718   6.293   3.564
  227QMPE    C223261   1.791   6.360   3.745
  227QMPE    HS23262   1.862   6.279   3.715
  227QMPE   O2123263   1.661   6.329   3.824
  227QMPE   C2123264   1.679   6.317   3.957
  227QMPE   O2223265   1.782   6.348   3.997
  227QMPE   C2223266   1.601   6.208   4.047
  227QMPE   H2R23267   1.563   6.121   3.990
  227QMPE   H2S23268   1.521   6.274   4.072
  227QMPE    C323269   1.886   6.477   3.799
  227QMPE    HX23270   1.959   6.513   3.722
  227QMPE    HY23271   1.961   6.437   3.873
  227QMPE   O3123272   1.799   6.581   3.848
  227QMPE   C3123273   1.793   6.589   3.984
  227QMPE   O3223274   1.882   6.551   4.057
  227QMPE   C3223275   1.684   6.688   4.024
  227QMPE   H2X23276   1.713   6.756   4.107
  227QMPE   H2Y23277   1.658   6.756   3.943
  227QMPE   C2323278   1.672   6.120   4.165
  227QMPE   H3R23279   1.723   6.179   4.242
  227QMPE   H3S23280   1.733   6.030   4.137
  227QMPE   C2423281   1.575   6.047   4.245
  227QMPE   H4R23282   1.616   5.994   4.334
  227QMPE   H4S23283   1.551   5.960   4.176
  227QMPE   C2523284   1.465   6.155   4.264
  227QMPE   H5R23285   1.420   6.069   4.300
  227QMPE   H5S23286   1.408   6.186   4.177
  227QMPE   C2623287   1.423   6.250   4.379
  227QMPE   H6R23288   1.510   6.301   4.411
  227QMPE   H6S23289   1.412   6.198   4.472
  227QMPE   C2723290   1.274   6.299   4.399
  227QMPE   H7R23291   1.186   6.236   4.369
  227QMPE   H7S23292   1.257   6.383   4.333
  227QMPE   C2823293   1.251   6.314   4.553
  227QMPE   H8R23294   1.322   6.391   4.586
  227QMPE   H8S23295   1.274   6.224   4.615
  227QMPE   C2923296   1.106   6.340   4.581
  227QMPE   H9R23297   1.034   6.278   4.527
  227QMPE  C21723298   1.082   6.486   4.547
  227QMPE  H17R23299   1.173   6.542   4.543
  227QMPE  H17S23300   1.004   6.484   4.471
  227QMPE  C21023301   1.054   6.433   4.686
  227QMPE  H10R23302   0.947   6.426   4.711
  227QMPE  C21123303   1.151   6.467   4.798
  227QMPE  H11R23304   1.247   6.501   4.755
  227QMPE  H11S23305   1.110   6.552   4.856
  227QMPE  C21223306   1.182   6.344   4.886
  227QMPE  H12R23307   1.279   6.354   4.936
  227QMPE  H12S23308   1.175   6.249   4.827
  227QMPE  C21323309   1.088   6.332   5.002
  227QMPE  H13R23310   1.062   6.231   5.041
  227QMPE  H13S23311   1.006   6.365   4.938
  227QMPE  C21423312   1.086   6.441   5.109
  227QMPE  H14R23313   1.008   6.418   5.186
  227QMPE  H14S23314   1.056   6.537   5.061
  227QMPE  C21523315   1.204   6.437   5.197
  227QMPE  H15R23316   1.287   6.472   5.136
  227QMPE  H15S23317   1.212   6.330   5.231
  227QMPE  C21623318   1.183   6.521   5.319
  227QMPE  H16R23319   1.240   6.483   5.406
  227QMPE  H16S23320   1.077   6.507   5.343
  227QMPE  H16T23321   1.202   6.629   5.298
  227QMPE   C3323322   1.581   6.598   4.079
  227QMPE   H3X23323   1.555   6.529   3.996
  227QMPE   H3Y23324   1.494   6.661   4.104
  227QMPE   C3423325   1.638   6.523   4.201
  227QMPE   H4X23326   1.715   6.448   4.174
  227QMPE   H4Y23327   1.558   6.462   4.245
  227QMPE   C3523328   1.716   6.607   4.304
  227QMPE   H5X23329   1.683   6.712   4.301
  227QMPE   H5Y23330   1.825   6.606   4.279
  227QMPE   C3623331   1.683   6.562   4.446
  227QMPE   H6X23332   1.575   6.568   4.464
  227QMPE   H6Y23333   1.742   6.624   4.519
  227QMPE   C3723334   1.715   6.419   4.470
  227QMPE   H7X23335   1.716   6.353   4.380
  227QMPE   H7Y23336   1.815   6.450   4.501
  227QMPE   C3823337   1.675   6.348   4.598
  227QMPE   H8X23338   1.568   6.332   4.602
  227QMPE   H8Y23339   1.718   6.244   4.591
  227QMPE   C3923340   1.740   6.415   4.719
  227QMPE   H9X23341   1.737   6.522   4.739
  227QMPE   H9Y23342   1.849   6.406   4.701
  227QMPE  C31023343   1.701   6.344   4.845
  227QMPE  H10X23344   1.732   6.385   4.939
  227QMPE  H10Y23345   1.765   6.261   4.839
  227QMPE  C31123346   1.555   6.316   4.875
  227QMPE  H11X23347   1.504   6.281   4.785
  227QMPE  H11Y23348   1.531   6.412   4.926
  227QMPE  C31223349   1.525   6.222   4.988
  227QMPE  H12X23350   1.604   6.262   5.047
  227QMPE  H12Y23351   1.542   6.117   4.993
  227QMPE  C31323352   1.393   6.164   5.036
  227QMPE  H13X23353   1.378   6.247   5.108
  227QMPE  H13Y23354   1.342   6.164   4.938
  227QMPE  C31423355   1.386   6.017   5.098
  227QMPE  H14X23356   1.442   5.984   5.188
  227QMPE  H14Y23357   1.430   5.934   5.041
  227QMPE  C31523358   1.244   5.997   5.136
  227QMPE  H15X23359   1.192   5.994   5.040
  227QMPE  H15Y23360   1.231   5.902   5.186
  227QMPE  H15Z23361   1.210   6.081   5.203
  228QMPE     N23362   7.150   5.571   3.340
  228QMPE   HN123363   7.116   5.490   3.395
  228QMPE   HN223364   7.077   5.646   3.345
  228QMPE   HN323365   7.162   5.541   3.241
  228QMPE   C1223366   7.280   5.615   3.400
  228QMPE  H12A23367   7.262   5.700   3.469
  228QMPE  H12B23368   7.343   5.647   3.315
  228QMPE   C1123369   7.341   5.501   3.483
  228QMPE  H11A23370   7.446   5.530   3.505
  228QMPE  H11B23371   7.345   5.406   3.426
  228QMPE     P23372   7.285   5.361   3.701
  228QMPE   O1323373   7.309   5.246   3.613
  228QMPE   O1423374   7.172   5.358   3.794
  228QMPE   O1123375   7.411   5.396   3.784
  228QMPE   O1223376   7.268   5.487   3.604
  228QMPE    C123377   7.540   5.368   3.733
  228QMPE    HA23378   7.548   5.386   3.623
  228QMPE    HB23379   7.566   5.262   3.752
  228QMPE    C223380   7.642   5.461   3.802
  228QMPE    HS23381   7.743   5.424   3.776
  228QMPE   O2123382   7.630   5.460   3.944
  228QMPE   C2123383   7.660   5.357   4.008
  228QMPE   O2223384   7.701   5.252   3.962
  228QMPE   C2223385   7.645   5.383   4.158
  228QMPE   H2R23386   7.544   5.422   4.181
  228QMPE   H2S23387   7.724   5.449   4.196
  228QMPE    C323388   7.627   5.609   3.753
  228QMPE    HX23389   7.642   5.605   3.644
  228QMPE    HY23390   7.707   5.672   3.798
  228QMPE   O3123391   7.497   5.670   3.769
  228QMPE   C3123392   7.460   5.684   3.895
  228QMPE   O3223393   7.532   5.665   3.991
  228QMPE   C3223394   7.318   5.743   3.903
  228QMPE   H2X23395   7.315   5.847   3.865
  228QMPE   H2Y23396   7.258   5.675   3.840
  228QMPE   C2323397   7.657   5.247   4.220
  228QMPE   H3R23398   7.754   5.208   4.182
  228QMPE   H3S23399   7.575   5.188   4.172
  228QMPE   C2423400   7.643   5.242   4.372
  228QMPE   H4R23401   7.641   5.139   4.409
  228QMPE   H4S23402   7.558   5.301   4.411
  228QMPE   C2523403   7.767   5.256   4.445
  228QMPE   H5R23404   7.773   5.365   4.436
  228QMPE   H5S23405   7.841   5.214   4.375
  228QMPE   C2623406   7.778   5.196   4.590
  228QMPE   H6R23407   7.720   5.106   4.612
  228QMPE   H6S23408   7.713   5.252   4.655
  228QMPE   C2723409   7.926   5.185   4.641
  228QMPE   H7R23410   8.003   5.261   4.622
  228QMPE   H7S23411   7.981   5.119   4.585
  228QMPE   C2823412   7.968   5.146   4.777
  228QMPE   H8R23413   8.073   5.148   4.788
  228QMPE   H8S23414   7.933   5.055   4.817
  228QMPE   C2923415   7.914   5.204   4.879
  228QMPE   H9R23416   7.814   5.214   4.844
  228QMPE  C21723417   7.998   5.316   4.897
  228QMPE  H17R23418   8.086   5.326   4.866
  228QMPE  H17S23419   7.949   5.404   4.901
  228QMPE  C21023420   7.981   5.234   5.013
  228QMPE  H10R23421   7.962   5.312   5.089
  228QMPE  C21123422   8.072   5.136   5.060
  228QMPE  H11R23423   8.130   5.148   4.983
  228QMPE  H11S23424   8.112   5.168   5.162
  228QMPE  C21223425   8.005   5.014   5.045
  228QMPE  H12R23426   7.903   5.017   5.013
  228QMPE  H12S23427   7.995   5.016   5.149
  228QMPE  C21323428   8.090   4.900   5.031
  228QMPE  H13R23429   8.147   4.915   5.118
  228QMPE  H13S23430   8.166   4.901   4.957
  228QMPE  C21423431   8.036   4.781   5.093
  228QMPE  H14R23432   8.044   4.696   5.026
  228QMPE  H14S23433   7.943   4.819   5.137
  228QMPE  C21523434   8.075   4.756   5.228
  228QMPE  H15R23435   8.036   4.812   5.307
  228QMPE  H15S23436   8.174   4.749   5.210
  228QMPE  C21623437   8.057   4.641   5.301
  228QMPE  H16R23438   8.039   4.559   5.243
  228QMPE  H16S23439   7.965   4.655   5.314
  228QMPE  H16T23440   8.066   4.627   5.407
  228QMPE   C3323441   7.258   5.747   4.044
  228QMPE   H3X23442   7.154   5.787   4.043
  228QMPE   H3Y23443   7.301   5.826   4.103
  228QMPE   C3423444   7.275   5.611   4.114
  228QMPE   H4X23445   7.378   5.574   4.122
  228QMPE   H4Y23446   7.223   5.533   4.054
  228QMPE   C3523447   7.227   5.617   4.256
  228QMPE   H5X23448   7.150   5.696   4.250
  228QMPE   H5Y23449   7.297   5.665   4.326
  228QMPE   C3623450   7.198   5.477   4.312
  228QMPE   H6X23451   7.285   5.412   4.284
  228QMPE   H6Y23452   7.107   5.429   4.270
  228QMPE   C3723453   7.187   5.485   4.464
  228QMPE   H7X23454   7.267   5.548   4.509
  228QMPE   H7Y23455   7.087   5.516   4.492
  228QMPE   C3823456   7.193   5.357   4.538
  228QMPE   H8X23457   7.095   5.304   4.528
  228QMPE   H8Y23458   7.274   5.305   4.482
  228QMPE   C3923459   7.228   5.383   4.684
  228QMPE   H9X23460   7.214   5.307   4.761
  228QMPE   H9Y23461   7.151   5.441   4.735
  228QMPE  C31023462   7.377   5.396   4.710
  228QMPE  H10X23463   7.408   5.497   4.679
  228QMPE  H10Y23464   7.444   5.325   4.654
  228QMPE  C31123465   7.393   5.382   4.860
  228QMPE  H11X23466   7.303   5.408   4.918
  228QMPE  H11Y23467   7.453   5.470   4.876
  228QMPE  C31223468   7.439   5.249   4.916
  228QMPE  H12X23469   7.511   5.186   4.855
  228QMPE  H12Y23470   7.356   5.190   4.945
  228QMPE  C31323471   7.479   5.249   5.059
  228QMPE  H13X23472   7.522   5.147   5.076
  228QMPE  H13Y23473   7.536   5.339   5.076
  228QMPE  C31423474   7.419   5.307   5.183
  228QMPE  H14X23475   7.335   5.238   5.187
  228QMPE  H14Y23476   7.393   5.415   5.162
  228QMPE  C31523477   7.513   5.298   5.307
  228QMPE  H15X23478   7.590   5.379   5.316
  228QMPE  H15Y23479   7.452   5.299   5.397
  228QMPE  H15Z23480   7.571   5.203   5.312
  229QMPE     N23481   2.884   7.890   3.638
  229QMPE   HN123482   2.914   7.828   3.720
  229QMPE   HN223483   2.788   7.878   3.674
  229QMPE   HN323484   2.927   7.819   3.575
  229QMPE   C1223485   2.968   8.019   3.668
  229QMPE  H12A23486   3.078   7.999   3.694
  229QMPE  H12B23487   2.934   8.066   3.763
  229QMPE   C1123488   2.993   8.077   3.543
  229QMPE  H11A23489   2.890   8.086   3.506
  229QMPE  H11B23490   3.055   8.000   3.487
  229QMPE     P23491   3.208   8.235   3.557
  229QMPE   O1323492   3.236   8.375   3.590
  229QMPE   O1423493   3.245   8.194   3.421
  229QMPE   O1123494   3.266   8.133   3.661
  229QMPE   O1223495   3.052   8.202   3.568
  229QMPE    C123496   3.407   8.112   3.660
  229QMPE    HA23497   3.468   8.205   3.655
  229QMPE    HB23498   3.435   8.048   3.574
  229QMPE    C223499   3.443   8.043   3.789
  229QMPE    HS23500   3.545   8.018   3.813
  229QMPE   O2123501   3.365   7.924   3.785
  229QMPE   C2123502   3.402   7.814   3.708
  229QMPE   O2223503   3.437   7.810   3.594
  229QMPE   C2223504   3.368   7.679   3.767
  229QMPE   H2R23505   3.410   7.580   3.755
  229QMPE   H2S23506   3.283   7.651   3.718
  229QMPE    C323507   3.423   8.133   3.916
  229QMPE    HX23508   3.511   8.201   3.910
  229QMPE    HY23509   3.439   8.073   4.010
  229QMPE   O3123510   3.309   8.219   3.912
  229QMPE   C3123511   3.213   8.182   3.992
  229QMPE   O3223512   3.213   8.087   4.065
  229QMPE   C3223513   3.102   8.285   3.987
  229QMPE   H2X23514   3.150   8.384   3.991
  229QMPE   H2Y23515   3.052   8.273   3.889
  229QMPE   C2323516   3.335   7.684   3.898
  229QMPE   H3R23517   3.297   7.790   3.911
  229QMPE   H3S23518   3.391   7.734   3.979
  229QMPE   C2423519   3.240   7.547   3.931
  229QMPE   H4R23520   3.320   7.572   3.996
  229QMPE   H4S23521   3.299   7.457   3.944
  229QMPE   C2523522   3.079   7.527   4.016
  229QMPE   H5R23523   3.062   7.423   4.036
  229QMPE   H5S23524   3.003   7.560   3.944
  229QMPE   C2623525   3.011   7.615   4.157
  229QMPE   H6R23526   3.012   7.560   4.253
  229QMPE   H6S23527   2.933   7.648   4.104
  229QMPE   C2723528   2.997   7.771   4.223
  229QMPE   H7R23529   2.921   7.821   4.178
  229QMPE   H7S23530   3.079   7.839   4.245
  229QMPE   C2823531   2.941   7.823   4.348
  229QMPE   H8R23532   2.980   7.919   4.388
  229QMPE   H8S23533   2.986   7.738   4.384
  229QMPE   C2923534   2.802   7.832   4.339
  229QMPE   H9R23535   2.740   7.784   4.261
  229QMPE  C21723536   2.749   7.967   4.359
  229QMPE  H17R23537   2.797   8.046   4.407
  229QMPE  H17S23538   2.658   7.975   4.309
  229QMPE  C21023539   2.742   7.856   4.466
  229QMPE  H10R23540   2.667   7.790   4.449
  229QMPE  C21123541   2.786   7.890   4.611
  229QMPE  H11R23542   2.889   7.924   4.596
  229QMPE  H11S23543   2.717   7.967   4.651
  229QMPE  C21223544   2.777   7.781   4.723
  229QMPE  H12R23545   2.786   7.697   4.661
  229QMPE  H12S23546   2.688   7.733   4.765
  229QMPE  C21323547   2.866   7.794   4.844
  229QMPE  H13R23548   2.815   7.874   4.900
  229QMPE  H13S23549   2.969   7.823   4.815
  229QMPE  C21423550   2.872   7.675   4.942
  229QMPE  H14R23551   2.893   7.582   4.896
  229QMPE  H14S23552   2.776   7.641   4.984
  229QMPE  C21523553   2.988   7.687   5.037
  229QMPE  H15R23554   2.982   7.789   5.081
  229QMPE  H15S23555   3.089   7.683   4.987
  229QMPE  C21623556   2.984   7.574   5.139
  229QMPE  H16R23557   3.042   7.598   5.223
  229QMPE  H16S23558   3.039   7.482   5.112
  229QMPE  H16T23559   2.886   7.563   5.189
  229QMPE   C3323560   2.999   8.265   4.100
  229QMPE   H3X23561   2.965   8.159   4.105
  229QMPE   H3Y23562   2.911   8.329   4.078
  229QMPE   C3423563   3.047   8.304   4.240
  229QMPE   H4X23564   3.074   8.412   4.241
  229QMPE   H4Y23565   3.139   8.247   4.266
  229QMPE   C3523566   2.939   8.268   4.345
  229QMPE   H5X23567   2.931   8.158   4.341
  229QMPE   H5Y23568   2.840   8.309   4.316
  229QMPE   C3623569   2.978   8.308   4.488
  229QMPE   H6X23570   2.897   8.287   4.560
  229QMPE   H6Y23571   2.995   8.418   4.487
  229QMPE   C3723572   3.110   8.241   4.532
  229QMPE   H7X23573   3.110   8.134   4.502
  229QMPE   H7Y23574   3.192   8.291   4.475
  229QMPE   C3823575   3.141   8.258   4.681
  229QMPE   H8X23576   3.249   8.281   4.693
  229QMPE   H8Y23577   3.083   8.345   4.719
  229QMPE   C3923578   3.109   8.135   4.767
  229QMPE   H9X23579   3.180   8.054   4.740
  229QMPE   H9Y23580   3.007   8.097   4.746
  229QMPE  C31023581   3.127   8.169   4.915
  229QMPE  H10X23582   3.047   8.234   4.956
  229QMPE  H10Y23583   3.225   8.220   4.928
  229QMPE  C31123584   3.137   8.051   5.007
  229QMPE  H11X23585   3.225   7.990   4.975
  229QMPE  H11Y23586   3.050   7.982   5.002
  229QMPE  C31223587   3.152   8.113   5.149
  229QMPE  H12X23588   3.057   8.129   5.202
  229QMPE  H12Y23589   3.234   8.188   5.160
  229QMPE  C31323590   3.212   8.010   5.230
  229QMPE  H13X23591   3.133   7.936   5.202
  229QMPE  H13Y23592   3.302   8.002   5.163
  229QMPE  C31423593   3.244   8.010   5.382
  229QMPE  H14X23594   3.247   7.912   5.436
  229QMPE  H14Y23595   3.161   8.061   5.432
  229QMPE  C31523596   3.384   8.048   5.428
  229QMPE  H15X23597   3.408   8.149   5.393
  229QMPE  H15Y23598   3.382   8.043   5.538
  229QMPE  H15Z23599   3.463   7.976   5.396
  230QMPE     N23600   6.727   1.240   3.333
  230QMPE   HN123601   6.768   1.310   3.269
  230QMPE   HN223602   6.658   1.181   3.283
  230QMPE   HN323603   6.681   1.291   3.411
  230QMPE   C1223604   6.833   1.150   3.391
  230QMPE  H12A23605   6.871   1.086   3.309
  230QMPE  H12B23606   6.781   1.084   3.463
  230QMPE   C1123607   6.949   1.228   3.457
  230QMPE  H11A23608   6.983   1.312   3.393
  230QMPE  H11B23609   7.041   1.165   3.467
  230QMPE     P23610   6.917   1.186   3.714
  230QMPE   O1323611   7.049   1.123   3.720
  230QMPE   O1423612   6.797   1.101   3.705
  230QMPE   O1123613   6.907   1.289   3.831
  230QMPE   O1223614   6.909   1.280   3.584
  230QMPE    C123615   6.808   1.385   3.860
  230QMPE    HA23616   6.721   1.384   3.790
  230QMPE    HB23617   6.855   1.486   3.853
  230QMPE    C223618   6.752   1.365   4.003
  230QMPE    HS23619   6.688   1.455   4.026
  230QMPE   O2123620   6.858   1.340   4.099
  230QMPE   C2123621   6.889   1.456   4.143
  230QMPE   O2223622   6.850   1.562   4.099
  230QMPE   C2223623   6.972   1.454   4.261
  230QMPE   H2R23624   7.020   1.356   4.276
  230QMPE   H2S23625   6.924   1.463   4.358
  230QMPE    C323626   6.657   1.246   4.019
  230QMPE    HX23627   6.707   1.159   3.971
  230QMPE    HY23628   6.565   1.272   3.962
  230QMPE   O3123629   6.629   1.215   4.158
  230QMPE   C3123630   6.548   1.300   4.218
  230QMPE   O3223631   6.476   1.382   4.162
  230QMPE   C3223632   6.560   1.284   4.369
  230QMPE   H2X23633   6.471   1.332   4.414
  230QMPE   H2Y23634   6.559   1.177   4.400
  230QMPE   C2323635   7.053   1.575   4.214
  230QMPE   H3R23636   7.117   1.575   4.125
  230QMPE   H3S23637   7.154   1.556   4.233
  230QMPE   C2423638   7.026   1.705   4.281
  230QMPE   H4R23639   6.966   1.775   4.220
  230QMPE   H4S23640   7.121   1.757   4.260
  230QMPE   C2523641   6.982   1.705   4.432
  230QMPE   H5R23642   6.877   1.678   4.440
  230QMPE   H5S23643   6.999   1.811   4.436
  230QMPE   C2623644   7.062   1.669   4.562
  230QMPE   H6R23645   7.154   1.727   4.580
  230QMPE   H6S23646   7.073   1.563   4.580
  230QMPE   C2723647   7.010   1.650   4.694
  230QMPE   H7R23648   6.916   1.597   4.709
  230QMPE   H7S23649   7.012   1.748   4.735
  230QMPE   C2823650   7.112   1.622   4.790
  230QMPE   H8R23651   7.190   1.703   4.775
  230QMPE   H8S23652   7.166   1.526   4.781
  230QMPE   C2923653   7.018   1.637   4.912
  230QMPE   H9R23654   6.937   1.566   4.925
  230QMPE  C21723655   7.006   1.773   4.987
  230QMPE  H17R23656   7.062   1.865   4.979
  230QMPE  H17S23657   6.933   1.775   5.057
  230QMPE  C21023658   7.065   1.646   5.040
  230QMPE  H10R23659   7.020   1.591   5.122
  230QMPE  C21123660   7.189   1.635   5.024
  230QMPE  H11R23661   7.260   1.642   4.937
  230QMPE  H11S23662   7.178   1.746   5.077
  230QMPE  C21223663   7.262   1.515   5.089
  230QMPE  H12R23664   7.229   1.498   5.193
  230QMPE  H12S23665   7.373   1.521   5.094
  230QMPE  C21323666   7.240   1.381   5.068
  230QMPE  H13R23667   7.255   1.389   4.959
  230QMPE  H13S23668   7.136   1.377   5.110
  230QMPE  C21423669   7.340   1.300   5.152
  230QMPE  H14R23670   7.292   1.208   5.115
  230QMPE  H14S23671   7.322   1.292   5.261
  230QMPE  C21523672   7.494   1.330   5.123
  230QMPE  H15R23673   7.546   1.421   5.151
  230QMPE  H15S23674   7.509   1.345   5.014
  230QMPE  C21623675   7.585   1.228   5.181
  230QMPE  H16R23676   7.545   1.149   5.126
  230QMPE  H16S23677   7.559   1.195   5.283
  230QMPE  H16T23678   7.692   1.221   5.151
  230QMPE   C3323679   6.685   1.357   4.420
  230QMPE   H3X23680   6.683   1.461   4.381
  230QMPE   H3Y23681   6.775   1.306   4.377
  230QMPE   C3423682   6.695   1.360   4.573
  230QMPE   H4X23683   6.610   1.301   4.616
  230QMPE   H4Y23684   6.686   1.464   4.610
  230QMPE   C3523685   6.828   1.303   4.623
  230QMPE   H5X23686   6.909   1.363   4.575
  230QMPE   H5Y23687   6.839   1.196   4.594
  230QMPE   C3623688   6.843   1.319   4.774
  230QMPE   H6X23689   6.756   1.271   4.824
  230QMPE   H6Y23690   6.845   1.428   4.795
  230QMPE   C3723691   6.970   1.260   4.832
  230QMPE   H7X23692   6.987   1.156   4.798
  230QMPE   H7Y23693   7.057   1.321   4.798
  230QMPE   C3823694   6.960   1.258   4.984
  230QMPE   H8X23695   7.065   1.251   5.013
  230QMPE   H8Y23696   6.911   1.347   5.029
  230QMPE   C3923697   6.907   1.128   5.043
  230QMPE   H9X23698   6.962   1.045   4.993
  230QMPE   H9Y23699   6.799   1.119   5.022
  230QMPE  C31023700   6.936   1.115   5.193
  230QMPE  H10X23701   7.038   1.153   5.214
  230QMPE  H10Y23702   6.933   1.008   5.221
  230QMPE  C31123703   6.837   1.189   5.282
  230QMPE  H11X23704   6.740   1.134   5.280
  230QMPE  H11Y23705   6.814   1.290   5.241
  230QMPE  C31223706   6.895   1.194   5.426
  230QMPE  H12X23707   6.907   1.092   5.466
  230QMPE  H12Y23708   6.828   1.234   5.502
  230QMPE  C31323709   7.021   1.278   5.441
  230QMPE  H13X23710   7.042   1.294   5.551
  230QMPE  H13Y23711   7.105   1.234   5.388
  230QMPE  C31423712   7.000   1.413   5.390
  230QMPE  H14X23713   6.986   1.425   5.280
  230QMPE  H14Y23714   7.084   1.481   5.420
  230QMPE  C31523715   6.875   1.451   5.459
  230QMPE  H15X23716   6.917   1.548   5.447
  230QMPE  H15Y23717   6.777   1.447   5.406
  230QMPE  H15Z23718   6.861   1.455   5.569
  231QMPE     N23719   7.488   8.216   3.699
  231QMPE   HN123720   7.588   8.220   3.729
  231QMPE   HN223721   7.433   8.298   3.733
  231QMPE   HN323722   7.446   8.127   3.737
  231QMPE   C1223723   7.486   8.205   3.550
  231QMPE  H12A23724   7.591   8.214   3.513
  231QMPE  H12B23725   7.431   8.294   3.514
  231QMPE   C1123726   7.417   8.072   3.514
  231QMPE  H11A23727   7.374   8.047   3.419
  231QMPE  H11B23728   7.323   8.063   3.574
  231QMPE     P23729   7.495   7.847   3.602
  231QMPE   O1323730   7.625   7.843   3.670
  231QMPE   O1423731   7.455   7.729   3.524
  231QMPE   O1123732   7.383   7.902   3.701
  231QMPE   O1223733   7.510   7.968   3.507
  231QMPE    C123734   7.251   7.851   3.719
  231QMPE    HA23735   7.240   7.748   3.676
  231QMPE    HB23736   7.174   7.915   3.671
  231QMPE    C223737   7.226   7.843   3.871
  231QMPE    HS23738   7.130   7.791   3.897
  231QMPE   O2123739   7.237   7.970   3.938
  231QMPE   C2123740   7.130   8.043   3.936
  231QMPE   O2223741   7.027   8.017   3.877
  231QMPE   C2223742   7.160   8.171   4.015
  231QMPE   H2R23743   7.065   8.229   4.015
  231QMPE   H2S23744   7.236   8.227   3.958
  231QMPE    C323745   7.336   7.758   3.925
  231QMPE    HX23746   7.435   7.775   3.879
  231QMPE    HY23747   7.306   7.653   3.894
  231QMPE   O3123748   7.348   7.783   4.066
  231QMPE   C3123749   7.453   7.856   4.117
  231QMPE   O3223750   7.522   7.929   4.051
  231QMPE   C3223751   7.469   7.844   4.272
  231QMPE   H2X23752   7.368   7.860   4.313
  231QMPE   H2Y23753   7.496   7.744   4.288
  231QMPE   C2323754   7.208   8.143   4.161
  231QMPE   H3R23755   7.299   8.081   4.160
  231QMPE   H3S23756   7.129   8.085   4.213
  231QMPE   C2423757   7.243   8.269   4.243
  231QMPE   H4R23758   7.150   8.325   4.267
  231QMPE   H4S23759   7.304   8.337   4.179
  231QMPE   C2523760   7.332   8.239   4.366
  231QMPE   H5R23761   7.353   8.333   4.423
  231QMPE   H5S23762   7.427   8.194   4.332
  231QMPE   C2623763   7.281   8.140   4.469
  231QMPE   H6R23764   7.348   8.138   4.557
  231QMPE   H6S23765   7.276   8.037   4.428
  231QMPE   C2723766   7.153   8.184   4.530
  231QMPE   H7R23767   7.087   8.157   4.447
  231QMPE   H7S23768   7.135   8.292   4.541
  231QMPE   C2823769   7.146   8.116   4.669
  231QMPE   H8R23770   7.198   8.171   4.741
  231QMPE   H8S23771   7.187   8.014   4.674
  231QMPE   C2923772   7.006   8.119   4.706
  231QMPE   H9R23773   6.950   8.098   4.626
  231QMPE  C21723774   6.973   8.243   4.786
  231QMPE  H17R23775   7.062   8.295   4.772
  231QMPE  H17S23776   6.907   8.314   4.748
  231QMPE  C21023777   6.939   8.099   4.829
  231QMPE  H10R23778   6.848   8.036   4.819
  231QMPE  C21123779   7.007   8.098   4.949
  231QMPE  H11R23780   7.100   8.148   4.929
  231QMPE  H11S23781   6.942   8.145   5.026
  231QMPE  C21223782   7.046   7.964   4.969
  231QMPE  H12R23783   7.145   7.951   5.014
  231QMPE  H12S23784   7.053   7.914   4.871
  231QMPE  C21323785   6.936   7.925   5.057
  231QMPE  H13R23786   6.997   7.836   5.067
  231QMPE  H13S23787   6.834   7.906   5.015
  231QMPE  C21423788   6.934   7.949   5.206
  231QMPE  H14R23789   6.916   8.057   5.202
  231QMPE  H14S23790   7.036   7.916   5.240
  231QMPE  C21523791   6.819   7.888   5.289
  231QMPE  H15R23792   6.792   7.784   5.279
  231QMPE  H15S23793   6.728   7.899   5.239
  231QMPE  C21623794   6.827   7.893   5.441
  231QMPE  H16R23795   6.824   7.998   5.469
  231QMPE  H16S23796   6.920   7.853   5.486
  231QMPE  H16T23797   6.747   7.825   5.481
  231QMPE   C3323798   7.596   7.832   4.368
  231QMPE   H3X23799   7.620   7.937   4.356
  231QMPE   H3Y23800   7.676   7.762   4.330
  231QMPE   C3423801   7.580   7.790   4.520
  231QMPE   H4X23802   7.681   7.773   4.561
  231QMPE   H4Y23803   7.536   7.692   4.548
  231QMPE   C3523804   7.499   7.894   4.598
  231QMPE   H5X23805   7.401   7.911   4.549
  231QMPE   H5Y23806   7.555   7.988   4.589
  231QMPE   C3623807   7.471   7.856   4.745
  231QMPE   H6X23808   7.442   7.751   4.760
  231QMPE   H6Y23809   7.387   7.916   4.785
  231QMPE   C3723810   7.594   7.857   4.831
  231QMPE   H7X23811   7.565   7.805   4.925
  231QMPE   H7Y23812   7.669   7.795   4.778
  231QMPE   C3823813   7.647   7.996   4.858
  231QMPE   H8X23814   7.733   7.984   4.927
  231QMPE   H8Y23815   7.683   8.041   4.763
  231QMPE   C3923816   7.542   8.086   4.924
  231QMPE   H9X23817   7.598   8.145   5.001
  231QMPE   H9Y23818   7.463   8.028   4.973
  231QMPE  C31023819   7.472   8.181   4.828
  231QMPE  H10X23820   7.456   8.146   4.725
  231QMPE  H10Y23821   7.543   8.261   4.829
  231QMPE  C31123822   7.352   8.254   4.881
  231QMPE  H11X23823   7.274   8.184   4.906
  231QMPE  H11Y23824   7.317   8.336   4.811
  231QMPE  C31223825   7.382   8.305   5.015
  231QMPE  H12X23826   7.443   8.385   4.985
  231QMPE  H12Y23827   7.450   8.251   5.080
  231QMPE  C31323828   7.262   8.362   5.082
  231QMPE  H13X23829   7.309   8.439   5.139
  231QMPE  H13Y23830   7.188   8.394   5.008
  231QMPE  C31423831   7.177   8.288   5.173
  231QMPE  H14X23832   7.138   8.214   5.102
  231QMPE  H14Y23833   7.094   8.354   5.209
  231QMPE  C31523834   7.258   8.230   5.283
  231QMPE  H15X23835   7.361   8.207   5.247
  231QMPE  H15Y23836   7.267   8.301   5.367
  231QMPE  H15Z23837   7.207   8.137   5.312
  232QMPE     N23838   0.292   0.428   3.444
  232QMPE   HN123839   0.334   0.430   3.540
  232QMPE   HN223840   0.346   0.493   3.385
  232QMPE   HN323841   0.192   0.457   3.450
  232QMPE   C1223842   0.297   0.288   3.393
  232QMPE  H12A23843   0.403   0.254   3.405
  232QMPE  H12B23844   0.267   0.287   3.287
  232QMPE   C1123845   0.197   0.199   3.469
  232QMPE  H11A23846   0.206   0.092   3.437
  232QMPE  H11B23847   0.095   0.232   3.440
  232QMPE     P23848   0.344   0.162   3.678
  232QMPE   O1323849   0.426   0.284   3.691
  232QMPE   O1423850   0.393   0.047   3.603
  232QMPE   O1123851   0.289   0.116   3.816
  232QMPE   O1223852   0.210   0.212   3.609
  232QMPE    C123853   0.182   0.190   3.874
  232QMPE    HA23854   0.173   0.154   3.976
  232QMPE    HB23855   0.084   0.180   3.824
  232QMPE    C223856   0.219   0.321   3.932
  232QMPE    HS23857   0.216   0.392   3.845
  232QMPE   O2123858   0.344   0.298   3.997
  232QMPE   C2123859   0.400   0.412   4.002
  232QMPE   O2223860   0.355   0.512   3.948
  232QMPE   C2223861   0.524   0.389   4.091
  232QMPE   H2R23862   0.591   0.322   4.035
  232QMPE   H2S23863   0.488   0.342   4.187
  232QMPE    C323864   0.116   0.360   4.038
  232QMPE    HX23865   0.024   0.342   3.977
  232QMPE    HY23866   0.129   0.466   4.070
  232QMPE   O3123867   0.109   0.270   4.148
  232QMPE   C3123868   0.153   0.308   4.265
  232QMPE   O3223869   0.212   0.409   4.296
  232QMPE   C3223870   0.119   0.201   4.361
  232QMPE   H2X23871   0.017   0.158   4.357
  232QMPE   H2Y23872   0.197   0.139   4.313
  232QMPE   C2323873   0.612   0.504   4.135
  232QMPE   H3R23874   0.577   0.533   4.233
  232QMPE   H3S23875   0.631   0.586   4.068
  232QMPE   C2423876   0.744   0.478   4.185
  232QMPE   H4R23877   0.778   0.583   4.208
  232QMPE   H4S23878   0.807   0.449   4.099
  232QMPE   C2523879   0.721   0.370   4.295
  232QMPE   H5R23880   0.825   0.366   4.305
  232QMPE   H5S23881   0.674   0.279   4.256
  232QMPE   C2623882   0.642   0.385   4.426
  232QMPE   H6R23883   0.542   0.409   4.416
  232QMPE   H6S23884   0.678   0.454   4.492
  232QMPE   C2723885   0.667   0.328   4.559
  232QMPE   H7R23886   0.770   0.295   4.573
  232QMPE   H7S23887   0.601   0.253   4.519
  232QMPE   C2823888   0.615   0.400   4.687
  232QMPE   H8R23889   0.677   0.490   4.705
  232QMPE   H8S23890   0.635   0.332   4.771
  232QMPE   C2923891   0.471   0.444   4.700
  232QMPE   H9R23892   0.395   0.391   4.641
  232QMPE  C21723893   0.442   0.589   4.692
  232QMPE  H17R23894   0.506   0.676   4.702
  232QMPE  H17S23895   0.369   0.589   4.621
  232QMPE  C21023896   0.414   0.520   4.816
  232QMPE  H10R23897   0.313   0.510   4.848
  232QMPE  C21123898   0.490   0.600   4.907
  232QMPE  H11R23899   0.578   0.599   4.849
  232QMPE  H11S23900   0.476   0.705   4.899
  232QMPE  C21223901   0.489   0.540   5.047
  232QMPE  H12R23902   0.489   0.443   4.992
  232QMPE  H12S23903   0.414   0.482   5.084
  232QMPE  C21323904   0.577   0.584   5.177
  232QMPE  H13R23905   0.580   0.692   5.195
  232QMPE  H13S23906   0.685   0.584   5.172
  232QMPE  C21423907   0.586   0.506   5.304
  232QMPE  H14R23908   0.622   0.410   5.303
  232QMPE  H14S23909   0.494   0.479   5.350
  232QMPE  C21523910   0.700   0.556   5.387
  232QMPE  H15R23911   0.712   0.663   5.372
  232QMPE  H15S23912   0.794   0.522   5.348
  232QMPE  C21623913   0.685   0.492   5.521
  232QMPE  H16R23914   0.575   0.480   5.535
  232QMPE  H16S23915   0.734   0.556   5.597
  232QMPE  H16T23916   0.726   0.392   5.529
  232QMPE   C3323917   0.157   0.225   4.504
  232QMPE   H3X23918   0.100   0.313   4.534
  232QMPE   H3Y23919   0.266   0.247   4.500
  232QMPE   C3423920   0.128   0.109   4.601
  232QMPE   H4X23921   0.209   0.037   4.591
  232QMPE   H4Y23922   0.031   0.059   4.607
  232QMPE   C3523923   0.191   0.130   4.730
  232QMPE   H5X23924   0.275   0.189   4.692
  232QMPE   H5Y23925   0.207   0.042   4.796
  232QMPE   C3623926   0.135   0.223   4.813
  232QMPE   H6X23927   0.039   0.180   4.849
  232QMPE   H6Y23928   0.128   0.304   4.741
  232QMPE   C3723929   0.220   0.275   4.921
  232QMPE   H7X23930   0.311   0.332   4.908
  232QMPE   H7Y23931   0.155   0.338   4.971
  232QMPE   C3823932   0.212   0.194   5.039
  232QMPE   H8X23933   0.109   0.152   5.036
  232QMPE   H8Y23934   0.265   0.105   5.002
  232QMPE   C3923935   0.267   0.284   5.162
  232QMPE   H9X23936   0.195   0.365   5.186
  232QMPE   H9Y23937   0.357   0.322   5.122
  232QMPE  C31023938   0.302   0.232   5.307
  232QMPE  H10X23939   0.321   0.136   5.340
  232QMPE  H10Y23940   0.229   0.152   5.292
  232QMPE  C31123941   0.428   0.227   5.400
  232QMPE  H11X23942   0.395   0.315   5.455
  232QMPE  H11Y23943   0.525   0.251   5.366
  232QMPE  C31223944   0.469   0.107   5.496
  232QMPE  H12X23945   0.497   0.004   5.464
  232QMPE  H12Y23946   0.390   0.089   5.562
  232QMPE  C31323947   0.549   0.158   5.611
  232QMPE  H13X23948   0.520   0.265   5.614
  232QMPE  H13Y23949   0.520   0.106   5.706
  232QMPE  C31423950   0.689   0.134   5.576
  232QMPE  H14X23951   0.699   0.182   5.479
  232QMPE  H14Y23952   0.708   0.026   5.559
  232QMPE  C31523953   0.782   0.196   5.676
  232QMPE  H15X23954   0.785   0.303   5.696
  232QMPE  H15Y23955   0.725   0.197   5.766
  232QMPE  H15Z23956   0.879   0.140   5.679
  233PVCL2   C323957   1.790   5.488   7.573
  233PVCL2 HG3123958   1.884   5.442   7.535
  233PVCL2 HG3223959   1.778   5.457   7.679
  233PVCL2   P323960   1.552   5.392   7.556
  233PVCL2 OP3323961   1.502   5.494   7.651
  233PVCL2 OP3423962   1.576   5.260   7.616
  233PVCL2 OP3123963   1.685   5.439   7.490
  233PVCL2 OP3223964   1.452   5.374   7.437
  233PVCL2  C3123965   1.463   5.266   7.346
  233PVCL2 H31J23966   1.541   5.190   7.374
  233PVCL2 H31K23967   1.366   5.213   7.345
  233PVCL2   C223968   1.802   5.643   7.570
  233PVCL2 HG2223969   1.706   5.687   7.606
  233PVCL2 OG1223970   1.907   5.676   7.661
  233PVCL2 HO1223971   1.868   5.664   7.748
  233PVCL2   C123972   1.833   5.705   7.430
  233PVCL2 HG1123973   1.930   5.661   7.399
  233PVCL2 HG1223974   1.846   5.815   7.438
  233PVCL2   P123975   1.596   5.736   7.300
  233PVCL2 OP1323976   1.563   5.712   7.158
  233PVCL2 OP1423977   1.497   5.699   7.402
  233PVCL2 OP1123978   1.738   5.674   7.330
  233PVCL2 OP1223979   1.624   5.891   7.314
  233PVCL2  C1123980   1.563   5.976   7.409
  233PVCL2 H11J23981   1.620   5.969   7.504
  233PVCL2 H11K23982   1.458   5.946   7.434
  233PVCL2  C1223983   1.576   6.121   7.354
  233PVCL2 H12J23984   1.525   6.190   7.425
  233PVCL2  O1223985   1.521   6.140   7.224
  233PVCL2  CA123986   1.395   6.110   7.217
  233PVCL2  OA123987   1.321   6.081   7.309
  233PVCL2  CA223988   1.350   6.119   7.072
  233PVCL2  H2A23989   1.411   6.195   7.016
  233PVCL2  H2B23990   1.244   6.151   7.068
  233PVCL2  C1323991   1.727   6.159   7.345
  233PVCL2 H13J23992   1.770   6.119   7.439
  233PVCL2 H13K23993   1.740   6.268   7.346
  233PVCL2  O1323994   1.802   6.102   7.237
  233PVCL2  CB123995   1.801   6.171   7.122
  233PVCL2  OB123996   1.736   6.270   7.097
  233PVCL2  CB223997   1.895   6.102   7.023
  233PVCL2  H2D23998   1.991   6.084   7.076
  233PVCL2  H2E23999   1.916   6.170   6.938
  233PVCL2  C3224000   1.488   5.317   7.202
  233PVCL2 H32J24001   1.478   5.232   7.131
  233PVCL2  O3224002   1.617   5.379   7.191
  233PVCL2  CC124003   1.715   5.304   7.149
  233PVCL2  OC124004   1.707   5.187   7.114
  233PVCL2  CC224005   1.844   5.384   7.148
  233PVCL2  H2R24006   1.909   5.340   7.226
  233PVCL2  H2S24007   1.822   5.489   7.177
  233PVCL2  C3324008   1.380   5.421   7.162
  233PVCL2 H33J24009   1.283   5.366   7.171
  233PVCL2 H33K24010   1.380   5.507   7.233
  233PVCL2  O3324011   1.412   5.468   7.030
  233PVCL2  CD124012   1.329   5.445   6.932
  233PVCL2  OD124013   1.214   5.414   6.938
  233PVCL2  CD224014   1.398   5.444   6.799
  233PVCL2  H2X24015   1.501   5.408   6.822
  233PVCL2  H2Y24016   1.396   5.548   6.763
  233PVCL2  CA324017   1.369   5.977   7.020
  233PVCL2  H3A24018   1.293   5.911   7.066
  233PVCL2  H3B24019   1.469   5.939   7.053
  233PVCL2  CA424020   1.369   5.968   6.869
  233PVCL2  H4A24021   1.458   5.911   6.836
  233PVCL2  H4B24022   1.377   6.070   6.827
  233PVCL2  CA524023   1.253   5.890   6.809
  233PVCL2  H5A24024   1.157   5.941   6.837
  233PVCL2  H5B24025   1.251   5.787   6.852
  233PVCL2  CA624026   1.275   5.887   6.658
  233PVCL2  H6A24027   1.194   5.823   6.614
  233PVCL2  H6B24028   1.371   5.838   6.633
  233PVCL2  CA724029   1.284   6.032   6.602
  233PVCL2  H7A24030   1.354   6.103   6.641
  233PVCL2  H7B24031   1.184   6.068   6.641
  233PVCL2  CA824032   1.315   6.040   6.448
  233PVCL2  H8A24033   1.262   5.949   6.419
  233PVCL2  H8B24034   1.402   5.995   6.404
  233PVCL2  CA924035   1.281   6.175   6.371
  233PVCL2  H9A24036   1.324   6.262   6.424
  233PVCL2  H9B24037   1.179   6.208   6.382
  233PVCL2 CA1024038   1.289   6.184   6.213
  233PVCL2 H10A24039   1.394   6.207   6.199
  233PVCL2 H10B24040   1.230   6.280   6.193
  233PVCL2 CA1124041   1.244   6.071   6.116
  233PVCL2 H11A24042   1.148   6.020   6.120
  233PVCL2 CA1224043   1.253   6.034   5.996
  233PVCL2 H12A24044   1.177   5.967   5.953
  233PVCL2 CA1324045   1.324   6.109   5.903
  233PVCL2 H13A24046   1.382   6.186   5.958
  233PVCL2 H13B24047   1.257   6.149   5.826
  233PVCL2 CA1424048   1.390   5.971   5.892
  233PVCL2 H14A24049   1.447   5.924   5.977
  233PVCL2 H14B24050   1.473   6.025   5.854
  233PVCL2 CA1524051   1.322   5.852   5.813
  233PVCL2 H15A24052   1.220   5.823   5.845
  233PVCL2 H15B24053   1.391   5.766   5.819
  233PVCL2 CA1624054   1.301   5.882   5.669
  233PVCL2 H16A24055   1.407   5.864   5.647
  233PVCL2 H16B24056   1.259   5.985   5.666
  233PVCL2 CA1724057   1.258   5.792   5.555
  233PVCL2 H17A24058   1.154   5.770   5.582
  233PVCL2 H17B24059   1.325   5.704   5.556
  233PVCL2 CA1824060   1.265   5.851   5.414
  233PVCL2 H18A24061   1.367   5.866   5.371
  233PVCL2 H18B24062   1.215   5.951   5.410
  233PVCL2 H18C24063   1.225   5.783   5.339
  233PVCL2  CB324064   1.836   5.966   6.978
  233PVCL2  H3D24065   1.813   5.908   7.071
  233PVCL2  H3E24066   1.913   5.911   6.919
  233PVCL2  CB424067   1.706   5.967   6.896
  233PVCL2  H4D24068   1.641   6.055   6.914
  233PVCL2  H4E24069   1.651   5.877   6.934
  233PVCL2  CB524070   1.723   5.937   6.747
  233PVCL2  H5D24071   1.622   5.945   6.699
  233PVCL2  H5E24072   1.755   5.831   6.740
  233PVCL2  CB624073   1.818   6.030   6.670
  233PVCL2  H6D24074   1.837   5.986   6.569
  233PVCL2  H6E24075   1.917   6.035   6.721
  233PVCL2  CB724076   1.756   6.169   6.657
  233PVCL2  H7D24077   1.732   6.213   6.756
  233PVCL2  H7E24078   1.665   6.168   6.593
  233PVCL2  CB824079   1.842   6.269   6.588
  233PVCL2  H8D24080   1.942   6.280   6.641
  233PVCL2  H8E24081   1.792   6.367   6.585
  233PVCL2  CB924082   1.861   6.230   6.442
  233PVCL2  H9D24083   1.922   6.138   6.440
  233PVCL2  H9E24084   1.939   6.310   6.449
  233PVCL2 CB1024085   1.750   6.241   6.314
  233PVCL2 H10D24086   1.689   6.329   6.338
  233PVCL2 H10E24087   1.705   6.141   6.324
  233PVCL2 CB1124088   1.762   6.243   6.143
  233PVCL2 H11D24089   1.839   6.301   6.084
  233PVCL2 H11E24090   1.699   6.314   6.089
  233PVCL2 CB1224091   1.812   6.107   6.086
  233PVCL2 H12D24092   1.748   6.031   6.126
  233PVCL2 H12E24093   1.908   6.073   6.124
  233PVCL2 CB1324094   1.827   6.090   5.938
  233PVCL2 H13D24095   1.894   6.009   5.904
  233PVCL2 H13E24096   1.864   6.174   5.885
  233PVCL2 CB1424097   1.706   6.127   5.869
  233PVCL2 H14D24098   1.671   6.228   5.902
  233PVCL2 H14E24099   1.643   6.047   5.905
  233PVCL2 CB1524100   1.752   6.135   5.725
  233PVCL2 H15D24101   1.791   6.226   5.691
  233PVCL2 H15E24102   1.677   6.197   5.678
  233PVCL2 CB1624103   1.807   6.003   5.663
  233PVCL2 H16D24104   1.791   5.996   5.553
  233PVCL2 H16E24105   1.744   5.922   5.706
  233PVCL2 H16F24106   1.913   5.980   5.685
  233PVCL2  CC324107   1.917   5.386   7.011
  233PVCL2  H3R24108   1.913   5.287   6.959
  233PVCL2  H3S24109   2.023   5.412   7.031
  233PVCL2  CC424110   1.855   5.491   6.919
  233PVCL2  H4R24111   1.844   5.586   6.976
  233PVCL2  H4S24112   1.753   5.455   6.891
  233PVCL2  CC524113   1.933   5.520   6.790
  233PVCL2  H5R24114   1.865   5.586   6.731
  233PVCL2  H5S24115   1.952   5.427   6.732
  233PVCL2  CC624116   2.063   5.597   6.817
  233PVCL2  H6R24117   2.135   5.534   6.875
  233PVCL2  H6S24118   2.035   5.686   6.878
  233PVCL2  CC724119   2.138   5.638   6.692
  233PVCL2  H7R24120   2.183   5.547   6.647
  233PVCL2  H7S24121   2.223   5.708   6.714
  233PVCL2  CC824122   2.052   5.701   6.585
  233PVCL2  H8R24123   1.986   5.782   6.625
  233PVCL2  H8S24124   1.988   5.624   6.536
  233PVCL2  CC924125   2.144   5.754   6.479
  233PVCL2  H9R24126   2.197   5.838   6.530
  233PVCL2  H9S24127   2.072   5.801   6.410
  233PVCL2 CC1024128   2.252   5.654   6.422
  233PVCL2 H10R24129   2.325   5.637   6.503
  233PVCL2 H10S24130   2.321   5.708   6.355
  233PVCL2 CC1124131   2.210   5.518   6.362
  233PVCL2 H11R24132   2.121   5.482   6.414
  233PVCL2 CC1224133   2.248   5.447   6.251
  233PVCL2 H12R24134   2.185   5.365   6.215
  233PVCL2 CC1324135   2.350   5.484   6.146
  233PVCL2 H13R24136   2.421   5.557   6.192
  233PVCL2 H13S24137   2.303   5.525   6.052
  233PVCL2 CC1424138   2.447   5.390   6.092
  233PVCL2 H14R24139   2.494   5.347   6.181
  233PVCL2 H14S24140   2.521   5.448   6.030
  233PVCL2 CC1524141   2.376   5.294   6.005
  233PVCL2 H15R24142   2.282   5.248   6.043
  233PVCL2 H15S24143   2.454   5.217   5.988
  233PVCL2 CC1624144   2.347   5.361   5.876
  233PVCL2 H16R24145   2.443   5.371   5.820
  233PVCL2 H16S24146   2.279   5.450   5.874
  233PVCL2 CC1724147   2.282   5.275   5.787
  233PVCL2 H17R24148   2.267   5.349   5.707
  233PVCL2 H17S24149   2.186   5.235   5.833
  233PVCL2 CC1824150   2.383   5.179   5.737
  233PVCL2 H18R24151   2.416   5.130   5.828
  233PVCL2 H18S24152   2.461   5.190   5.664
  233PVCL2 H18T24153   2.335   5.111   5.669
  233PVCL2  CD324154   1.334   5.341   6.702
  233PVCL2  H3X24155   1.238   5.375   6.656
  233PVCL2  H3Y24156   1.309   5.247   6.757
  233PVCL2  CD424157   1.431   5.304   6.589
  233PVCL2  H4X24158   1.380   5.234   6.520
  233PVCL2  H4Y24159   1.519   5.250   6.630
  233PVCL2  CD524160   1.483   5.426   6.511
  233PVCL2  H5X24161   1.553   5.388   6.434
  233PVCL2  H5Y24162   1.541   5.490   6.581
  233PVCL2  CD624163   1.376   5.516   6.446
  233PVCL2  H6X24164   1.295   5.535   6.520
  233PVCL2  H6Y24165   1.330   5.467   6.357
  233PVCL2  CD724166   1.434   5.651   6.399
  233PVCL2  H7X24167   1.491   5.697   6.482
  233PVCL2  H7Y24168   1.349   5.719   6.375
  233PVCL2  CD824169   1.523   5.634   6.275
  233PVCL2  H8X24170   1.469   5.571   6.199
  233PVCL2  H8Y24171   1.614   5.577   6.305
  233PVCL2  CD924172   1.566   5.765   6.207
  233PVCL2  H9X24173   1.645   5.812   6.270
  233PVCL2  H9Y24174   1.480   5.834   6.196
  233PVCL2 CD1024175   1.627   5.745   6.069
  233PVCL2 H10X24176   1.677   5.839   6.035
  233PVCL2 H10Y24177   1.549   5.722   5.992
  233PVCL2 CD1124178   1.729   5.634   6.077
  233PVCL2 H11X24179   1.675   5.537   6.092
  233PVCL2 H11Y24180   1.807   5.649   6.153
  233PVCL2 CD1224181   1.795   5.622   5.944
  233PVCL2 H12X24182   1.718   5.668   5.880
  233PVCL2 H12Y24183   1.820   5.514   5.931
  233PVCL2 CD1324184   1.909   5.710   5.899
  233PVCL2 H13X24185   1.971   5.670   5.980
  233PVCL2 H13Y24186   1.875   5.815   5.910
  233PVCL2 CD1424187   1.981   5.693   5.764
  233PVCL2 H14X24188   2.065   5.765   5.757
  233PVCL2 H14Y24189   1.925   5.733   5.679
  233PVCL2 CD1524190   2.032   5.554   5.720
  233PVCL2 H15X24191   1.958   5.475   5.698
  233PVCL2 H15Y24192   2.095   5.514   5.801
  233PVCL2 CD1624193   2.104   5.580   5.589
  233PVCL2 H16X24194   2.040   5.617   5.507
  233PVCL2 H16Y24195   2.165   5.497   5.551
  233PVCL2 H16Z24196   2.168   5.665   5.614
  234PVCL2   C324197   0.723   1.472   7.401
  234PVCL2 HG3124198   0.626   1.524   7.414
  234PVCL2 HG3224199   0.799   1.541   7.359
  234PVCL2   P324200   0.654   1.368   7.169
  234PVCL2 OP3324201   0.768   1.382   7.076
  234PVCL2 OP3424202   0.543   1.465   7.156
  234PVCL2 OP3124203   0.706   1.357   7.318
  234PVCL2 OP3224204   0.590   1.224   7.153
  234PVCL2  C3124205   0.468   1.191   7.220
  234PVCL2 H31J24206   0.484   1.182   7.330
  234PVCL2 H31K24207   0.391   1.270   7.205
  234PVCL2   C224208   0.768   1.431   7.544
  234PVCL2 HG2224209   0.870   1.386   7.536
  234PVCL2 OG1224210   0.772   1.546   7.629
  234PVCL2 HO1224211   0.767   1.512   7.719
  234PVCL2   C124212   0.665   1.329   7.598
  234PVCL2 HG1124213   0.645   1.253   7.520
  234PVCL2 HG1224214   0.571   1.386   7.613
  234PVCL2   P124215   0.800   1.144   7.725
  234PVCL2 OP1324216   0.926   1.183   7.792
  234PVCL2 OP1424217   0.729   1.025   7.777
  234PVCL2 OP1124218   0.701   1.268   7.721
  234PVCL2 OP1224219   0.833   1.116   7.572
  234PVCL2  C1124220   0.917   1.005   7.539
  234PVCL2 H11J24221   0.860   0.910   7.548
  234PVCL2 H11K24222   1.003   0.999   7.611
  234PVCL2  C1224223   0.972   1.017   7.394
  234PVCL2 H12J24224   1.051   0.941   7.376
  234PVCL2  O1224225   1.021   1.149   7.371
  234PVCL2  CA124226   1.132   1.173   7.430
  234PVCL2  OA124227   1.209   1.095   7.484
  234PVCL2  CA224228   1.161   1.318   7.402
  234PVCL2  H2A24229   1.158   1.374   7.499
  234PVCL2  H2B24230   1.100   1.370   7.327
  234PVCL2  C1324231   0.867   0.991   7.283
  234PVCL2 H13J24232   0.785   1.066   7.296
  234PVCL2 H13K24233   0.821   0.891   7.297
  234PVCL2  O1324234   0.926   1.008   7.152
  234PVCL2  CB124235   0.995   0.908   7.102
  234PVCL2  OB124236   1.012   0.799   7.152
  234PVCL2  CB224237   1.036   0.943   6.959
  234PVCL2  H2D24238   1.143   0.918   6.942
  234PVCL2  H2E24239   1.023   1.052   6.944
  234PVCL2  C3224240   0.406   1.057   7.166
  234PVCL2 H32J24241   0.331   1.021   7.240
  234PVCL2  O3224242   0.508   0.959   7.137
  234PVCL2  CC124243   0.471   0.832   7.150
  234PVCL2  OC124244   0.365   0.795   7.196
  234PVCL2  CC224245   0.586   0.740   7.109
  234PVCL2  H2R24246   0.584   0.652   7.175
  234PVCL2  H2S24247   0.681   0.795   7.122
  234PVCL2  C3324248   0.330   1.089   7.036
  234PVCL2 H33J24249   0.288   0.999   6.987
  234PVCL2 H33K24250   0.243   1.153   7.067
  234PVCL2  O3324251   0.410   1.171   6.951
  234PVCL2  CD124252   0.498   1.123   6.867
  234PVCL2  OD124253   0.512   1.006   6.834
  234PVCL2  CD224254   0.566   1.243   6.804
  234PVCL2  H2X24255   0.562   1.328   6.876
  234PVCL2  H2Y24256   0.514   1.276   6.712
  234PVCL2  CA324257   1.299   1.319   7.345
  234PVCL2  H3A24258   1.360   1.267   7.420
  234PVCL2  H3B24259   1.308   1.429   7.349
  234PVCL2  CA424260   1.326   1.263   7.202
  234PVCL2  H4A24261   1.300   1.156   7.203
  234PVCL2  H4B24262   1.434   1.265   7.173
  234PVCL2  CA524263   1.250   1.340   7.093
  234PVCL2  H5A24264   1.281   1.447   7.091
  234PVCL2  H5B24265   1.142   1.335   7.122
  234PVCL2  CA624266   1.254   1.281   6.951
  234PVCL2  H6A24267   1.179   1.334   6.888
  234PVCL2  H6B24268   1.222   1.175   6.961
  234PVCL2  CA724269   1.389   1.284   6.879
  234PVCL2  H7A24270   1.455   1.211   6.931
  234PVCL2  H7B24271   1.435   1.384   6.890
  234PVCL2  CA824272   1.382   1.251   6.728
  234PVCL2  H8A24273   1.488   1.243   6.695
  234PVCL2  H8B24274   1.332   1.334   6.673
  234PVCL2  CA924275   1.310   1.121   6.687
  234PVCL2  H9A24276   1.223   1.100   6.752
  234PVCL2  H9B24277   1.381   1.038   6.701
  234PVCL2 CA1024278   1.257   1.112   6.542
  234PVCL2 H10A24279   1.170   1.175   6.523
  234PVCL2 H10B24280   1.226   1.006   6.530
  234PVCL2 CA1124281   1.334   1.154   6.424
  234PVCL2 H11A24282   1.369   1.258   6.412
  234PVCL2 CA1224283   1.386   1.064   6.347
  234PVCL2 H12A24284   1.455   1.083   6.270
  234PVCL2 CA1324285   1.395   0.923   6.341
  234PVCL2 H13A24286   1.331   0.865   6.409
  234PVCL2 H13B24287   1.491   0.921   6.375
  234PVCL2 CA1424288   1.428   0.883   6.202
  234PVCL2 H14A24289   1.499   0.797   6.205
  234PVCL2 H14B24290   1.488   0.932   6.125
  234PVCL2 CA1524291   1.286   0.881   6.160
  234PVCL2 H15A24292   1.233   0.974   6.191
  234PVCL2 H15B24293   1.231   0.808   6.221
  234PVCL2 CA1624294   1.279   0.894   6.012
  234PVCL2 H16A24295   1.338   0.978   5.977
  234PVCL2 H16B24296   1.174   0.918   5.991
  234PVCL2 CA1724297   1.344   0.787   5.926
  234PVCL2 H17A24298   1.256   0.744   5.940
  234PVCL2 H17B24299   1.413   0.718   5.983
  234PVCL2 CA1824300   1.288   0.759   5.785
  234PVCL2 H18A24301   1.370   0.761   5.723
  234PVCL2 H18B24302   1.189   0.807   5.768
  234PVCL2 H18C24303   1.275   0.659   5.742
  234PVCL2  CB324304   0.943   0.865   6.864
  234PVCL2  H3D24305   0.838   0.873   6.902
  234PVCL2  H3E24306   0.971   0.757   6.860
  234PVCL2  CB424307   0.945   0.922   6.723
  234PVCL2  H4D24308   1.049   0.956   6.704
  234PVCL2  H4E24309   0.878   1.010   6.719
  234PVCL2  CB524310   0.909   0.823   6.611
  234PVCL2  H5D24311   0.801   0.797   6.616
  234PVCL2  H5E24312   0.967   0.730   6.630
  234PVCL2  CB624313   0.953   0.882   6.475
  234PVCL2  H6D24314   1.064   0.878   6.480
  234PVCL2  H6E24315   0.925   0.989   6.468
  234PVCL2  CB724316   0.911   0.809   6.346
  234PVCL2  H7D24317   0.933   0.700   6.354
  234PVCL2  H7E24318   0.975   0.848   6.263
  234PVCL2  CB824319   0.765   0.829   6.303
  234PVCL2  H8D24320   0.741   0.938   6.298
  234PVCL2  H8E24321   0.699   0.784   6.379
  234PVCL2  CB924322   0.737   0.765   6.166
  234PVCL2  H9D24323   0.747   0.655   6.173
  234PVCL2  H9E24324   0.810   0.802   6.091
  234PVCL2 CB1024325   0.596   0.794   6.116
  234PVCL2 H10D24326   0.578   0.904   6.110
  234PVCL2 H10E24327   0.525   0.754   6.190
  234PVCL2 CB1124328   0.567   0.733   5.980
  234PVCL2 H11D24329   0.564   0.622   5.982
  234PVCL2 H11E24330   0.648   0.766   5.912
  234PVCL2 CB1224331   0.432   0.782   5.929
  234PVCL2 H12D24332   0.434   0.892   5.913
  234PVCL2 H12E24333   0.358   0.757   6.008
  234PVCL2 CB1324334   0.387   0.717   5.801
  234PVCL2 H13D24335   0.278   0.734   5.794
  234PVCL2 H13E24336   0.403   0.606   5.805
  234PVCL2 CB1424337   0.449   0.789   5.681
  234PVCL2 H14D24338   0.455   0.897   5.693
  234PVCL2 H14E24339   0.395   0.774   5.585
  234PVCL2 CB1524340   0.584   0.736   5.649
  234PVCL2 H15D24341   0.543   0.640   5.617
  234PVCL2 H15E24342   0.652   0.708   5.730
  234PVCL2 CB1624343   0.655   0.814   5.540
  234PVCL2 H16D24344   0.668   0.920   5.566
  234PVCL2 H16E24345   0.598   0.807   5.444
  234PVCL2 H16F24346   0.757   0.772   5.524
  234PVCL2  CC324347   0.580   0.698   6.961
  234PVCL2  H3R24348   0.670   0.640   6.931
  234PVCL2  H3S24349   0.579   0.788   6.896
  234PVCL2  CC424350   0.458   0.617   6.927
  234PVCL2  H4R24351   0.362   0.674   6.943
  234PVCL2  H4S24352   0.447   0.517   6.974
  234PVCL2  CC524353   0.465   0.591   6.784
  234PVCL2  H5R24354   0.558   0.546   6.743
  234PVCL2  H5S24355   0.460   0.693   6.736
  234PVCL2  CC624356   0.344   0.510   6.757
  234PVCL2  H6R24357   0.260   0.493   6.827
  234PVCL2  H6S24358   0.340   0.407   6.738
  234PVCL2  CC724359   0.312   0.558   6.625
  234PVCL2  H7R24360   0.282   0.647   6.674
  234PVCL2  H7S24361   0.229   0.486   6.596
  234PVCL2  CC824362   0.396   0.641   6.514
  234PVCL2  H8R24363   0.410   0.538   6.497
  234PVCL2  H8S24364   0.481   0.696   6.548
  234PVCL2  CC924365   0.350   0.721   6.375
  234PVCL2  H9R24366   0.304   0.615   6.375
  234PVCL2  H9S24367   0.382   0.672   6.281
  234PVCL2 CC1024368   0.231   0.867   6.353
  234PVCL2 H10R24369   0.116   0.877   6.381
  234PVCL2 H10S24370   0.123   0.881   6.303
  234PVCL2 CC1124371   0.295   0.964   6.409
  234PVCL2 H11R24372   0.330   0.955   6.510
  234PVCL2 CC1224373   0.285   1.055   6.324
  234PVCL2 H12R24374   0.361   1.127   6.343
  234PVCL2 CC1324375   0.208   1.041   6.190
  234PVCL2 H13R24376   0.117   1.105   6.187
  234PVCL2 H13S24377   0.173   0.944   6.140
  234PVCL2 CC1424378   0.311   1.087   6.110
  234PVCL2 H14R24379   0.399   1.022   6.097
  234PVCL2 H14S24380   0.339   1.188   6.155
  234PVCL2 CC1524381   0.242   1.100   5.984
  234PVCL2 H15R24382   0.143   1.156   5.995
  234PVCL2 H15S24383   0.224   1.011   5.920
  234PVCL2 CC1624384   0.344   1.181   5.928
  234PVCL2 H16R24385   0.432   1.143   5.875
  234PVCL2 H16S24386   0.388   1.257   6.004
  234PVCL2 CC1724387   0.244   1.218   5.829
  234PVCL2 H17R24388   0.293   1.305   5.871
  234PVCL2 H17S24389   0.146   1.264   5.829
  234PVCL2 CC1824390   0.251   1.137   5.700
  234PVCL2 H18R24391   0.342   1.083   5.669
  234PVCL2 H18S24392   0.274   1.195   5.615
  234PVCL2 H18T24393   0.149   1.108   5.670
  234PVCL2  CD324394   0.713   1.214   6.773
  234PVCL2  H3X24395   0.718   1.132   6.698
  234PVCL2  H3Y24396   0.769   1.185   6.865
  234PVCL2  CD424397   0.776   1.338   6.712
  234PVCL2  H4X24398   0.745   1.429   6.768
  234PVCL2  H4Y24399   0.731   1.345   6.610
  234PVCL2  CD524400   0.929   1.330   6.709
  234PVCL2  H5X24401   0.965   1.238   6.657
  234PVCL2  H5Y24402   0.969   1.329   6.812
  234PVCL2  CD624403   0.988   1.450   6.640
  234PVCL2  H6X24404   1.099   1.440   6.636
  234PVCL2  H6Y24405   0.964   1.542   6.698
  234PVCL2  CD724406   0.928   1.465   6.502
  234PVCL2  H7X24407   0.966   1.558   6.474
  234PVCL2  H7Y24408   0.821   1.491   6.496
  234PVCL2  CD824409   0.983   1.373   6.393
  234PVCL2  H8X24410   0.972   1.270   6.430
  234PVCL2  H8Y24411   1.093   1.382   6.383
  234PVCL2  CD924412   0.917   1.406   6.256
  234PVCL2  H9X24413   0.931   1.507   6.211
  234PVCL2  H9Y24414   0.808   1.410   6.271
  234PVCL2 CD1024415   0.968   1.315   6.148
  234PVCL2 H10X24416   1.076   1.290   6.161
  234PVCL2 H10Y24417   0.961   1.368   6.050
  234PVCL2 CD1124418   0.882   1.190   6.155
  234PVCL2 H11X24419   0.900   1.142   6.254
  234PVCL2 H11Y24420   0.917   1.121   6.076
  234PVCL2 CD1224421   0.730   1.210   6.142
  234PVCL2 H12X24422   0.686   1.266   6.227
  234PVCL2 H12Y24423   0.688   1.108   6.146
  234PVCL2 CD1324424   0.684   1.274   6.011
  234PVCL2 H13X24425   0.708   1.383   6.006
  234PVCL2 H13Y24426   0.575   1.264   6.005
  234PVCL2 CD1424427   0.746   1.207   5.888
  234PVCL2 H14X24428   0.717   1.100   5.886
  234PVCL2 H14Y24429   0.856   1.215   5.897
  234PVCL2 CD1524430   0.715   1.285   5.761
  234PVCL2 H15X24431   0.772   1.380   5.758
  234PVCL2 H15Y24432   0.620   1.329   5.773
  234PVCL2 CD1624433   0.721   1.213   5.628
  234PVCL2 H16X24434   0.822   1.168   5.620
  234PVCL2 H16Y24435   0.705   1.288   5.547
  234PVCL2 H16Z24436   0.642   1.136   5.616
  235PVCL2   C324437   3.167   5.410   3.632
  235PVCL2 HG3124438   3.149   5.301   3.619
  235PVCL2 HG3224439   3.258   5.419   3.694
  235PVCL2   P324440   2.913   5.417   3.726
  235PVCL2 OP3324441   2.860   5.360   3.599
  235PVCL2 OP3424442   2.833   5.512   3.805
  235PVCL2 OP3124443   3.060   5.474   3.701
  235PVCL2 OP3224444   2.937   5.294   3.819
  235PVCL2  C3124445   3.028   5.293   3.925
  235PVCL2 H31J24446   3.125   5.316   3.875
  235PVCL2 H31K24447   3.005   5.362   4.008
  235PVCL2   C224448   3.198   5.472   3.492
  235PVCL2 HG2224449   3.222   5.580   3.503
  235PVCL2 OG1224450   3.316   5.409   3.438
  235PVCL2 HO1224451   3.288   5.325   3.401
  235PVCL2   C124452   3.075   5.460   3.397
  235PVCL2 HG1124453   2.982   5.496   3.446
  235PVCL2 HG1224454   3.052   5.355   3.380
  235PVCL2   P124455   3.060   5.672   3.248
  235PVCL2 OP1324456   3.170   5.737   3.176
  235PVCL2 OP1424457   2.924   5.679   3.190
  235PVCL2 OP1124458   3.094   5.520   3.269
  235PVCL2 OP1224459   3.053   5.729   3.395
  235PVCL2  C1124460   3.034   5.868   3.417
  235PVCL2 H11J24461   2.942   5.904   3.364
  235PVCL2 H11K24462   3.123   5.925   3.382
  235PVCL2  C1224463   3.011   5.898   3.566
  235PVCL2 H12J24464   3.001   6.006   3.579
  235PVCL2  O1224465   3.119   5.850   3.649
  235PVCL2  CA124466   3.229   5.922   3.637
  235PVCL2  OA124467   3.233   6.028   3.576
  235PVCL2  CA224468   3.341   5.869   3.729
  235PVCL2  H2A24469   3.399   5.956   3.763
  235PVCL2  H2B24470   3.411   5.810   3.666
  235PVCL2  C1324471   2.876   5.838   3.609
  235PVCL2 H13J24472   2.872   5.729   3.587
  235PVCL2 H13K24473   2.796   5.887   3.548
  235PVCL2  O1324474   2.858   5.865   3.747
  235PVCL2  CB124475   2.736   5.873   3.791
  235PVCL2  OB124476   2.632   5.870   3.726
  235PVCL2  CB224477   2.754   5.936   3.925
  235PVCL2  H2D24478   2.785   6.042   3.909
  235PVCL2  H2E24479   2.827   5.886   3.990
  235PVCL2  C3224480   3.019   5.155   3.995
  235PVCL2 H32J24481   3.046   5.099   3.903
  235PVCL2  O3224482   2.885   5.128   4.033
  235PVCL2  CC124483   2.804   5.078   3.943
  235PVCL2  OC124484   2.824   5.067   3.824
  235PVCL2  CC224485   2.702   4.992   4.020
  235PVCL2  H2R24486   2.672   4.907   3.955
  235PVCL2  H2S24487   2.621   5.063   4.025
  235PVCL2  C3324488   3.104   5.120   4.127
  235PVCL2 H33J24489   3.154   5.025   4.154
  235PVCL2 H33K24490   3.209   5.098   4.119
  235PVCL2  O3324491   3.093   5.213   4.233
  235PVCL2  CD124492   3.080   5.136   4.338
  235PVCL2  OD124493   3.077   5.017   4.342
  235PVCL2  CD224494   3.092   5.218   4.454
  235PVCL2  H2X24495   3.028   5.304   4.430
  235PVCL2  H2Y24496   3.200   5.240   4.459
  235PVCL2  CA324497   3.291   5.776   3.843
  235PVCL2  H3A24498   3.375   5.719   3.889
  235PVCL2  H3B24499   3.225   5.699   3.796
  235PVCL2  CA424500   3.207   5.839   3.955
  235PVCL2  H4A24501   3.152   5.929   3.920
  235PVCL2  H4B24502   3.266   5.870   4.041
  235PVCL2  CA524503   3.111   5.737   4.016
  235PVCL2  H5A24504   3.043   5.703   3.934
  235PVCL2  H5B24505   3.050   5.786   4.096
  235PVCL2  CA624506   3.182   5.615   4.076
  235PVCL2  H6A24507   3.288   5.640   4.100
  235PVCL2  H6B24508   3.183   5.539   3.995
  235PVCL2  CA724509   3.114   5.555   4.201
  235PVCL2  H7A24510   3.156   5.454   4.222
  235PVCL2  H7B24511   3.005   5.541   4.181
  235PVCL2  CA824512   3.129   5.643   4.325
  235PVCL2  H8A24513   3.076   5.738   4.302
  235PVCL2  H8B24514   3.237   5.667   4.343
  235PVCL2  CA924515   3.066   5.585   4.452
  235PVCL2  H9A24516   3.115   5.488   4.477
  235PVCL2  H9B24517   2.958   5.568   4.433
  235PVCL2 CA1024518   3.080   5.680   4.571
  235PVCL2 H10A24519   3.029   5.776   4.548
  235PVCL2 H10B24520   3.188   5.703   4.582
  235PVCL2 CA1124521   3.020   5.614   4.693
  235PVCL2 H11A24522   2.921   5.569   4.679
  235PVCL2 CA1224523   3.079   5.610   4.814
  235PVCL2 H12A24524   3.033   5.552   4.896
  235PVCL2 CA1324525   3.214   5.673   4.842
  235PVCL2 H13A24526   3.231   5.679   4.953
  235PVCL2 H13B24527   3.233   5.767   4.790
  235PVCL2 CA1424528   3.331   5.605   4.783
  235PVCL2 H14A24529   3.437   5.631   4.802
  235PVCL2 H14B24530   3.314   5.571   4.676
  235PVCL2 CA1524531   3.328   5.500   4.876
  235PVCL2 H15A24532   3.386   5.446   4.795
  235PVCL2 H15B24533   3.260   5.425   4.821
  235PVCL2 CA1624534   3.382   5.494   5.050
  235PVCL2 H16A24535   3.414   5.395   5.100
  235PVCL2 H16B24536   3.309   5.471   5.133
  235PVCL2 CA1724537   3.522   5.513   5.109
  235PVCL2 H17A24538   3.490   5.611   5.070
  235PVCL2 H17B24539   3.615   5.480   5.064
  235PVCL2 CA1824540   3.524   5.460   5.256
  235PVCL2 H18A24541   3.498   5.357   5.291
  235PVCL2 H18B24542   3.422   5.474   5.282
  235PVCL2 H18C24543   3.576   5.530   5.323
  235PVCL2  CB324544   2.621   5.940   3.994
  235PVCL2  H3D24545   2.543   5.989   3.930
  235PVCL2  H3E24546   2.651   6.008   4.078
  235PVCL2  CB424547   2.568   5.811   4.058
  235PVCL2  H4D24548   2.637   5.728   4.037
  235PVCL2  H4E24549   2.478   5.778   4.006
  235PVCL2  CB524550   2.543   5.822   4.210
  235PVCL2  H5D24551   2.455   5.876   4.241
  235PVCL2  H5E24552   2.623   5.881   4.257
  235PVCL2  CB624553   2.520   5.692   4.285
  235PVCL2  H6D24554   2.615   5.636   4.278
  235PVCL2  H6E24555   2.435   5.633   4.245
  235PVCL2  CB724556   2.492   5.722   4.433
  235PVCL2  H7D24557   2.392   5.767   4.449
  235PVCL2  H7E24558   2.569   5.795   4.467
  235PVCL2  CB824559   2.507   5.592   4.510
  235PVCL2  H8D24560   2.605   5.549   4.480
  235PVCL2  H8E24561   2.427   5.521   4.480
  235PVCL2  CB924562   2.508   5.605   4.662
  235PVCL2  H9D24563   2.408   5.634   4.702
  235PVCL2  H9E24564   2.579   5.686   4.689
  235PVCL2 CB1024565   2.556   5.471   4.718
  235PVCL2 H10D24566   2.650   5.443   4.665
  235PVCL2 H10E24567   2.481   5.391   4.695
  235PVCL2 CB1124568   2.583   5.473   4.868
  235PVCL2 H11D24569   2.647   5.562   4.890
  235PVCL2 H11E24570   2.640   5.382   4.896
  235PVCL2 CB1224571   2.452   5.473   4.947
  235PVCL2 H12D24572   2.393   5.385   4.915
  235PVCL2 H12E24573   2.395   5.565   4.924
  235PVCL2 CB1324574   2.467   5.463   5.099
  235PVCL2 H13D24575   2.377   5.510   5.145
  235PVCL2 H13E24576   2.556   5.522   5.129
  235PVCL2 CB1424577   2.480   5.321   5.154
  235PVCL2 H14D24578   2.561   5.264   5.107
  235PVCL2 H14E24579   2.396   5.262   5.119
  235PVCL2 CB1524580   2.498   5.318   5.306
  235PVCL2 H15D24581   2.423   5.383   5.356
  235PVCL2 H15E24582   2.596   5.360   5.334
  235PVCL2 CB1624583   2.493   5.176   5.361
  235PVCL2 H16D24584   2.405   5.130   5.317
  235PVCL2 H16E24585   2.489   5.175   5.472
  235PVCL2 H16F24586   2.576   5.113   5.326
  235PVCL2  CC324587   2.747   4.936   4.160
  235PVCL2  H3R24588   2.839   4.986   4.200
  235PVCL2  H3S24589   2.771   4.828   4.156
  235PVCL2  CC424590   2.645   4.929   4.267
  235PVCL2  H4R24591   2.701   4.912   4.362
  235PVCL2  H4S24592   2.579   4.842   4.246
  235PVCL2  CC524593   2.568   5.056   4.267
  235PVCL2  H5R24594   2.498   5.057   4.179
  235PVCL2  H5S24595   2.633   5.145   4.259
  235PVCL2  CC624596   2.483   5.064   4.390
  235PVCL2  H6R24597   2.401   4.988   4.384
  235PVCL2  H6S24598   2.447   5.169   4.379
  235PVCL2  CC724599   2.545   5.053   4.527
  235PVCL2  H7R24600   2.605   5.144   4.549
  235PVCL2  H7S24601   2.611   4.965   4.536
  235PVCL2  CC824602   2.439   5.035   4.635
  235PVCL2  H8R24603   2.393   4.934   4.625
  235PVCL2  H8S24604   2.358   5.107   4.626
  235PVCL2  CC924605   2.499   5.063   4.771
  235PVCL2  H9R24606   2.524   5.170   4.782
  235PVCL2  H9S24607   2.595   5.013   4.780
  235PVCL2 CC1024608   2.406   5.021   4.883
  235PVCL2 H10R24609   2.333   5.088   4.842
  235PVCL2 H10S24610   2.442   5.056   4.982
  235PVCL2 CC1124611   2.331   4.893   4.900
  235PVCL2 H11R24612   2.290   4.853   4.807
  235PVCL2 CC1224613   2.338   4.817   5.009
  235PVCL2 H12R24614   2.320   4.710   4.986
  235PVCL2 CC1324615   2.427   4.853   5.126
  235PVCL2 H13R24616   2.448   4.781   5.197
  235PVCL2 H13S24617   2.450   4.955   5.165
  235PVCL2 CC1424618   2.539   4.765   5.144
  235PVCL2 H14R24619   2.636   4.812   5.199
  235PVCL2 H14S24620   2.626   4.847   5.122
  235PVCL2 CC1524621   2.536   4.559   5.065
  235PVCL2 H15R24622   2.495   4.529   4.975
  235PVCL2 H15S24623   2.554   4.472   5.118
  235PVCL2 CC1624624   2.673   4.429   5.064
  235PVCL2 H16R24625   2.751   4.455   5.137
  235PVCL2 H16S24626   2.738   4.452   4.987
  235PVCL2 CC1724627   2.677   4.259   5.078
  235PVCL2 H17R24628   2.592   4.247   5.016
  235PVCL2 H17S24629   2.656   4.284   5.184
  235PVCL2 CC1824630   2.789   4.120   5.050
  235PVCL2 H18R24631   2.898   4.110   5.087
  235PVCL2 H18S24632   2.898   4.130   5.017
  235PVCL2 H18T24633   2.770   4.021   5.073
  235PVCL2  CD324634   3.052   5.138   4.577
  235PVCL2  H3X24635   3.107   5.194   4.656
  235PVCL2  H3Y24636   3.089   5.033   4.576
  235PVCL2  CD424637   2.902   5.140   4.599
  235PVCL2  H4X24638   2.854   5.084   4.516
  235PVCL2  H4Y24639   2.861   5.244   4.598
  235PVCL2  CD524640   2.860   5.077   4.730
  235PVCL2  H5X24641   2.872   4.967   4.734
  235PVCL2  H5Y24642   2.752   5.095   4.740
  235PVCL2  CD624643   2.916   5.147   4.853
  235PVCL2  H6X24644   2.887   5.254   4.846
  235PVCL2  H6Y24645   3.027   5.143   4.855
  235PVCL2  CD724646   2.844   5.079   4.970
  235PVCL2  H7X24647   2.867   4.969   4.963
  235PVCL2  H7Y24648   2.736   5.096   4.969
  235PVCL2  CD824649   2.884   5.122   5.107
  235PVCL2  H8X24650   2.975   5.058   5.092
  235PVCL2  H8Y24651   2.845   5.074   5.198
  235PVCL2  CD924652   2.904   5.273   5.131
  235PVCL2  H9X24653   2.965   5.323   5.051
  235PVCL2  H9Y24654   2.953   5.278   5.232
  235PVCL2 CD1024655   2.794   5.357   5.177
  235PVCL2 H10X24656   2.768   5.310   5.275
  235PVCL2 H10Y24657   2.726   5.344   5.093
  235PVCL2 CD1124658   2.823   5.505   5.197
  235PVCL2 H11X24659   2.726   5.552   5.220
  235PVCL2 H11Y24660   2.865   5.549   5.104
  235PVCL2 CD1224661   2.908   5.537   5.319
  235PVCL2 H12X24662   3.005   5.495   5.287
  235PVCL2 H12Y24663   2.876   5.483   5.410
  235PVCL2 CD1324664   2.904   5.687   5.354
  235PVCL2 H13X24665   2.956   5.706   5.451
  235PVCL2 H13Y24666   2.799   5.714   5.372
  235PVCL2 CD1424667   2.952   5.778   5.243
  235PVCL2 H14X24668   2.914   5.880   5.253
  235PVCL2 H14Y24669   2.929   5.741   5.140
  235PVCL2 CD1524670   3.099   5.786   5.252
  235PVCL2 H15X24671   3.146   5.835   5.163
  235PVCL2 H15Y24672   3.125   5.679   5.238
  235PVCL2 CD1624673   3.159   5.832   5.387
  235PVCL2 H16X24674   3.267   5.853   5.394
  235PVCL2 H16Y24675   3.120   5.809   5.485
  235PVCL2 H16Z24676   3.189   5.926   5.386
  236PVCL2   C324677   3.731   1.637   3.468
  236PVCL2 HG3124678   3.806   1.718   3.483
  236PVCL2 HG3224679   3.636   1.674   3.513
  236PVCL2   P324680   3.914   1.473   3.571
  236PVCL2 OP3324681   3.987   1.485   3.444
  236PVCL2 OP3424682   3.914   1.341   3.638
  236PVCL2 OP3124683   3.766   1.516   3.536
  236PVCL2 OP3224684   3.961   1.587   3.670
  236PVCL2  C3124685   3.876   1.636   3.774
  236PVCL2 H31J24686   3.817   1.722   3.735
  236PVCL2 H31K24687   3.804   1.558   3.808
  236PVCL2   C224688   3.698   1.619   3.317
  236PVCL2 HG2224689   3.649   1.712   3.282
  236PVCL2 OG1224690   3.815   1.604   3.236
  236PVCL2 HO1224691   3.887   1.592   3.301
  236PVCL2   C124692   3.595   1.507   3.294
  236PVCL2 HG1124693   3.645   1.410   3.316
  236PVCL2 HG1224694   3.565   1.511   3.186
  236PVCL2   P124695   3.373   1.413   3.393
  236PVCL2 OP1324696   3.250   1.459   3.325
  236PVCL2 OP1424697   3.431   1.284   3.348
  236PVCL2 OP1124698   3.481   1.529   3.380
  236PVCL2 OP1224699   3.342   1.407   3.549
  236PVCL2  C1124700   3.427   1.453   3.653
  236PVCL2 H11J24701   3.384   1.546   3.694
  236PVCL2 H11K24702   3.531   1.479   3.620
  236PVCL2  C1224703   3.433   1.344   3.763
  236PVCL2 H12J24704   3.472   1.391   3.856
  236PVCL2  O1224705   3.514   1.231   3.722
  236PVCL2  CA124706   3.640   1.231   3.764
  236PVCL2  OA124707   3.691   1.317   3.834
  236PVCL2  CA224708   3.698   1.095   3.735
  236PVCL2  H2A24709   3.808   1.101   3.720
  236PVCL2  H2B24710   3.652   1.049   3.645
  236PVCL2  C1324711   3.290   1.292   3.798
  236PVCL2 H13J24712   3.237   1.263   3.704
  236PVCL2 H13K24713   3.232   1.376   3.842
  236PVCL2  O1324714   3.301   1.180   3.890
  236PVCL2  CB124715   3.185   1.124   3.921
  236PVCL2  OB124716   3.077   1.158   3.878
  236PVCL2  CB224717   3.203   1.010   4.022
  236PVCL2  H2D24718   3.291   1.025   4.088
  236PVCL2  H2E24719   3.218   0.917   3.964
  236PVCL2  C3224720   3.958   1.685   3.897
  236PVCL2 H32J24721   4.028   1.766   3.861
  236PVCL2  O3224722   4.027   1.577   3.962
  236PVCL2  CC124723   4.140   1.549   3.901
  236PVCL2  OC124724   4.193   1.616   3.815
  236PVCL2  CC224725   4.207   1.426   3.954
  236PVCL2  H2R24726   4.190   1.414   4.062
  236PVCL2  H2S24727   4.316   1.443   3.938
  236PVCL2  C3324728   3.872   1.751   4.007
  236PVCL2 H33J24729   3.945   1.788   4.082
  236PVCL2 H33K24730   3.822   1.841   3.962
  236PVCL2  O3324731   3.770   1.662   4.061
  236PVCL2  CD124732   3.797   1.606   4.179
  236PVCL2  OD124733   3.899   1.624   4.244
  236PVCL2  CD224734   3.677   1.525   4.232
  236PVCL2  H2X24735   3.583   1.575   4.199
  236PVCL2  H2Y24736   3.683   1.530   4.343
  236PVCL2  CA324737   3.670   1.007   3.853
  236PVCL2  H3A24738   3.562   0.981   3.864
  236PVCL2  H3B24739   3.709   1.043   3.951
  236PVCL2  CA424740   3.733   0.879   3.823
  236PVCL2  H4A24741   3.846   0.878   3.818
  236PVCL2  H4B24742   3.693   0.836   3.728
  236PVCL2  CA524743   3.669   0.799   3.932
  236PVCL2  H5A24744   3.733   0.726   3.878
  236PVCL2  H5B24745   3.577   0.746   3.906
  236PVCL2  CA624746   3.674   0.839   4.094
  236PVCL2  H6A24747   3.576   0.885   4.105
  236PVCL2  H6B24748   3.753   0.915   4.117
  236PVCL2  CA724749   3.690   0.745   4.228
  236PVCL2  H7A24750   3.785   0.685   4.237
  236PVCL2  H7B24751   3.609   0.670   4.235
  236PVCL2  CA824752   3.697   0.811   4.361
  236PVCL2  H8A24753   3.615   0.883   4.362
  236PVCL2  H8B24754   3.800   0.854   4.367
  236PVCL2  CA924755   3.688   0.713   4.476
  236PVCL2  H9A24756   3.730   0.756   4.569
  236PVCL2  H9B24757   3.770   0.650   4.439
  236PVCL2 CA1024758   3.552   0.640   4.508
  236PVCL2 H10A24759   3.558   0.578   4.601
  236PVCL2 H10B24760   3.517   0.569   4.430
  236PVCL2 CA1124761   3.454   0.749   4.524
  236PVCL2 H11A24762   3.439   0.802   4.429
  236PVCL2 CA1224763   3.383   0.788   4.630
  236PVCL2 H12A24764   3.323   0.878   4.613
  236PVCL2 CA1324765   3.376   0.738   4.773
  236PVCL2 H13A24766   3.385   0.626   4.776
  236PVCL2 H13B24767   3.274   0.760   4.812
  236PVCL2 CA1424768   3.479   0.798   4.872
  236PVCL2 H14A24769   3.580   0.775   4.830
  236PVCL2 H14B24770   3.471   0.746   4.970
  236PVCL2 CA1524771   3.473   0.950   4.897
  236PVCL2 H15A24772   3.463   1.002   4.799
  236PVCL2 H15B24773   3.570   0.981   4.941
  236PVCL2 CA1624774   3.360   1.005   4.988
  236PVCL2 H16A24775   3.264   0.993   4.935
  236PVCL2 H16B24776   3.379   1.115   4.999
  236PVCL2 CA1724777   3.344   0.947   5.130
  236PVCL2 H17A24778   3.326   0.838   5.123
  236PVCL2 H17B24779   3.251   0.991   5.173
  236PVCL2 CA1824780   3.459   0.978   5.229
  236PVCL2 H18A24781   3.447   0.920   5.323
  236PVCL2 H18B24782   3.458   1.086   5.255
  236PVCL2 H18C24783   3.558   0.953   5.185
  236PVCL2  CB324784   3.076   0.995   4.110
  236PVCL2  H3D24785   3.089   0.907   4.176
  236PVCL2  H3E24786   2.987   0.976   4.046
  236PVCL2  CB424787   3.048   1.117   4.198
  236PVCL2  H4D24788   2.951   1.100   4.250
  236PVCL2  H4E24789   3.034   1.209   4.136
  236PVCL2  CB524790   3.156   1.141   4.304
  236PVCL2  H5D24791   3.239   1.199   4.257
  236PVCL2  H5E24792   3.198   1.044   4.339
  236PVCL2  CB624793   3.101   1.216   4.426
  236PVCL2  H6D24794   3.023   1.152   4.475
  236PVCL2  H6E24795   3.050   1.308   4.391
  236PVCL2  CB724796   3.210   1.251   4.528
  236PVCL2  H7D24797   3.273   1.334   4.488
  236PVCL2  H7E24798   3.276   1.162   4.539
  236PVCL2  CB824799   3.157   1.289   4.666
  236PVCL2  H8D24800   3.100   1.204   4.709
  236PVCL2  H8E24801   3.088   1.377   4.658
  236PVCL2  CB924802   3.274   1.327   4.758
  236PVCL2  H9D24803   3.329   1.408   4.705
  236PVCL2  H9E24804   3.342   1.240   4.769
  236PVCL2 CB1024805   3.237   1.369   4.901
  236PVCL2 H10D24806   3.244   1.282   4.968
  236PVCL2 H10E24807   3.132   1.395   4.914
  236PVCL2 CB1124808   3.322   1.486   4.948
  236PVCL2 H11D24809   3.280   1.536   5.039
  236PVCL2 H11E24810   3.327   1.557   4.865
  236PVCL2 CB1224811   3.471   1.464   4.952
  236PVCL2 H12D24812   3.519   1.563   4.936
  236PVCL2 H12E24813   3.500   1.399   4.867
  236PVCL2 CB1324814   3.515   1.405   5.084
  236PVCL2 H13D24815   3.623   1.382   5.074
  236PVCL2 H13E24816   3.458   1.312   5.107
  236PVCL2 CB1424817   3.494   1.502   5.200
  236PVCL2 H14D24818   3.386   1.522   5.215
  236PVCL2 H14E24819   3.545   1.598   5.175
  236PVCL2 CB1524820   3.549   1.441   5.328
  236PVCL2 H15D24821   3.658   1.423   5.316
  236PVCL2 H15E24822   3.501   1.341   5.343
  236PVCL2 CB1624823   3.521   1.528   5.449
  236PVCL2 H16D24824   3.411   1.538   5.462
  236PVCL2 H16E24825   3.565   1.629   5.436
  236PVCL2 H16F24826   3.566   1.481   5.539
  236PVCL2  CC324827   4.164   1.304   3.870
  236PVCL2  H3R24828   4.243   1.227   3.874
  236PVCL2  H3S24829   4.159   1.333   3.762
  236PVCL2  CC424830   4.031   1.242   3.917
  236PVCL2  H4R24831   4.007   1.160   3.846
  236PVCL2  H4S24832   3.952   1.321   3.908
  236PVCL2  CC524833   4.018   1.190   4.061
  236PVCL2  H5R24834   3.916   1.153   4.081
  236PVCL2  H5S24835   4.036   1.277   4.129
  236PVCL2  CC624836   4.110   1.075   4.096
  236PVCL2  H6R24837   4.188   1.140   4.121
  236PVCL2  H6S24838   4.154   1.012   4.017
  236PVCL2  CC724839   4.083   1.007   4.229
  236PVCL2  H7R24840   3.984   0.963   4.232
  236PVCL2  H7S24841   4.073   1.085   4.309
  236PVCL2  CC824842   4.186   0.903   4.268
  236PVCL2  H8R24843   4.293   0.936   4.261
  236PVCL2  H8S24844   4.193   0.819   4.198
  236PVCL2  CC924845   4.146   0.846   4.406
  236PVCL2  H9R24846   4.247   0.818   4.432
  236PVCL2  H9S24847   4.108   0.743   4.396
  236PVCL2 CC1024848   4.059   0.925   4.518
  236PVCL2 H10R24849   4.042   0.848   4.594
  236PVCL2 H10S24850   3.966   0.955   4.466
  236PVCL2 CC1124851   4.096   1.051   4.595
  236PVCL2 H11R24852   4.116   1.120   4.516
  236PVCL2 CC1224853   4.160   1.064   4.716
  236PVCL2 H12R24854   4.231   1.146   4.740
  236PVCL2 CC1324855   4.206   0.953   4.806
  236PVCL2 H13R24856   4.303   0.952   4.864
  236PVCL2 H13S24857   4.196   0.864   4.755
  236PVCL2 CC1424858   4.101   0.921   4.895
  236PVCL2 H14R24859   4.129   0.835   4.959
  236PVCL2 H14S24860   4.010   0.894   4.834
  236PVCL2 CC1524861   4.100   1.044   4.970
  236PVCL2 H15R24862   4.096   1.143   4.919
  236PVCL2 H15S24863   4.190   1.056   5.032
  236PVCL2 CC1624864   3.972   1.026   5.030
  236PVCL2 H16R24865   3.971   0.942   5.104
  236PVCL2 H16S24866   3.888   1.027   4.957
  236PVCL2 CC1724867   3.950   1.151   5.089
  236PVCL2 H17R24868   3.978   1.246   5.041
  236PVCL2 H17S24869   4.043   1.145   5.157
  236PVCL2 CC1824870   3.800   1.128   5.130
  236PVCL2 H18R24871   3.757   1.217   5.178
  236PVCL2 H18S24872   3.791   1.061   5.221
  236PVCL2 H18T24873   3.718   1.168   5.072
  236PVCL2  CD324874   3.678   1.375   4.195
  236PVCL2  H3X24875   3.772   1.329   4.234
  236PVCL2  H3Y24876   3.680   1.368   4.083
  236PVCL2  CD424877   3.561   1.289   4.248
  236PVCL2  H4X24878   3.560   1.193   4.190
  236PVCL2  H4Y24879   3.465   1.340   4.226
  236PVCL2  CD524880   3.563   1.254   4.399
  236PVCL2  H5X24881   3.470   1.196   4.423
  236PVCL2  H5Y24882   3.558   1.348   4.457
  236PVCL2  CD624883   3.680   1.167   4.448
  236PVCL2  H6X24884   3.778   1.209   4.418
  236PVCL2  H6Y24885   3.677   1.068   4.398
  236PVCL2  CD724886   3.676   1.144   4.600
  236PVCL2  H7X24887   3.747   1.061   4.623
  236PVCL2  H7Y24888   3.574   1.109   4.631
  236PVCL2  CD824889   3.709   1.267   4.687
  236PVCL2  H8X24890   3.733   1.232   4.790
  236PVCL2  H8Y24891   3.617   1.330   4.695
  236PVCL2  CD924892   3.822   1.356   4.634
  236PVCL2  H9X24893   3.809   1.377   4.526
  236PVCL2  H9Y24894   3.920   1.305   4.648
  236PVCL2 CD1024895   3.828   1.495   4.699
  236PVCL2 H10X24896   3.732   1.550   4.686
  236PVCL2 H10Y24897   3.906   1.553   4.644
  236PVCL2 CD1124898   3.870   1.490   4.845
  236PVCL2 H11X24899   3.938   1.402   4.860
  236PVCL2 H11Y24900   3.789   1.482   4.919
  236PVCL2 CD1224901   3.957   1.608   4.876
  236PVCL2 H12X24902   3.910   1.707   4.857
  236PVCL2 H12Y24903   4.034   1.606   4.799
  236PVCL2 CD1324904   4.009   1.584   5.016
  236PVCL2 H13X24905   4.076   1.660   5.051
  236PVCL2 H13Y24906   4.069   1.494   5.033
  236PVCL2 CD1424907   3.927   1.650   5.119
  236PVCL2 H14X24908   3.833   1.603   5.140
  236PVCL2 H14Y24909   3.902   1.741   5.059
  236PVCL2 CD1524910   4.005   1.669   5.248
  236PVCL2 H15X24911   4.105   1.715   5.238
  236PVCL2 H15Y24912   4.031   1.572   5.291
  236PVCL2 CD1624913   3.940   1.766   5.341
  236PVCL2 H16X24914   3.974   1.802   5.438
  236PVCL2 H16Y24915   3.833   1.777   5.333
  236PVCL2 H16Z24916   4.001   1.848   5.300
  237SOD    SOD24917   5.916   5.900   2.460
  238SOD    SOD24918   4.216   0.497   2.028
  239SOD    SOD24919   7.189   0.526   0.267
  240SOD    SOD24920   7.429   1.513   8.058
  241SOD    SOD24921   2.138   4.165   0.543
  242SOD    SOD24922   4.567   7.029   8.032
  243SOD    SOD24923   5.035   6.289   1.641
  244SOD    SOD24924   1.912   6.330   0.119
  245SOD    SOD24925   0.660   3.624   8.953
  246SOD    SOD24926   7.402   5.831   8.522
  247SOD    SOD24927   3.293   2.490   1.290
  248SOD    SOD24928   7.152   2.487   0.153
  249SOD    SOD24929   2.872   2.455  11.041
  250SOD    SOD24930   6.851   4.874   9.852
  251SOD    SOD24931   0.192   4.039   2.521
  252SOD    SOD24932   6.582   2.309  10.816
  253SOD    SOD24933   0.296   0.943   1.004
  254SOD    SOD24934   0.649   6.753   1.591
  255SOD    SOD24935   4.210   1.673   2.339
  256SOD    SOD24936   4.037   2.622   9.956
  257SOD    SOD24937   6.790   1.089   0.339
  258SOD    SOD24938   0.731   6.198  10.312
  259SOD    SOD24939   7.802   7.104   0.342
  260SOD    SOD24940   1.155   1.687   9.706
  261SOD    SOD24941   3.204   6.482   8.192
  262SOD    SOD24942   3.024   6.105  10.912
  263SOD    SOD24943   7.653   2.136   9.210
  264SOD    SOD24944   2.619   1.310   8.692
  265SOD    SOD24945   1.577   5.346   8.319
  266SOD    SOD24946   2.253   7.658   3.067
  267SOD    SOD24947   7.083   7.947   2.328
  268SOD    SOD24948   1.187   3.597   8.178
  269SOD    SOD24949   0.144   5.142   9.045
  270SOD    SOD24950   4.915   0.391  10.032
  271SOD    SOD24951   1.450   0.753   8.637
  272SOD    SOD24952   5.424   3.802   0.603
  273SOD    SOD24953   4.892   7.567   8.373
  274SOD    SOD24954   0.857   3.278   3.064
  275SOD    SOD24955   4.653   2.537   0.323
  276SOD    SOD24956   2.394   2.767   3.149
  277SOD    SOD24957   0.779   2.078  10.585
  278SOD    SOD24958   3.305   1.886   1.554
  279SOD    SOD24959   7.742   4.388  10.862
  280SOD    SOD24960   5.985   0.790   0.570
  281SOD    SOD24961   2.687   7.447   9.848
  282SOD    SOD24962   5.562   7.090   2.802
  283SOD    SOD24963   1.538   2.171   2.050
  284SOD    SOD24964   4.199   1.545   1.871
  285SOD    SOD24965   5.991   2.989   8.655
  286SOD    SOD24966   1.800   1.607   8.460
  287SOD    SOD24967   5.251   1.370   1.553
  288SOD    SOD24968   1.060   4.534   2.232
  289SOD    SOD24969   5.752   0.124   0.827
  290SOD    SOD24970   7.879   0.542   9.077
  291SOD    SOD24971   7.419   0.997   3.006
  292SOD    SOD24972   4.999   3.465   7.825
  293SOD    SOD24973   7.004   0.273   8.802
  294SOD    SOD24974  -0.013   3.239   2.418
  295SOD    SOD24975   7.117   2.272   7.858
  296SOD    SOD24976   1.774   5.161   0.914
  297SOD    SOD24977   6.279   1.076   1.447
  298SOD    SOD24978   5.196   4.375   1.266
  299SOD    SOD24979   1.524   7.754   0.289
  300SOD    SOD24980   5.908   1.571   9.571
  301SOD    SOD24981   0.879   3.301   2.434
  302SOD    SOD24982   3.415   6.595   8.947
  303SOD    SOD24983   5.911   2.082   3.136
  304SOD    SOD24984   2.440   6.854  10.213
  305SOD    SOD24985   7.037   5.546   1.107
  306SOD    SOD24986   1.636   6.488   9.439
  307SOD    SOD24987   7.347   3.491   2.522
  308SOD    SOD24988   2.491   2.243   8.554
  309SOD    SOD24989   4.187   7.830   1.577
  310SOD    SOD24990   4.426   2.988  10.436
  311SOD    SOD24991   3.735   4.288   0.043
  312SOD    SOD24992   0.620   7.149   0.101
  313SOD    SOD24993   7.389   5.184   9.959
  314SOD    SOD24994   5.584   4.561   8.328
  315CLA    CLA24995   6.612   1.895   2.710
  316CLA    CLA24996   1.180   2.788   0.871
  317CLA    CLA24997   2.238   1.442   1.475
  318CLA    CLA24998   1.681   7.785   1.030
  319CLA    CLA24999   2.134   2.525   2.307
  320CLA    CLA25000   3.186   0.123   2.483
  321CLA    CLA25001   0.952   7.019   9.571
  322CLA    CLA25002   7.796   0.806  10.402
  323CLA    CLA25003   4.458   3.957   1.600
  324CLA    CLA25004   4.501   5.443   0.011
  325CLA    CLA25005   0.424   1.484   8.732
  326CLA    CLA25006   1.505   7.718  10.435
  327CLA    CLA25007   2.398   5.977   8.450
  328CLA    CLA25008   2.665   6.503   0.438
  329CLA    CLA25009   3.117   6.731   9.571
  330CLA    CLA25010   0.530   2.557   8.359
  331CLA    CLA25011  -0.025   0.704   2.713
  332CLA    CLA25012   0.600   1.155   2.321
  333CLA    CLA25013   5.008   1.514   9.813
  334CLA    CLA25014   1.933   7.652   8.558
  335CLA    CLA25015   0.098   1.127   8.121
  336CLA    CLA25016   6.357   7.916   8.570
  337CLA    CLA25017   3.622   2.440   1.589
  338CLA    CLA25018   0.956   3.397  10.337
  339CLA    CLA25019   4.188   0.804  10.164
  340CLA    CLA25020   7.792   4.374   1.780
  341CLA    CLA25021   8.018   3.054  10.978
  342CLA    CLA25022   0.809   2.577   2.143
  343CLA    CLA25023   0.390   0.295  10.223
  344CLA    CLA25024   3.996   2.324  10.585
  345CLA    CLA25025   4.284   3.825   0.130
  346CLA    CLA25026   0.491   1.911   2.047
  347CLA    CLA25027   7.146   3.294   9.121
  348CLA    CLA25028   1.089   6.255   9.671
  349CLA    CLA25029   6.987   0.177   2.482
  350CLA    CLA25030   5.617   6.480   9.374
  351TIP3   OH225031   1.215   1.001   8.186
  351TIP3    H125032   1.209   1.099   8.181
  351TIP3    H225033   1.140   0.976   8.129
  352TIP3   OH225034   1.105   0.920   8.534
  352TIP3    H125035   1.089   0.860   8.607
  352TIP3    H225036   1.058   0.877   8.460
  353TIP3   OH225037   0.348   0.883   8.679
  353TIP3    H125038   0.340   0.825   8.758
  353TIP3    H225039   0.405   0.954   8.714
  354TIP3   OH225040   1.469   1.220   8.366
  354TIP3    H125041   1.421   1.151   8.411
  354TIP3    H225042   1.465   1.293   8.431
  355TIP3   OH225043   0.427   1.325   8.493
  355TIP3    H125044   0.392   1.235   8.504
  355TIP3    H225045   0.510   1.321   8.543
  356TIP3   OH225046   0.095   0.696   8.079
  356TIP3    H125047   0.053   0.785   8.084
  356TIP3    H225048   0.028   0.642   8.039
  357TIP3   OH225049   0.165   0.905   8.318
  357TIP3    H125050   0.195   0.820   8.351
  357TIP3    H225051   0.219   0.928   8.239
  358TIP3   OH225052   1.178   1.739   8.385
  358TIP3    H125053   1.241   1.668   8.356
  358TIP3    H225054   1.154   1.703   8.471
  359TIP3   OH225055   0.932   1.166   8.585
  359TIP3    H125056   0.964   1.106   8.515
  359TIP3    H225057   1.015   1.182   8.634
  360TIP3   OH225058   1.793   0.328   8.654
  360TIP3    H125059   1.812   0.387   8.731
  360TIP3    H225060   1.849   0.370   8.587
  361TIP3   OH225061   1.267   0.614   8.610
  361TIP3    H125062   1.266   0.515   8.616
  361TIP3    H225063   1.234   0.622   8.518
  362TIP3   OH225064   0.563   0.423   8.335
  362TIP3    H125065   0.573   0.507   8.286
  362TIP3    H225066   0.523   0.366   8.266
  363TIP3   OH225067   1.335   0.433   8.175
  363TIP3    H125068   1.400   0.398   8.239
  363TIP3    H225069   1.391   0.486   8.117
  364TIP3   OH225070   0.234   0.659   8.409
  364TIP3    H125071   0.299   0.601   8.452
  364TIP3    H225072   0.236   0.631   8.316
  365TIP3   OH225073   0.739   0.818   8.344
  365TIP3    H125074   0.808   0.759   8.379
  365TIP3    H225075   0.690   0.755   8.287
  366TIP3   OH225076   1.837   0.475   8.880
  366TIP3    H125077   1.776   0.550   8.872
  366TIP3    H225078   1.840   0.460   8.976
  367TIP3   OH225079   0.456   0.314   8.734
  367TIP3    H125080   0.424   0.373   8.662
  367TIP3    H225081   0.390   0.334   8.805
  368TIP3   OH225082   1.182   1.257   8.093
  368TIP3    H125083   1.147   1.232   8.006
  368TIP3    H225084   1.152   1.351   8.099
  369TIP3   OH225085   0.711   1.072   8.759
  369TIP3    H125086   0.639   1.133   8.787
  369TIP3    H225087   0.777   1.137   8.731
  370TIP3   OH225088   1.512   0.373   8.378
  370TIP3    H125089   1.494   0.288   8.422
  370TIP3    H225090   1.590   0.404   8.426
  371TIP3   OH225091   0.413   0.499   8.542
  371TIP3    H125092   0.475   0.568   8.574
  371TIP3    H225093   0.464   0.459   8.467
  372TIP3   OH225094   0.558   1.262   8.856
  372TIP3    H125095   0.547   1.348   8.809
  372TIP3    H225096   0.465   1.262   8.888
  373TIP3   OH225097   0.195   1.282   7.882
  373TIP3    H125098   0.115   1.276   7.830
  373TIP3    H225099   0.163   1.306   7.972
  374TIP3   OH225100   1.517   1.406   8.599
  374TIP3    H125101   1.420   1.413   8.612
  374TIP3    H225102   1.538   1.499   8.581
  375TIP3   OH225103   1.554   0.240   8.752
  375TIP3    H125104   1.477   0.293   8.726
  375TIP3    H225105   1.621   0.266   8.686
  376TIP3   OH225106   0.839   0.056   8.450
  376TIP3    H125107   0.847  -0.035   8.485
  376TIP3    H225108   0.765   0.084   8.506
  377TIP3   OH225109   1.350   1.582   8.266
  377TIP3    H125110   1.384   1.511   8.208
  377TIP3    H225111   1.386   1.661   8.219
  378TIP3   OH225112   1.472   1.375   8.110
  378TIP3    H125113   1.434   1.308   8.051
  378TIP3    H225114   1.468   1.327   8.194
  379TIP3   OH225115   1.625   1.236   8.961
  379TIP3    H125116   1.642   1.171   8.890
  379TIP3    H225117   1.646   1.319   8.916
  380TIP3   OH225118   1.077   0.925   7.936
  380TIP3    H125119   1.005   0.981   7.899
  380TIP3    H225120   1.143   0.932   7.865
  381TIP3   OH225121   1.086   0.774   7.644
  381TIP3    H125122   1.161   0.775   7.703
  381TIP3    H225123   1.116   0.708   7.578
  382TIP3   OH225124   1.811   0.863   8.759
  382TIP3    H125125   1.752   0.941   8.768
  382TIP3    H225126   1.868   0.891   8.685
  383TIP3   OH225127   1.423   0.943   8.025
  383TIP3    H125128   1.347   0.970   8.083
  383TIP3    H225129   1.469   0.878   8.081
  384TIP3   OH225130   1.418   0.765   8.934
  384TIP3    H125131   1.415   0.840   8.997
  384TIP3    H225132   1.343   0.794   8.878
  385TIP3   OH225133   0.585   1.012   8.223
  385TIP3    H125134   0.548   0.975   8.138
  385TIP3    H225135   0.645   0.941   8.252
  386TIP3   OH225136   0.716   1.352   8.488
  386TIP3    H125137   0.711   1.299   8.408
  386TIP3    H225138   0.792   1.313   8.534
  387TIP3   OH225139   0.618   0.884   8.587
  387TIP3    H125140   0.670   0.895   8.505
  387TIP3    H225141   0.651   0.955   8.646
  388TIP3   OH225142   1.258   1.443   8.658
  388TIP3    H125143   1.227   1.508   8.722
  388TIP3    H225144   1.231   1.358   8.700
  389TIP3   OH225145   0.711   1.330   9.058
  389TIP3    H125146   0.668   1.405   9.104
  389TIP3    H225147   0.645   1.310   8.987
  390TIP3   OH225148   1.309   0.864   7.793
  390TIP3    H125149   1.360   0.885   7.875
  390TIP3    H225150   1.351   0.917   7.723
  391TIP3   OH225151   0.402   0.937   8.974
  391TIP3    H125152   0.410   1.010   9.038
  391TIP3    H225153   0.309   0.954   8.947
  392TIP3   OH225154   1.085   1.539   8.141
  392TIP3    H125155   1.124   1.569   8.224
  392TIP3    H225156   1.024   1.610   8.116
  393TIP3   OH225157   0.536   1.525   9.138
  393TIP3    H125158   0.536   1.531   9.040
  393TIP3    H225159   0.440   1.517   9.156
  394TIP3   OH225160   1.686   0.045   7.790
  394TIP3    H125161   1.588   0.049   7.799
  394TIP3    H225162   1.705   0.124   7.734
  395TIP3   OH225163   0.479   0.913   7.987
  395TIP3    H125164   0.455   0.989   7.931
  395TIP3    H225165   0.412   0.848   7.962
  396TIP3   OH225166   0.140   1.109   8.845
  396TIP3    H125167   0.065   1.151   8.799
  396TIP3    H225168   0.094   1.044   8.899
  397TIP3   OH225169   0.090   1.455   8.535
  397TIP3    H125170   0.179   1.419   8.553
  397TIP3    H225171   0.070   1.511   8.612
  398TIP3   OH225172   1.888   1.500   9.118
  398TIP3    H125173   1.876   1.404   9.116
  398TIP3    H225174   1.800   1.525   9.156
  399TIP3   OH225175   0.983   1.453   9.005
  399TIP3    H125176   0.989   1.538   9.054
  399TIP3    H225177   0.894   1.419   9.027
  400TIP3   OH225178   1.033   1.828   7.983
  400TIP3    H125179   1.016   1.821   7.887
  400TIP3    H225180   1.028   1.923   8.002
  401TIP3   OH225181   0.395   1.715   8.168
  401TIP3    H125182   0.408   1.673   8.256
  401TIP3    H225183   0.311   1.671   8.143
  402TIP3   OH225184   1.302   1.746   7.960
  402TIP3    H125185   1.206   1.750   7.980
  402TIP3    H225186   1.327   1.670   8.015
  403TIP3   OH225187   1.603   0.649   9.164
  403TIP3    H125188   1.553   0.693   9.094
  403TIP3    H225189   1.601   0.556   9.137
  404TIP3   OH225190   0.318   1.288   8.973
  404TIP3    H125191   0.331   1.247   9.060
  404TIP3    H225192   0.235   1.248   8.940
  405TIP3   OH225193   0.586   0.140   8.554
  405TIP3    H125194   0.498   0.136   8.513
  405TIP3    H225195   0.571   0.218   8.611
  406TIP3   OH225196   1.050   0.107   8.902
  406TIP3    H125197   1.091   0.059   8.974
  406TIP3    H225198   0.955   0.090   8.913
  407TIP3   OH225199   1.375   0.483   8.985
  407TIP3    H125200   1.322   0.464   9.066
  407TIP3    H225201   1.360   0.577   8.967
  408TIP3   OH225202   1.470   0.952   7.573
  408TIP3    H125203   1.441   0.955   7.481
  408TIP3    H225204   1.534   1.023   7.582
  409TIP3   OH225205   1.008   0.356   7.630
  409TIP3    H125206   0.983   0.351   7.724
  409TIP3    H225207   0.986   0.268   7.603
  410TIP3   OH225208   0.597   0.634   8.689
  410TIP3    H125209   0.521   0.633   8.751
  410TIP3    H225210   0.588   0.723   8.648
  411TIP3   OH225211   0.592   0.640   8.175
  411TIP3    H125212   0.498   0.621   8.159
  411TIP3    H225213   0.629   0.620   8.087
  412TIP3   OH225214   1.148   0.692   8.049
  412TIP3    H125215   1.105   0.774   8.015
  412TIP3    H225216   1.214   0.676   7.979
  413TIP3   OH225217   1.048   0.717   9.193
  413TIP3    H125218   0.997   0.638   9.223
  413TIP3    H225219   1.132   0.704   9.240
  414TIP3   OH225220   1.250   0.646   8.335
  414TIP3    H125221   1.217   0.699   8.260
  414TIP3    H225222   1.255   0.560   8.288
  415TIP3   OH225223   0.358   0.658   8.853
  415TIP3    H125224   0.361   0.700   8.941
  415TIP3    H225225   0.313   0.575   8.873
  416TIP3   OH225226   0.691   0.390   7.531
  416TIP3    H125227   0.652   0.355   7.614
  416TIP3    H225228   0.618   0.438   7.492
  417TIP3   OH225229   0.051   0.403   8.262
  417TIP3    H125230   0.102   0.367   8.338
  417TIP3    H225231   0.067   0.339   8.195
  418TIP3   OH225232   0.155   0.454   7.799
  418TIP3    H125233   0.201   0.502   7.727
  418TIP3    H225234   0.079   0.510   7.814
  419TIP3   OH225235   1.176   0.799   8.790
  419TIP3    H125236   1.198   0.727   8.729
  419TIP3    H225237   1.118   0.754   8.855
  420TIP3   OH225238   0.849   0.404   8.273
  420TIP3    H125239   0.755   0.397   8.299
  420TIP3    H225240   0.895   0.381   8.355
  421TIP3   OH225241   0.330   0.552   8.161
  421TIP3    H125242   0.243   0.572   8.121
  421TIP3    H225243   0.355   0.469   8.117
  422TIP3   OH225244   0.690   0.558   7.924
  422TIP3    H125245   0.786   0.570   7.938
  422TIP3    H225246   0.666   0.626   7.858
  423TIP3   OH225247   1.287   0.333   8.591
  423TIP3    H125248   1.222   0.324   8.663
  423TIP3    H225249   1.242   0.291   8.517
  424TIP3   OH225250   0.563   0.681   7.679
  424TIP3    H125251   0.506   0.643   7.610
  424TIP3    H225252   0.645   0.699   7.634
  425TIP3   OH225253   1.607   1.887   9.229
  425TIP3    H125254   1.635   1.924   9.142
  425TIP3    H225255   1.679   1.919   9.285
  426TIP3   OH225256   0.379   1.129   9.190
  426TIP3    H125257   0.452   1.160   9.246
  426TIP3    H225258   0.302   1.142   9.248
  427TIP3   OH225259   0.981   0.677   8.466
  427TIP3    H125260   1.031   0.620   8.407
  427TIP3    H225261   0.956   0.618   8.538
  428TIP3   OH225262   0.476   0.292   8.104
  428TIP3    H125263   0.444   0.200   8.107
  428TIP3    H225264   0.557   0.282   8.052
  429TIP3   OH225265   0.838   0.508   8.705
  429TIP3    H125266   0.757   0.562   8.712
  429TIP3    H225267   0.896   0.545   8.775
  430TIP3   OH225268   1.617   1.044   8.749
  430TIP3    H125269   1.673   1.099   8.692
  430TIP3    H225270   1.530   1.062   8.709
  431TIP3   OH225271   1.275   0.407   7.707
  431TIP3    H125272   1.190   0.424   7.663
  431TIP3    H225273   1.313   0.496   7.717
  432TIP3   OH225274   1.047   1.159   8.998
  432TIP3    H125275   1.013   1.115   9.077
  432TIP3    H225276   1.020   1.250   9.010
  433TIP3   OH225277   1.354   0.605   7.859
  433TIP3    H125278   1.444   0.590   7.894
  433TIP3    H225279   1.360   0.683   7.802
  434TIP3   OH225280   0.410   1.068   8.456
  434TIP3    H125281   0.475   1.063   8.384
  434TIP3    H225282   0.415   0.982   8.499
  435TIP3   OH225283   0.115   0.894   8.977
  435TIP3    H125284   0.128   0.861   9.067
  435TIP3    H225285   0.041   0.847   8.938
  436TIP3   OH225286   0.809   0.865   9.198
  436TIP3    H125287   0.777   0.834   9.112
  436TIP3    H225288   0.902   0.832   9.196
  437TIP3   OH225289   1.279   1.400   8.994
  437TIP3    H125290   1.186   1.417   8.969
  437TIP3    H225291   1.274   1.430   9.086
  438TIP3   OH225292   1.838   0.623   7.837
  438TIP3    H125293   1.793   0.582   7.763
  438TIP3    H225294   1.856   0.714   7.804
  439TIP3   OH225295   1.843   1.206   9.112
  439TIP3    H125296   1.753   1.226   9.077
  439TIP3    H225297   1.896   1.198   9.030
  440TIP3   OH225298   1.668   1.502   7.866
  440TIP3    H125299   1.639   1.419   7.907
  440TIP3    H225300   1.708   1.478   7.781
  441TIP3   OH225301   1.392   0.971   8.590
  441TIP3    H125302   1.297   0.969   8.565
  441TIP3    H225303   1.435   0.926   8.515
  442TIP3   OH225304   0.645   1.416   8.194
  442TIP3    H125305   0.696   1.496   8.170
  442TIP3    H225306   0.557   1.437   8.157
  443TIP3   OH225307   0.211   0.903   7.641
  443TIP3    H125308   0.282   0.958   7.684
  443TIP3    H225309   0.137   0.934   7.691
  444TIP3   OH225310   0.792   1.184   8.158
  444TIP3    H125311   0.756   1.274   8.149
  444TIP3    H225312   0.714   1.132   8.185
  445TIP3   OH225313   0.849   1.593   8.771
  445TIP3    H125314   0.879   1.684   8.758
  445TIP3    H225315   0.893   1.568   8.853
  446TIP3   OH225316   0.656   1.679   8.102
  446TIP3    H125317   0.559   1.693   8.111
  446TIP3    H225318   0.692   1.765   8.128
  447TIP3   OH225319   1.182   1.197   8.745
  447TIP3    H125320   1.150   1.183   8.837
  447TIP3    H225321   1.249   1.129   8.732
  448TIP3   OH225322   1.411   1.311   7.662
  448TIP3    H125323   1.445   1.259   7.738
  448TIP3    H225324   1.319   1.283   7.665
  449TIP3   OH225325   1.466   1.658   8.996
  449TIP3    H125326   1.397   1.609   8.948
  449TIP3    H225327   1.483   1.729   8.931
  450TIP3   OH225328   1.866   1.747   7.684
  450TIP3    H125329   1.936   1.807   7.655
  450TIP3    H225330   1.795   1.809   7.710
  451TIP3   OH225331   0.273   0.383   8.933
  451TIP3    H125332   0.183   0.417   8.936
  451TIP3    H225333   0.262   0.299   8.979
  452TIP3   OH225334   1.497   1.167   7.879
  452TIP3    H125335   1.471   1.090   7.932
  452TIP3    H225336   1.592   1.172   7.895
  453TIP3   OH225337   0.167   1.563   8.806
  453TIP3    H125338   0.229   1.497   8.768
  453TIP3    H225339   0.242   1.600   8.855
  454TIP3   OH225340   0.356   1.092   7.785
  454TIP3    H125341   0.295   1.130   7.854
  454TIP3    H225342   0.421   1.164   7.779
  455TIP3   OH225343   1.149   0.362   8.831
  455TIP3    H125344   1.219   0.362   8.896
  455TIP3    H225345   1.111   0.273   8.847
  456TIP3   OH225346   1.225   0.315   7.950
  456TIP3    H125347   1.241   0.359   7.862
  456TIP3    H225348   1.278   0.373   8.006
  457TIP3   OH225349   0.995   1.540   7.825
  457TIP3    H125350   0.911   1.586   7.827
  457TIP3    H225351   1.041   1.586   7.755
  458TIP3   OH225352   0.943   0.493   8.021
  458TIP3    H125353   1.021   0.551   8.027
  458TIP3    H225354   0.914   0.481   8.114
  459TIP3   OH225355   1.004   0.598   8.938
  459TIP3    H125356   1.005   0.649   9.021
  459TIP3    H225357   1.062   0.523   8.953
  460TIP3   OH225358   1.032   0.200   8.116
  460TIP3    H125359   0.996   0.270   8.174
  460TIP3    H225360   1.097   0.254   8.064
  461TIP3   OH225361   0.596   0.311   7.778
  461TIP3    H125362   0.589   0.398   7.821
  461TIP3    H225363   0.686   0.287   7.808
  462TIP3   OH225364   1.616   0.389   9.024
  462TIP3    H125365   1.521   0.414   9.011
  462TIP3    H225366   1.646   0.375   8.932
  463TIP3   OH225367   1.479   0.759   8.410
  463TIP3    H125368   1.397   0.713   8.381
  463TIP3    H225369   1.536   0.687   8.446
  464TIP3   OH225370   0.252   0.622   7.607
  464TIP3    H125371   0.251   0.719   7.612
  464TIP3    H225372   0.172   0.598   7.558
  465TIP3   OH225373   1.592   1.680   8.578
  465TIP3    H125374   1.571   1.760   8.525
  465TIP3    H225375   1.674   1.705   8.624
  466TIP3   OH225376   0.319   0.123   8.460
  466TIP3    H125377   0.303   0.108   8.363
  466TIP3    H225378   0.300   0.034   8.497
  467TIP3   OH225379   0.234   1.499   8.093
  467TIP3    H125380   0.145   1.534   8.082
  467TIP3    H225381   0.279   1.536   8.016
  468TIP3   OH225382   0.151   1.755   9.216
  468TIP3    H125383   0.211   1.729   9.289
  468TIP3    H225384   0.108   1.670   9.192
  469TIP3   OH225385   0.617   1.647   9.375
  469TIP3    H125386   0.692   1.597   9.409
  469TIP3    H225387   0.614   1.619   9.281
  470TIP3   OH225388   1.264   1.489   9.256
  470TIP3    H125389   1.236   1.398   9.278
  470TIP3    H225390   1.346   1.497   9.309
  471TIP3   OH225391   0.140   1.137   9.318
  471TIP3    H125392   0.158   1.046   9.287
  471TIP3    H225393   0.070   1.161   9.258
  472TIP3   OH225394   0.812   1.132   9.254
  472TIP3    H125395   0.778   1.165   9.168
  472TIP3    H225396   0.818   1.035   9.243
  473TIP3   OH225397   1.381   1.118   8.989
  473TIP3    H125398   1.460   1.176   8.990
  473TIP3    H225399   1.312   1.185   8.998
  474TIP3   OH225400   0.215   0.853   9.256
  474TIP3    H125401   0.277   0.779   9.247
  474TIP3    H225402   0.206   0.858   9.353
  475TIP3   OH225403   0.622   0.750   8.989
  475TIP3    H125404   0.561   0.822   9.014
  475TIP3    H225405   0.662   0.787   8.908
  476TIP3   OH225406   1.130   1.009   9.324
  476TIP3    H125407   1.225   1.005   9.309
  476TIP3    H225408   1.113   0.931   9.380
  477TIP3   OH225409   0.666   0.492   9.093
  477TIP3    H125410   0.676   0.421   9.027
  477TIP3    H225411   0.656   0.573   9.038
  478TIP3   OH225412   0.704   0.327   8.850
  478TIP3    H125413   0.755   0.374   8.779
  478TIP3    H225414   0.615   0.320   8.810
  479TIP3   OH225415   0.856   0.878   8.876
  479TIP3    H125416   0.930   0.860   8.817
  479TIP3    H225417   0.818   0.960   8.841
  480TIP3   OH225418   1.296   0.650   9.369
  480TIP3    H125419   1.320   0.556   9.361
  480TIP3    H225420   1.382   0.695   9.374
  481TIP3   OH225421   1.432   0.932   9.188
  481TIP3    H125422   1.406   1.005   9.126
  481TIP3    H225423   1.528   0.929   9.170
  482TIP3   OH225424   0.510   0.614   9.286
  482TIP3    H125425   0.432   0.556   9.270
  482TIP3    H225426   0.575   0.576   9.225
  483TIP3   OH225427   0.773   0.079   8.892
  483TIP3    H125428   0.763   0.177   8.880
  483TIP3    H225429   0.698   0.041   8.846
  484TIP3   OH225430   0.910   0.504   9.251
  484TIP3    H125431   0.879   0.479   9.340
  484TIP3    H225432   0.831   0.483   9.198
  485TIP3   OH225433   1.181   0.425   9.164
  485TIP3    H125434   1.084   0.421   9.172
  485TIP3    H225435   1.209   0.357   9.229
  486TIP3   OH225436   1.338   0.289   9.350
  486TIP3    H125437   1.337   0.190   9.348
  486TIP3    H225438   1.313   0.307   9.442
  487TIP3   OH225439   0.318   0.408   9.262
  487TIP3    H125440   0.345   0.335   9.203
  487TIP3    H225441   0.313   0.363   9.348
  488TIP3   OH225442   0.814   8.146   9.137
  488TIP3    H125443   0.881   8.075   9.142
  488TIP3    H225444   0.791   8.131   9.043
  489TIP3   OH225445   0.838   0.177   9.371
  489TIP3    H125446   0.825   0.131   9.286
  489TIP3    H225447   0.780   0.254   9.362
  490TIP3   OH225448   0.789   1.864   7.686
  490TIP3    H125449   0.885   1.870   7.694
  490TIP3    H225450   0.766   1.930   7.620
  491TIP3   OH225451   0.148   1.322   7.620
  491TIP3    H125452   0.237   1.332   7.659
  491TIP3    H225453   0.162   1.254   7.555
  492TIP3   OH225454   0.035   1.871   8.122
  492TIP3    H125455  -0.045   1.823   8.092
  492TIP3    H225456   0.054   1.809   8.196
  493TIP3   OH225457   0.118   1.679   8.314
  493TIP3    H125458   0.079   1.590   8.329
  493TIP3    H225459   0.137   1.710   8.405
  494TIP3   OH225460   1.857   1.762   8.620
  494TIP3    H125461   1.863   1.775   8.717
  494TIP3    H225462   1.930   1.819   8.592
  495TIP3   OH225463   1.815   1.710   8.904
  495TIP3    H125464   1.765   1.633   8.872
  495TIP3    H225465   1.860   1.669   8.980
  496TIP3   OH225466   1.658   1.282   9.375
  496TIP3    H125467   1.567   1.281   9.410
  496TIP3    H225468   1.695   1.362   9.417
  497TIP3   OH225469   1.790   1.115   7.915
  497TIP3    H125470   1.876   1.154   7.934
  497TIP3    H225471   1.788   1.045   7.984
  498TIP3   OH225472   1.827   0.924   8.102
  498TIP3    H125473   1.751   0.875   8.140
  498TIP3    H225474   1.884   0.937   8.180
  499TIP3   OH225475   1.799   1.192   8.601
  499TIP3    H125476   1.881   1.151   8.567
  499TIP3    H225477   1.816   1.286   8.588
  500TIP3   OH225478   1.657   1.485   8.828
  500TIP3    H125479   1.590   1.516   8.891
  500TIP3    H225480   1.600   1.443   8.761
  501TIP3   OH225481   1.842   0.902   7.747
  501TIP3    H125482   1.807   0.948   7.672
  501TIP3    H225483   1.853   0.976   7.811
  502TIP3   OH225484   1.609   0.770   8.162
  502TIP3    H125485   1.594   0.675   8.156
  502TIP3    H225486   1.575   0.791   8.250
  503TIP3   OH225487   0.108   0.976   8.571
  503TIP3    H125488   0.125   0.972   8.474
  503TIP3    H225489   0.198   0.967   8.605
  504TIP3   OH225490   1.693   0.970   9.133
  504TIP3    H125491   1.754   0.893   9.145
  504TIP3    H225492   1.755   1.046   9.133
  505TIP3   OH225493   1.844   0.756   9.197
  505TIP3    H125494   1.755   0.716   9.182
  505TIP3    H225495   1.901   0.677   9.190
  506TIP3   OH225496   1.574   0.534   8.008
  506TIP3    H125497   1.602   0.440   8.018
  506TIP3    H225498   1.654   0.572   7.970
  507TIP3   OH225499   1.632   0.598   8.556
  507TIP3    H125500   1.731   0.604   8.549
  507TIP3    H225501   1.628   0.585   8.652
  508TIP3   OH225502   1.639   0.660   8.817
  508TIP3    H125503   1.560   0.686   8.870
  508TIP3    H225504   1.693   0.743   8.812
  509TIP3   OH225505   0.082   0.476   9.150
  509TIP3    H125506   0.172   0.481   9.192
  509TIP3    H225507   0.036   0.421   9.213
  510TIP3   OH225508   1.885   0.072   9.381
  510TIP3    H125509   1.898   0.005   9.311
  510TIP3    H225510   1.878   0.148   9.320
  511TIP3   OH225511   1.636   0.263   8.012
  511TIP3    H125512   1.662   0.217   8.095
  511TIP3    H225513   1.579   0.196   7.970
  512TIP3   OH225514   0.186   0.344   8.476
  512TIP3    H125515   0.236   0.262   8.494
  512TIP3    H225516   0.245   0.411   8.514
  513TIP3   OH225517   0.040   0.649   8.585
  513TIP3    H125518   0.085   0.623   8.502
  513TIP3    H225519   0.077   0.737   8.597
  514TIP3   OH225520   1.827   0.277   9.197
  514TIP3    H125521   1.732   0.298   9.194
  514TIP3    H225522   1.827   0.214   9.123
  515TIP3   OH225523   1.834   0.255   7.679
  515TIP3    H125524   1.862   0.197   7.606
  515TIP3    H225525   1.896   0.327   7.669
  516TIP3   OH225526   0.074   0.247   7.947
  516TIP3    H125527  -0.021   0.268   7.946
  516TIP3    H225528   0.112   0.318   7.890
  517TIP3   OH225529   1.529   1.757   8.178
  517TIP3    H125530   1.595   1.731   8.111
  517TIP3    H225531   1.579   1.814   8.238
  518TIP3   OH225532   0.054   0.120   8.805
  518TIP3    H125533  -0.009   0.104   8.876
  518TIP3    H225534   0.010   0.197   8.762
  519TIP3   OH225535   0.275   1.454   9.231
  519TIP3    H125536   0.193   1.473   9.181
  519TIP3    H225537   0.245   1.444   9.321
  520TIP3   OH225538   0.619   1.603   8.899
  520TIP3    H125539   0.540   1.623   8.843
  520TIP3    H225540   0.667   1.561   8.825
  521TIP3   OH225541   0.995   1.693   9.145
  521TIP3    H125542   1.009   1.657   9.234
  521TIP3    H225543   1.085   1.723   9.118
  522TIP3   OH225544   1.224   1.820   9.074
  522TIP3    H125545   1.297   1.762   9.051
  522TIP3    H225546   1.261   1.865   9.152
  523TIP3   OH225547   1.714   0.103   8.988
  523TIP3    H125548   1.627   0.121   8.949
  523TIP3    H225549   1.724   0.010   8.967
  524TIP3   OH225550   0.305   1.874   8.855
  524TIP3    H125551   0.230   1.922   8.815
  524TIP3    H225552   0.272   1.856   8.944
  525TIP3   OH225553   0.558   1.843   8.762
  525TIP3    H125554   0.467   1.847   8.799
  525TIP3    H225555   0.546   1.892   8.680
  526TIP3   OH225556   1.025   1.823   8.676
  526TIP3    H125557   0.977   1.878   8.612
  526TIP3    H225558   1.036   1.886   8.751
  527TIP3   OH225559   1.251   1.703   8.782
  527TIP3    H125560   1.166   1.731   8.744
  527TIP3    H225561   1.300   1.786   8.772
  528TIP3   OH225562   1.513   1.859   8.801
  528TIP3    H125563   1.505   1.956   8.781
  528TIP3    H225564   1.530   1.825   8.712
  529TIP3   OH225565   0.254   1.744   8.543
  529TIP3    H125566   0.241   1.699   8.629
  529TIP3    H225567   0.335   1.700   8.508
  530TIP3   OH225568   0.458   1.610   8.412
  530TIP3    H125569   0.443   1.517   8.440
  530TIP3    H225570   0.542   1.626   8.459
  531TIP3   OH225571   0.720   1.660   8.502
  531TIP3    H125572   0.734   1.567   8.475
  531TIP3    H225573   0.721   1.651   8.599
  532TIP3   OH225574   1.061   0.230   8.410
  532TIP3    H125575   0.999   0.162   8.441
  532TIP3    H225576   1.123   0.176   8.360
  533TIP3   OH225577   1.581   0.061   8.437
  533TIP3    H125578   1.642   0.094   8.368
  533TIP3    H225579   1.492   0.061   8.395
  534TIP3   OH225580   1.747   0.160   8.246
  534TIP3    H125581   1.810   0.097   8.208
  534TIP3    H225582   1.800   0.241   8.260
  535TIP3   OH225583   0.306   0.086   8.196
  535TIP3    H125584   0.225   0.069   8.144
  535TIP3    H225585   0.348  -0.001   8.192
  536TIP3   OH225586   0.210   0.106   7.778
  536TIP3    H125587   0.222   0.160   7.697
  536TIP3    H225588   0.128   0.144   7.816
  537TIP3   OH225589   0.742   0.093   8.178
  537TIP3    H125590   0.836   0.116   8.167
  537TIP3    H225591   0.750   0.058   8.268
  538TIP3   OH225592   1.319   0.083   8.343
  538TIP3    H125593   1.316   0.091   8.247
  538TIP3    H225594   1.287  -0.008   8.355
  539TIP3   OH225595   1.433   0.096   7.880
  539TIP3    H125596   1.360   0.159   7.886
  539TIP3    H225597   1.403   0.018   7.925
  540TIP3   OH225598   0.174   1.665   7.868
  540TIP3    H125599   0.106   1.657   7.800
  540TIP3    H225600   0.165   1.757   7.893
  541TIP3   OH225601   0.364   0.260   7.627
  541TIP3    H125602   0.407   0.205   7.562
  541TIP3    H225603   0.434   0.288   7.688
  542TIP3   OH225604   0.856   0.285   7.864
  542TIP3    H125605   0.892   0.224   7.930
  542TIP3    H225606   0.870   0.370   7.909
  543TIP3   OH225607   1.061   1.782   7.703
  543TIP3    H125608   1.147   1.816   7.681
  543TIP3    H225609   1.030   1.739   7.622
  544TIP3   OH225610   1.721   1.739   7.980
  544TIP3    H125611   1.709   1.659   7.923
  544TIP3    H225612   1.723   1.809   7.913
  545TIP3   OH225613   0.292   0.150   9.153
  545TIP3    H125614   0.258   0.063   9.179
  545TIP3    H225615   0.386   0.135   9.176
  546TIP3   OH225616   0.497   0.085   9.321
  546TIP3    H125617   0.579   0.052   9.282
  546TIP3    H225618   0.449   0.002   9.335
  547TIP3   OH225619   0.351   1.754   7.576
  547TIP3    H125620   0.329   1.777   7.665
  547TIP3    H225621   0.431   1.701   7.585
  548TIP3   OH225622   1.343   8.110   9.328
  548TIP3    H125623   1.341   8.042   9.398
  548TIP3    H225624   1.426   8.088   9.284
  549TIP3   OH225625   1.652   1.613   9.186
  549TIP3    H125626   1.572   1.600   9.131
  549TIP3    H225627   1.640   1.707   9.208
  550TIP3   OH225628   3.098   1.001   8.183
  550TIP3    H125629   3.095   1.099   8.180
  550TIP3    H225630   3.023   0.978   8.127
  551TIP3   OH225631   2.978   0.927   8.534
  551TIP3    H125632   2.983   0.861   8.605
  551TIP3    H225633   2.947   0.873   8.459
  552TIP3   OH225634   2.218   0.895   8.688
  552TIP3    H125635   2.225   0.826   8.757
  552TIP3    H225636   2.293   0.951   8.713
  553TIP3   OH225637   3.350   1.221   8.364
  553TIP3    H125638   3.309   1.149   8.413
  553TIP3    H225639   3.353   1.291   8.431
  554TIP3   OH225640   2.307   1.337   8.544
  554TIP3    H125641   2.276   1.251   8.508
  554TIP3    H225642   2.402   1.320   8.536
  555TIP3   OH225643   1.972   0.692   8.091
  555TIP3    H125644   1.933   0.781   8.083
  555TIP3    H225645   1.917   0.641   8.030
  556TIP3   OH225646   2.048   0.920   8.306
  556TIP3    H125647   2.071   0.835   8.348
  556TIP3    H225648   2.115   0.927   8.236
  557TIP3   OH225649   3.064   1.738   8.387
  557TIP3    H125650   3.128   1.669   8.357
  557TIP3    H225651   3.040   1.701   8.473
  558TIP3   OH225652   2.816   1.169   8.589
  558TIP3    H125653   2.848   1.107   8.520
  558TIP3    H225654   2.903   1.180   8.633
  559TIP3   OH225655   3.683   0.325   8.656
  559TIP3    H125656   3.695   0.390   8.730
  559TIP3    H225657   3.734   0.371   8.588
  560TIP3   OH225658   3.136   0.612   8.615
  560TIP3    H125659   3.153   0.515   8.615
  560TIP3    H225660   3.126   0.626   8.519
  561TIP3   OH225661   2.448   0.422   8.334
  561TIP3    H125662   2.459   0.506   8.284
  561TIP3    H225663   2.408   0.365   8.266
  562TIP3   OH225664   3.221   0.429   8.172
  562TIP3    H125665   3.285   0.400   8.240
  562TIP3    H225666   3.277   0.487   8.118
  563TIP3   OH225667   2.108   0.663   8.407
  563TIP3    H125668   2.176   0.610   8.454
  563TIP3    H225669   2.121   0.632   8.316
  564TIP3   OH225670   2.625   0.820   8.343
  564TIP3    H125671   2.693   0.761   8.380
  564TIP3    H225672   2.575   0.756   8.289
  565TIP3   OH225673   3.725   0.475   8.881
  565TIP3    H125674   3.662   0.549   8.871
  565TIP3    H225675   3.726   0.460   8.977
  566TIP3   OH225676   2.339   0.314   8.734
  566TIP3    H125677   2.309   0.374   8.662
  566TIP3    H225678   2.272   0.335   8.805
  567TIP3   OH225679   3.064   1.259   8.093
  567TIP3    H125680   3.038   1.236   8.003
  567TIP3    H225681   3.038   1.354   8.099
  568TIP3   OH225682   2.586   1.076   8.755
  568TIP3    H125683   2.516   1.134   8.792
  568TIP3    H225684   2.668   1.125   8.741
  569TIP3   OH225685   3.402   0.369   8.372
  569TIP3    H125686   3.378   0.290   8.423
  569TIP3    H225687   3.471   0.408   8.427
  570TIP3   OH225688   2.295   0.503   8.540
  570TIP3    H125689   2.361   0.568   8.573
  570TIP3    H225690   2.347   0.459   8.468
  571TIP3   OH225691   2.437   1.279   8.837
  571TIP3    H125692   2.421   1.374   8.817
  571TIP3    H225693   2.352   1.263   8.887
  572TIP3   OH225694   2.037   1.238   7.924
  572TIP3    H125695   2.020   1.268   7.833
  572TIP3    H225696   2.047   1.322   7.972
  573TIP3   OH225697   3.402   1.405   8.600
  573TIP3    H125698   3.306   1.416   8.611
  573TIP3    H225699   3.430   1.496   8.579
  574TIP3   OH225700   3.438   0.239   8.750
  574TIP3    H125701   3.363   0.296   8.728
  574TIP3    H225702   3.506   0.268   8.687
  575TIP3   OH225703   2.724   0.055   8.450
  575TIP3    H125704   2.733  -0.035   8.485
  575TIP3    H225705   2.651   0.084   8.507
  576TIP3   OH225706   3.230   1.582   8.261
  576TIP3    H125707   3.271   1.511   8.208
  576TIP3    H225708   3.274   1.661   8.222
  577TIP3   OH225709   3.351   1.376   8.112
  577TIP3    H125710   3.323   1.307   8.050
  577TIP3    H225711   3.354   1.326   8.195
  578TIP3   OH225712   3.511   1.236   8.960
  578TIP3    H125713   3.526   1.170   8.889
  578TIP3    H225714   3.533   1.319   8.914
  579TIP3   OH225715   2.962   0.919   7.933
  579TIP3    H125716   2.895   0.985   7.905
  579TIP3    H225717   3.035   0.937   7.871
  580TIP3   OH225718   3.701   0.867   8.764
  580TIP3    H125719   3.635   0.940   8.767
  580TIP3    H225720   3.752   0.890   8.683
  581TIP3   OH225721   3.307   0.941   8.028
  581TIP3    H125722   3.236   0.970   8.090
  581TIP3    H225723   3.358   0.879   8.084
  582TIP3   OH225724   3.300   0.761   8.942
  582TIP3    H125725   3.300   0.844   8.993
  582TIP3    H225726   3.238   0.789   8.872
  583TIP3   OH225727   2.467   1.012   8.224
  583TIP3    H125728   2.435   0.975   8.138
  583TIP3    H225729   2.530   0.942   8.252
  584TIP3   OH225730   2.601   1.348   8.476
  584TIP3    H125731   2.593   1.301   8.390
  584TIP3    H225732   2.691   1.321   8.500
  585TIP3   OH225733   2.499   0.887   8.586
  585TIP3    H125734   2.554   0.893   8.505
  585TIP3    H225735   2.542   0.950   8.647
  586TIP3   OH225736   3.140   1.443   8.656
  586TIP3    H125737   3.118   1.507   8.725
  586TIP3    H225738   3.120   1.358   8.700
  587TIP3   OH225739   2.598   1.331   9.049
  587TIP3    H125740   2.556   1.400   9.106
  587TIP3    H225741   2.524   1.307   8.990
  588TIP3   OH225742   3.194   0.864   7.793
  588TIP3    H125743   3.248   0.883   7.874
  588TIP3    H225744   3.236   0.918   7.725
  589TIP3   OH225745   2.294   0.950   8.966
  589TIP3    H125746   2.296   1.010   9.042
  589TIP3    H225747   2.198   0.952   8.950
  590TIP3   OH225748   2.968   1.537   8.140
  590TIP3    H125749   3.010   1.569   8.222
  590TIP3    H225750   2.910   1.610   8.116
  591TIP3   OH225751   2.422   1.529   9.128
  591TIP3    H125752   2.412   1.523   9.032
  591TIP3    H225753   2.330   1.519   9.159
  592TIP3   OH225754   3.573   0.044   7.788
  592TIP3    H125755   3.476   0.043   7.804
  592TIP3    H225756   3.577   0.124   7.734
  593TIP3   OH225757   2.366   0.911   7.979
  593TIP3    H125758   2.337   0.991   7.930
  593TIP3    H225759   2.296   0.849   7.956
  594TIP3   OH225760   3.691   1.470   7.643
  594TIP3    H125761   3.693   1.565   7.628
  594TIP3    H225762   3.775   1.440   7.609
  595TIP3   OH225763   1.973   1.156   8.873
  595TIP3    H125764   1.930   1.146   8.786
  595TIP3    H225765   1.984   1.061   8.894
  596TIP3   OH225766   1.949   1.446   8.540
  596TIP3    H125767   2.041   1.411   8.546
  596TIP3    H225768   1.952   1.506   8.616
  597TIP3   OH225769   3.774   1.501   9.119
  597TIP3    H125770   3.762   1.405   9.115
  597TIP3    H225771   3.686   1.525   9.156
  598TIP3   OH225772   2.866   1.454   9.000
  598TIP3    H125773   2.877   1.536   9.053
  598TIP3    H225774   2.782   1.417   9.032
  599TIP3   OH225775   2.913   1.830   7.986
  599TIP3    H125776   2.907   1.822   7.890
  599TIP3    H225777   2.917   1.926   8.001
  600TIP3   OH225778   2.274   1.720   8.170
  600TIP3    H125779   2.294   1.674   8.254
  600TIP3    H225780   2.194   1.673   8.139
  601TIP3   OH225781   3.186   1.749   7.963
  601TIP3    H125782   3.090   1.750   7.975
  601TIP3    H225783   3.211   1.670   8.013
  602TIP3   OH225784   3.487   0.649   9.166
  602TIP3    H125785   3.440   0.693   9.093
  602TIP3    H225786   3.487   0.557   9.136
  603TIP3   OH225787   2.207   1.285   8.964
  603TIP3    H125788   2.224   1.252   9.055
  603TIP3    H225789   2.117   1.250   8.945
  604TIP3   OH225790   2.474   0.141   8.555
  604TIP3    H125791   2.386   0.136   8.514
  604TIP3    H225792   2.457   0.218   8.612
  605TIP3   OH225793   2.937   0.106   8.901
  605TIP3    H125794   2.977   0.059   8.974
  605TIP3    H225795   2.841   0.090   8.913
  606TIP3   OH225796   3.262   0.482   8.986
  606TIP3    H125797   3.206   0.466   9.065
  606TIP3    H225798   3.248   0.576   8.964
  607TIP3   OH225799   2.481   0.633   8.689
  607TIP3    H125800   2.406   0.633   8.751
  607TIP3    H225801   2.476   0.723   8.649
  608TIP3   OH225802   2.477   0.642   8.172
  608TIP3    H125803   2.382   0.620   8.158
  608TIP3    H225804   2.514   0.615   8.087
  609TIP3   OH225805   3.023   0.687   8.037
  609TIP3    H125806   2.992   0.779   8.016
  609TIP3    H225807   3.105   0.679   7.987
  610TIP3   OH225808   2.934   0.716   9.193
  610TIP3    H125809   2.882   0.638   9.223
  610TIP3    H225810   3.018   0.704   9.240
  611TIP3   OH225811   3.133   0.645   8.334
  611TIP3    H125812   3.104   0.701   8.260
  611TIP3    H225813   3.142   0.559   8.288
  612TIP3   OH225814   2.241   0.659   8.853
  612TIP3    H125815   2.253   0.698   8.941
  612TIP3    H225816   2.199   0.574   8.875
  613TIP3   OH225817   1.912   0.374   8.252
  613TIP3    H125818   1.979   0.367   8.324
  613TIP3    H225819   1.955   0.333   8.175
  614TIP3   OH225820   2.034   0.448   7.795
  614TIP3    H125821   2.085   0.500   7.732
  614TIP3    H225822   1.965   0.511   7.821
  615TIP3   OH225823   3.052   0.801   8.788
  615TIP3    H125824   3.091   0.732   8.730
  615TIP3    H225825   3.005   0.749   8.855
  616TIP3   OH225826   2.734   0.404   8.273
  616TIP3    H125827   2.641   0.397   8.300
  616TIP3    H225828   2.781   0.382   8.355
  617TIP3   OH225829   2.214   0.556   8.159
  617TIP3    H125830   2.125   0.569   8.119
  617TIP3    H225831   2.243   0.473   8.118
  618TIP3   OH225832   2.576   0.557   7.910
  618TIP3    H125833   2.667   0.571   7.943
  618TIP3    H225834   2.550   0.634   7.859
  619TIP3   OH225835   3.175   0.327   8.592
  619TIP3    H125836   3.107   0.327   8.663
  619TIP3    H225837   3.126   0.293   8.516
  620TIP3   OH225838   3.492   1.887   9.229
  620TIP3    H125839   3.519   1.925   9.144
  620TIP3    H225840   3.565   1.919   9.285
  621TIP3   OH225841   2.260   1.135   9.187
  621TIP3    H125842   2.333   1.159   9.247
  621TIP3    H225843   2.183   1.141   9.248
  622TIP3   OH225844   2.861   0.676   8.462
  622TIP3    H125845   2.921   0.622   8.410
  622TIP3    H225846   2.845   0.621   8.540
  623TIP3   OH225847   2.359   0.292   8.103
  623TIP3    H125848   2.330   0.199   8.105
  623TIP3    H225849   2.439   0.281   8.050
  624TIP3   OH225850   2.724   0.508   8.704
  624TIP3    H125851   2.642   0.562   8.712
  624TIP3    H225852   2.781   0.544   8.775
  625TIP3   OH225853   2.785   1.119   7.875
  625TIP3    H125854   2.700   1.085   7.841
  625TIP3    H225855   2.760   1.149   7.965
  626TIP3   OH225856   3.503   1.052   8.754
  626TIP3    H125857   3.558   1.100   8.689
  626TIP3    H225858   3.417   1.054   8.708
  627TIP3   OH225859   3.170   0.414   7.684
  627TIP3    H125860   3.076   0.414   7.684
  627TIP3    H225861   3.204   0.497   7.726
  628TIP3   OH225862   2.923   1.159   8.994
  628TIP3    H125863   2.901   1.114   9.076
  628TIP3    H225864   2.909   1.252   9.014
  629TIP3   OH225865   3.237   0.605   7.858
  629TIP3    H125866   3.326   0.590   7.899
  629TIP3    H225867   3.253   0.688   7.810
  630TIP3   OH225868   2.300   1.073   8.456
  630TIP3    H125869   2.359   1.059   8.380
  630TIP3    H225870   2.298   0.984   8.497
  631TIP3   OH225871   2.991   1.278   7.779
  631TIP3    H125872   2.958   1.364   7.813
  631TIP3    H225873   2.919   1.216   7.799
  632TIP3   OH225874   1.994   0.910   8.979
  632TIP3    H125875   2.010   0.866   9.065
  632TIP3    H225876   1.933   0.849   8.936
  633TIP3   OH225877   2.694   0.868   9.195
  633TIP3    H125878   2.662   0.834   9.111
  633TIP3    H225879   2.786   0.833   9.196
  634TIP3   OH225880   3.165   1.400   8.994
  634TIP3    H125881   3.073   1.418   8.969
  634TIP3    H225882   3.161   1.430   9.087
  635TIP3   OH225883   3.728   0.619   7.832
  635TIP3    H125884   3.669   0.592   7.759
  635TIP3    H225885   3.737   0.714   7.809
  636TIP3   OH225886   3.729   1.204   9.111
  636TIP3    H125887   3.639   1.226   9.075
  636TIP3    H225888   3.783   1.198   9.029
  637TIP3   OH225889   3.562   1.499   7.873
  637TIP3    H125890   3.521   1.417   7.902
  637TIP3    H225891   3.590   1.478   7.781
  638TIP3   OH225892   3.280   0.982   8.581
  638TIP3    H125893   3.186   0.962   8.570
  638TIP3    H225894   3.323   0.907   8.537
  639TIP3   OH225895   2.531   1.417   8.195
  639TIP3    H125896   2.581   1.497   8.167
  639TIP3    H225897   2.445   1.438   8.157
  640TIP3   OH225898   2.674   1.183   8.148
  640TIP3    H125899   2.639   1.274   8.150
  640TIP3    H225900   2.600   1.132   8.185
  641TIP3   OH225901   2.719   1.595   8.783
  641TIP3    H125902   2.762   1.679   8.756
  641TIP3    H225903   2.780   1.569   8.854
  642TIP3   OH225904   2.539   1.677   8.110
  642TIP3    H125905   2.444   1.697   8.108
  642TIP3    H225906   2.577   1.766   8.126
  643TIP3   OH225907   3.063   1.196   8.743
  643TIP3    H125908   3.041   1.181   8.837
  643TIP3    H225909   3.134   1.131   8.728
  644TIP3   OH225910   3.296   1.305   7.662
  644TIP3    H125911   3.328   1.254   7.737
  644TIP3    H225912   3.201   1.290   7.662
  645TIP3   OH225913   3.353   1.658   8.994
  645TIP3    H125914   3.283   1.609   8.948
  645TIP3    H225915   3.370   1.728   8.928
  646TIP3   OH225916   3.756   1.747   7.690
  646TIP3    H125917   3.823   1.808   7.657
  646TIP3    H225918   3.680   1.803   7.707
  647TIP3   OH225919   2.158   0.383   8.935
  647TIP3    H125920   2.068   0.417   8.933
  647TIP3    H225921   2.145   0.297   8.979
  648TIP3   OH225922   3.383   1.173   7.890
  648TIP3    H125923   3.360   1.090   7.935
  648TIP3    H225924   3.479   1.173   7.897
  649TIP3   OH225925   2.121   1.559   8.773
  649TIP3    H125926   2.152   1.468   8.780
  649TIP3    H225927   2.143   1.592   8.862
  650TIP3   OH225928   2.259   1.094   7.809
  650TIP3    H125929   2.177   1.129   7.848
  650TIP3    H225930   2.293   1.175   7.766
  651TIP3   OH225931   3.032   0.360   8.832
  651TIP3    H125932   3.104   0.363   8.896
  651TIP3    H225933   2.996   0.271   8.849
  652TIP3   OH225934   3.106   0.321   7.941
  652TIP3    H125935   3.138   0.361   7.859
  652TIP3    H225936   3.162   0.366   8.007
  653TIP3   OH225937   2.878   1.539   7.827
  653TIP3    H125938   2.792   1.583   7.822
  653TIP3    H225939   2.926   1.583   7.756
  654TIP3   OH225940   2.825   0.499   8.017
  654TIP3    H125941   2.907   0.551   8.030
  654TIP3    H225942   2.799   0.478   8.109
  655TIP3   OH225943   2.886   0.597   8.941
  655TIP3    H125944   2.893   0.650   9.023
  655TIP3    H225945   2.949   0.525   8.951
  656TIP3   OH225946   2.916   0.201   8.111
  656TIP3    H125947   2.881   0.267   8.174
  656TIP3    H225948   2.984   0.256   8.066
  657TIP3   OH225949   2.480   0.314   7.773
  657TIP3    H125950   2.472   0.399   7.820
  657TIP3    H225951   2.566   0.284   7.807
  658TIP3   OH225952   3.501   0.386   9.024
  658TIP3    H125953   3.408   0.415   9.010
  658TIP3    H225954   3.531   0.377   8.932
  659TIP3   OH225955   3.364   0.761   8.424
  659TIP3    H125956   3.281   0.716   8.398
  659TIP3    H225957   3.412   0.693   8.476
  660TIP3   OH225958   2.310   1.343   7.696
  660TIP3    H125959   2.363   1.423   7.712
  660TIP3    H225960   2.353   1.307   7.617
  661TIP3   OH225961   3.470   1.688   8.592
  661TIP3    H125962   3.462   1.756   8.522
  661TIP3    H225963   3.566   1.692   8.610
  662TIP3   OH225964   2.205   0.124   8.460
  662TIP3    H125965   2.190   0.110   8.363
  662TIP3    H225966   2.184   0.035   8.494
  663TIP3   OH225967   2.114   1.496   8.092
  663TIP3    H125968   2.028   1.537   8.075
  663TIP3    H225969   2.163   1.534   8.016
  664TIP3   OH225970   2.034   1.757   9.215
  664TIP3    H125971   2.095   1.737   9.289
  664TIP3    H225972   1.995   1.670   9.196
  665TIP3   OH225973   2.504   1.649   9.375
  665TIP3    H125974   2.578   1.599   9.410
  665TIP3    H225975   2.501   1.620   9.282
  666TIP3   OH225976   3.152   1.487   9.252
  666TIP3    H125977   3.121   1.398   9.280
  666TIP3    H225978   3.230   1.499   9.311
  667TIP3   OH225979   2.024   1.134   9.316
  667TIP3    H125980   2.042   1.042   9.287
  667TIP3    H225981   1.951   1.159   9.258
  668TIP3   OH225982   2.463   1.157   7.515
  668TIP3    H125983   2.471   1.093   7.587
  668TIP3    H225984   2.546   1.150   7.468
  669TIP3   OH225985   2.697   1.133   9.255
  669TIP3    H125986   2.664   1.164   9.169
  669TIP3    H225987   2.704   1.035   9.243
  670TIP3   OH225988   2.978   1.275   7.494
  670TIP3    H125989   2.980   1.289   7.590
  670TIP3    H225990   2.994   1.180   7.484
  671TIP3   OH225991   3.266   1.118   8.993
  671TIP3    H125992   3.346   1.176   8.989
  671TIP3    H225993   3.198   1.186   8.997
  672TIP3   OH225994   2.119   0.856   9.254
  672TIP3    H125995   2.159   0.769   9.246
  672TIP3    H225996   2.095   0.857   9.348
  673TIP3   OH225997   2.589   0.967   7.758
  673TIP3    H125998   2.531   0.925   7.824
  673TIP3    H225999   2.607   0.897   7.695
  674TIP3   OH226000   2.507   0.750   8.989
  674TIP3    H126001   2.448   0.823   9.014
  674TIP3    H226002   2.548   0.785   8.909
  675TIP3   OH226003   3.016   1.008   9.324
  675TIP3    H126004   3.112   1.005   9.312
  675TIP3    H226005   2.998   0.931   9.380
  676TIP3   OH226006   2.550   0.491   9.094
  676TIP3    H126007   2.561   0.421   9.028
  676TIP3    H226008   2.544   0.572   9.039
  677TIP3   OH226009   2.590   0.327   8.850
  677TIP3    H126010   2.640   0.373   8.779
  677TIP3    H226011   2.500   0.320   8.811
  678TIP3   OH226012   2.742   0.878   8.874
  678TIP3    H126013   2.819   0.858   8.819
  678TIP3    H226014   2.707   0.960   8.839
  679TIP3   OH226015   3.182   0.650   9.369
  679TIP3    H126016   3.206   0.556   9.361
  679TIP3    H226017   3.268   0.695   9.374
  680TIP3   OH226018   3.317   0.933   9.189
  680TIP3    H126019   3.291   1.003   9.126
  680TIP3    H226020   3.412   0.928   9.170
  681TIP3   OH226021   2.395   0.613   9.286
  681TIP3    H126022   2.318   0.556   9.270
  681TIP3    H226023   2.461   0.576   9.225
  682TIP3   OH226024   2.659   0.079   8.892
  682TIP3    H126025   2.647   0.177   8.880
  682TIP3    H226026   2.584   0.041   8.847
  683TIP3   OH226027   2.794   0.504   9.253
  683TIP3    H126028   2.763   0.480   9.342
  683TIP3    H226029   2.717   0.482   9.198
  684TIP3   OH226030   3.066   0.425   9.164
  684TIP3    H126031   2.970   0.421   9.172
  684TIP3    H226032   3.095   0.357   9.228
  685TIP3   OH226033   3.224   0.289   9.350
  685TIP3    H126034   3.223   0.190   9.348
  685TIP3    H226035   3.199   0.307   9.442
  686TIP3   OH226036   2.202   0.409   9.262
  686TIP3    H126037   2.227   0.334   9.204
  686TIP3    H226038   2.194   0.364   9.349
  687TIP3   OH226039   2.700   8.146   9.136
  687TIP3    H126040   2.767   8.075   9.142
  687TIP3    H226041   2.677   8.132   9.043
  688TIP3   OH226042   2.723   0.177   9.371
  688TIP3    H126043   2.711   0.131   9.285
  688TIP3    H226044   2.666   0.254   9.361
  689TIP3   OH226045   1.902   1.858   8.135
  689TIP3    H126046   1.835   1.808   8.083
  689TIP3    H226047   1.937   1.792   8.197
  690TIP3   OH226048   1.976   1.674   8.324
  690TIP3    H126049   1.972   1.578   8.331
  690TIP3    H226050   2.028   1.704   8.403
  691TIP3   OH226051   3.742   1.752   8.612
  691TIP3    H126052   3.745   1.767   8.708
  691TIP3    H226053   3.812   1.810   8.582
  692TIP3   OH226054   3.699   1.711   8.907
  692TIP3    H126055   3.652   1.634   8.868
  692TIP3    H226056   3.747   1.666   8.979
  693TIP3   OH226057   3.543   1.283   9.375
  693TIP3    H126058   3.453   1.281   9.411
  693TIP3    H226059   3.580   1.364   9.415
  694TIP3   OH226060   3.679   1.115   7.913
  694TIP3    H126061   3.764   1.156   7.936
  694TIP3    H226062   3.675   1.045   7.982
  695TIP3   OH226063   3.710   0.925   8.104
  695TIP3    H126064   3.635   0.875   8.144
  695TIP3    H226065   3.770   0.937   8.181
  696TIP3   OH226066   3.686   1.193   8.605
  696TIP3    H126067   3.767   1.155   8.566
  696TIP3    H226068   3.701   1.288   8.587
  697TIP3   OH226069   3.543   1.484   8.831
  697TIP3    H126070   3.474   1.518   8.890
  697TIP3    H226071   3.488   1.444   8.760
  698TIP3   OH226072   3.733   0.903   7.744
  698TIP3    H126073   3.686   0.946   7.672
  698TIP3    H226074   3.736   0.978   7.807
  699TIP3   OH226075   3.585   0.619   7.598
  699TIP3    H126076   3.574   0.695   7.539
  699TIP3    H226077   3.549   0.548   7.545
  700TIP3   OH226078   3.493   0.771   8.164
  700TIP3    H126079   3.479   0.676   8.158
  700TIP3    H226080   3.462   0.791   8.254
  701TIP3   OH226081   1.991   0.979   8.571
  701TIP3    H126082   2.008   0.970   8.474
  701TIP3    H226083   2.082   0.961   8.604
  702TIP3   OH226084   3.580   0.969   9.133
  702TIP3    H126085   3.640   0.892   9.145
  702TIP3    H226086   3.641   1.045   9.133
  703TIP3   OH226087   3.729   0.755   9.197
  703TIP3    H126088   3.641   0.716   9.182
  703TIP3    H226089   3.786   0.677   9.190
  704TIP3   OH226090   3.459   0.532   8.006
  704TIP3    H126091   3.489   0.440   8.021
  704TIP3    H226092   3.541   0.570   7.972
  705TIP3   OH226093   3.523   0.586   8.552
  705TIP3    H126094   3.620   0.605   8.551
  705TIP3    H226095   3.505   0.594   8.647
  706TIP3   OH226096   3.529   0.658   8.829
  706TIP3    H126097   3.441   0.686   8.862
  706TIP3    H226098   3.574   0.744   8.809
  707TIP3   OH226099   1.958   0.513   9.187
  707TIP3    H126100   2.050   0.485   9.203
  707TIP3    H226101   1.910   0.431   9.210
  708TIP3   OH226102   3.770   0.072   9.381
  708TIP3    H126103   3.783   0.005   9.311
  708TIP3    H226104   3.764   0.148   9.321
  709TIP3   OH226105   3.523   0.261   8.010
  709TIP3    H126106   3.547   0.218   8.096
  709TIP3    H226107   3.463   0.196   7.969
  710TIP3   OH226108   2.070   0.346   8.471
  710TIP3    H126109   2.116   0.262   8.492
  710TIP3    H226110   2.131   0.411   8.508
  711TIP3   OH226111   1.900   0.641   8.570
  711TIP3    H126112   1.960   0.612   8.498
  711TIP3    H226113   1.952   0.719   8.599
  712TIP3   OH226114   3.712   0.277   9.198
  712TIP3    H126115   3.617   0.298   9.195
  712TIP3    H226116   3.712   0.215   9.123
  713TIP3   OH226117   1.939   0.266   7.980
  713TIP3    H126118   1.846   0.284   7.964
  713TIP3    H226119   1.982   0.314   7.906
  714TIP3   OH226120   3.414   1.759   8.176
  714TIP3    H126121   3.481   1.729   8.113
  714TIP3    H226122   3.464   1.810   8.240
  715TIP3   OH226123   1.940   0.144   8.804
  715TIP3    H126124   1.880   0.122   8.876
  715TIP3    H226125   1.888   0.207   8.750
  716TIP3   OH226126   2.160   1.449   9.225
  716TIP3    H126127   2.076   1.472   9.182
  716TIP3    H226128   2.133   1.442   9.317
  717TIP3   OH226129   2.449   1.548   8.846
  717TIP3    H126130   2.415   1.638   8.829
  717TIP3    H226131   2.543   1.566   8.826
  718TIP3   OH226132   2.881   1.693   9.144
  718TIP3    H126133   2.895   1.658   9.235
  718TIP3    H226134   2.971   1.724   9.120
  719TIP3   OH226135   3.109   1.820   9.075
  719TIP3    H126136   3.183   1.762   9.051
  719TIP3    H226137   3.147   1.864   9.155
  720TIP3   OH226138   3.600   0.103   8.988
  720TIP3    H126139   3.513   0.122   8.950
  720TIP3    H226140   3.608   0.009   8.966
  721TIP3   OH226141   2.193   1.874   8.851
  721TIP3    H126142   2.118   1.925   8.815
  721TIP3    H226143   2.163   1.856   8.942
  722TIP3   OH226144   2.439   1.832   8.761
  722TIP3    H126145   2.349   1.846   8.800
  722TIP3    H226146   2.433   1.884   8.680
  723TIP3   OH226147   2.905   1.818   8.679
  723TIP3    H126148   2.865   1.876   8.613
  723TIP3    H226149   2.923   1.883   8.751
  724TIP3   OH226150   3.137   1.703   8.782
  724TIP3    H126151   3.052   1.731   8.743
  724TIP3    H226152   3.187   1.786   8.772
  725TIP3   OH226153   3.395   1.860   8.802
  725TIP3    H126154   3.392   1.956   8.779
  725TIP3    H226155   3.418   1.822   8.714
  726TIP3   OH226156   2.131   1.734   8.545
  726TIP3    H126157   2.133   1.695   8.635
  726TIP3    H226158   2.217   1.703   8.508
  727TIP3   OH226159   2.340   1.610   8.418
  727TIP3    H126160   2.329   1.515   8.436
  727TIP3    H226161   2.429   1.628   8.454
  728TIP3   OH226162   2.602   1.661   8.503
  728TIP3    H126163   2.620   1.571   8.471
  728TIP3    H226164   2.611   1.654   8.599
  729TIP3   OH226165   2.946   0.230   8.409
  729TIP3    H126166   2.885   0.162   8.441
  729TIP3    H226167   3.009   0.175   8.361
  730TIP3   OH226168   3.468   0.058   8.437
  730TIP3    H126169   3.527   0.094   8.367
  730TIP3    H226170   3.379   0.062   8.397
  731TIP3   OH226171   3.633   0.161   8.242
  731TIP3    H126172   3.697   0.097   8.209
  731TIP3    H226173   3.685   0.242   8.263
  732TIP3   OH226174   2.180   0.082   8.201
  732TIP3    H126175   2.108   0.068   8.139
  732TIP3    H226176   2.232   0.001   8.189
  733TIP3   OH226177   2.089   0.107   7.784
  733TIP3    H126178   2.112   0.159   7.704
  733TIP3    H226179   2.003   0.142   7.814
  734TIP3   OH226180   2.629   0.091   8.178
  734TIP3    H126181   2.721   0.118   8.168
  734TIP3    H226182   2.636   0.057   8.268
  735TIP3   OH226183   3.205   0.083   8.343
  735TIP3    H126184   3.203   0.088   8.247
  735TIP3    H226185   3.171  -0.008   8.355
  736TIP3   OH226186   3.317   0.097   7.872
  736TIP3    H126187   3.244   0.158   7.890
  736TIP3    H226188   3.290   0.017   7.919
  737TIP3   OH226189   2.050   1.661   7.881
  737TIP3    H126190   1.994   1.656   7.801
  737TIP3    H226191   2.061   1.757   7.885
  738TIP3   OH226192   2.245   0.249   7.620
  738TIP3    H126193   2.304   0.195   7.569
  738TIP3    H226194   2.309   0.288   7.682
  739TIP3   OH226195   2.744   0.289   7.868
  739TIP3    H126196   2.775   0.224   7.933
  739TIP3    H226197   2.757   0.371   7.919
  740TIP3   OH226198   2.945   1.791   7.700
  740TIP3    H126199   3.039   1.806   7.685
  740TIP3    H226200   2.920   1.733   7.626
  741TIP3   OH226201   3.611   1.742   7.975
  741TIP3    H126202   3.593   1.660   7.921
  741TIP3    H226203   3.603   1.813   7.911
  742TIP3   OH226204   2.177   0.146   9.148
  742TIP3    H126205   2.141   0.062   9.179
  742TIP3    H226206   2.269   0.134   9.177
  743TIP3   OH226207   2.380   0.087   9.321
  743TIP3    H126208   2.462   0.054   9.282
  743TIP3    H226209   2.333   0.002   9.333
  744TIP3   OH226210   3.229   8.110   9.329
  744TIP3    H126211   3.227   8.043   9.398
  744TIP3    H226212   3.312   8.088   9.284
  745TIP3   OH226213   3.538   1.613   9.186
  745TIP3    H126214   3.457   1.600   9.131
  745TIP3    H226215   3.526   1.707   9.208
  746TIP3   OH226216   4.984   1.001   8.182
  746TIP3    H126217   4.980   1.099   8.182
  746TIP3    H226218   4.908   0.977   8.127
  747TIP3   OH226219   4.868   0.925   8.533
  747TIP3    H126220   4.866   0.861   8.606
  747TIP3    H226221   4.831   0.874   8.459
  748TIP3   OH226222   4.103   0.894   8.690
  748TIP3    H126223   4.111   0.825   8.758
  748TIP3    H226224   4.178   0.951   8.712
  749TIP3   OH226225   5.235   1.221   8.363
  749TIP3    H126226   5.195   1.149   8.413
  749TIP3    H226227   5.239   1.291   8.431
  750TIP3   OH226228   4.195   1.339   8.538
  750TIP3    H126229   4.164   1.251   8.508
  750TIP3    H226230   4.290   1.321   8.543
  751TIP3   OH226231   3.859   0.695   8.091
  751TIP3    H126232   3.815   0.781   8.082
  751TIP3    H226233   3.803   0.639   8.034
  752TIP3   OH226234   3.931   0.919   8.304
  752TIP3    H126235   3.958   0.835   8.348
  752TIP3    H226236   3.999   0.928   8.236
  753TIP3   OH226237   4.947   1.737   8.387
  753TIP3    H126238   5.013   1.669   8.357
  753TIP3    H226239   4.926   1.701   8.473
  754TIP3   OH226240   4.705   1.164   8.583
  754TIP3    H126241   4.738   1.104   8.515
  754TIP3    H226242   4.787   1.181   8.633
  755TIP3   OH226243   5.569   0.325   8.656
  755TIP3    H126244   5.581   0.390   8.729
  755TIP3    H226245   5.620   0.371   8.588
  756TIP3   OH226246   5.022   0.612   8.615
  756TIP3    H126247   5.038   0.515   8.615
  756TIP3    H226248   5.011   0.626   8.519
  757TIP3   OH226249   4.334   0.423   8.334
  757TIP3    H126250   4.345   0.507   8.284
  757TIP3    H226251   4.294   0.365   8.265
  758TIP3   OH226252   5.106   0.427   8.169
  758TIP3    H126253   5.170   0.400   8.240
  758TIP3    H226254   5.163   0.487   8.119
  759TIP3   OH226255   3.994   0.664   8.408
  759TIP3    H126256   4.061   0.610   8.454
  759TIP3    H226257   4.006   0.632   8.317
  760TIP3   OH226258   4.510   0.818   8.343
  760TIP3    H126259   4.579   0.760   8.379
  760TIP3    H226260   4.461   0.754   8.288
  761TIP3   OH226261   5.611   0.475   8.881
  761TIP3    H126262   5.547   0.549   8.871
  761TIP3    H226263   5.611   0.460   8.977
  762TIP3   OH226264   4.225   0.314   8.734
  762TIP3    H126265   4.195   0.374   8.662
  762TIP3    H226266   4.158   0.335   8.804
  763TIP3   OH226267   4.950   1.260   8.095
  763TIP3    H126268   4.926   1.237   8.005
  763TIP3    H226269   4.923   1.354   8.100
  764TIP3   OH226270   4.475   1.076   8.762
  764TIP3    H126271   4.405   1.140   8.785
  764TIP3    H226272   4.546   1.135   8.733
  765TIP3   OH226273   5.287   0.369   8.372
  765TIP3    H126274   5.264   0.290   8.423
  765TIP3    H226275   5.357   0.408   8.427
  766TIP3   OH226276   4.181   0.503   8.540
  766TIP3    H126277   4.246   0.568   8.573
  766TIP3    H226278   4.232   0.459   8.467
  767TIP3   OH226279   4.321   1.277   8.844
  767TIP3    H126280   4.315   1.368   8.811
  767TIP3    H226281   4.232   1.268   8.888
  768TIP3   OH226282   3.923   1.236   7.922
  768TIP3    H126283   3.904   1.268   7.832
  768TIP3    H226284   3.936   1.319   7.972
  769TIP3   OH226285   5.289   1.405   8.600
  769TIP3    H126286   5.192   1.416   8.612
  769TIP3    H226287   5.315   1.496   8.579
  770TIP3   OH226288   5.324   0.239   8.750
  770TIP3    H126289   5.249   0.296   8.728
  770TIP3    H226290   5.392   0.269   8.687
  771TIP3   OH226291   4.609   0.055   8.449
  771TIP3    H126292   4.617  -0.034   8.487
  771TIP3    H226293   4.537   0.085   8.506
  772TIP3   OH226294   5.115   1.582   8.260
  772TIP3    H126295   5.157   1.511   8.208
  772TIP3    H226296   5.159   1.661   8.221
  773TIP3   OH226297   5.238   1.374   8.110
  773TIP3    H126298   5.207   1.306   8.050
  773TIP3    H226299   5.239   1.327   8.195
  774TIP3   OH226300   5.397   1.236   8.960
  774TIP3    H126301   5.412   1.170   8.889
  774TIP3    H226302   5.418   1.319   8.914
  775TIP3   OH226303   4.846   0.927   7.934
  775TIP3    H126304   4.775   0.980   7.900
  775TIP3    H226305   4.921   0.931   7.870
  776TIP3   OH226306   4.857   0.782   7.639
  776TIP3    H126307   4.930   0.776   7.703
  776TIP3    H226308   4.879   0.708   7.580
  777TIP3   OH226309   5.587   0.867   8.763
  777TIP3    H126310   5.521   0.939   8.767
  777TIP3    H226311   5.637   0.891   8.683
  778TIP3   OH226312   5.193   0.947   8.028
  778TIP3    H126313   5.120   0.969   8.090
  778TIP3    H226314   5.241   0.880   8.080
  779TIP3   OH226315   5.186   0.761   8.942
  779TIP3    H126316   5.186   0.844   8.993
  779TIP3    H226317   5.123   0.789   8.872
  780TIP3   OH226318   4.355   1.011   8.218
  780TIP3    H126319   4.322   0.973   8.133
  780TIP3    H226320   4.414   0.941   8.254
  781TIP3   OH226321   4.484   1.349   8.489
  781TIP3    H126322   4.485   1.298   8.407
  781TIP3    H226323   4.564   1.313   8.533
  782TIP3   OH226324   4.386   0.886   8.587
  782TIP3    H126325   4.440   0.895   8.506
  782TIP3    H226326   4.426   0.952   8.647
  783TIP3   OH226327   5.030   1.443   8.658
  783TIP3    H126328   5.001   1.507   8.724
  783TIP3    H226329   5.004   1.358   8.699
  784TIP3   OH226330   4.482   1.329   9.056
  784TIP3    H126331   4.439   1.402   9.105
  784TIP3    H226332   4.415   1.308   8.986
  785TIP3   OH226333   5.080   0.865   7.794
  785TIP3    H126334   5.133   0.882   7.876
  785TIP3    H226335   5.123   0.919   7.726
  786TIP3   OH226336   4.177   0.944   8.969
  786TIP3    H126337   4.182   1.011   9.041
  786TIP3    H226338   4.082   0.950   8.951
  787TIP3   OH226339   4.853   1.536   8.139
  787TIP3    H126340   4.895   1.566   8.220
  787TIP3    H226341   4.796   1.612   8.119
  788TIP3   OH226342   4.307   1.532   9.130
  788TIP3    H126343   4.300   1.522   9.034
  788TIP3    H226344   4.214   1.518   9.158
  789TIP3   OH226345   5.457   0.052   7.787
  789TIP3    H126346   5.361   0.050   7.801
  789TIP3    H226347   5.472   0.131   7.734
  790TIP3   OH226348   4.248   0.912   7.986
  790TIP3    H126349   4.221   0.990   7.931
  790TIP3    H226350   4.185   0.846   7.956
  791TIP3   OH226351   5.570   1.471   7.647
  791TIP3    H126352   5.570   1.565   7.622
  791TIP3    H226353   5.653   1.442   7.606
  792TIP3   OH226354   3.860   1.157   8.873
  792TIP3    H126355   3.815   1.148   8.786
  792TIP3    H226356   3.869   1.062   8.894
  793TIP3   OH226357   3.835   1.431   8.547
  793TIP3    H126358   3.931   1.418   8.547
  793TIP3    H226359   3.827   1.512   8.599
  794TIP3   OH226360   5.661   1.500   9.123
  794TIP3    H126361   5.646   1.405   9.113
  794TIP3    H226362   5.571   1.525   9.154
  795TIP3   OH226363   4.755   1.454   9.004
  795TIP3    H126364   4.761   1.538   9.056
  795TIP3    H226365   4.668   1.417   9.029
  796TIP3   OH226366   4.795   1.829   7.980
  796TIP3    H126367   4.796   1.826   7.883
  796TIP3    H226368   4.804   1.923   8.002
  797TIP3   OH226369   4.164   1.716   8.167
  797TIP3    H126370   4.179   1.676   8.255
  797TIP3    H226371   4.078   1.675   8.144
  798TIP3   OH226372   5.071   1.749   7.962
  798TIP3    H126373   4.976   1.750   7.978
  798TIP3    H226374   5.100   1.670   8.009
  799TIP3   OH226375   5.373   0.649   9.166
  799TIP3    H126376   5.325   0.693   9.093
  799TIP3    H226377   5.372   0.557   9.136
  800TIP3   OH226378   4.089   1.287   8.966
  800TIP3    H126379   4.110   1.251   9.054
  800TIP3    H226380   4.001   1.248   8.945
  801TIP3   OH226381   4.359   0.140   8.555
  801TIP3    H126382   4.271   0.136   8.514
  801TIP3    H226383   4.343   0.217   8.612
  802TIP3   OH226384   4.822   0.106   8.901
  802TIP3    H126385   4.862   0.059   8.974
  802TIP3    H226386   4.727   0.090   8.913
  803TIP3   OH226387   5.147   0.482   8.986
  803TIP3    H126388   5.092   0.466   9.065
  803TIP3    H226389   5.133   0.576   8.964
  804TIP3   OH226390   4.797   0.347   7.638
  804TIP3    H126391   4.749   0.356   7.723
  804TIP3    H226392   4.744   0.277   7.598
  805TIP3   OH226393   4.367   0.634   8.688
  805TIP3    H126394   4.292   0.633   8.750
  805TIP3    H226395   4.362   0.724   8.648
  806TIP3   OH226396   4.363   0.641   8.173
  806TIP3    H126397   4.268   0.620   8.159
  806TIP3    H226398   4.400   0.617   8.086
  807TIP3   OH226399   4.914   0.693   8.044
  807TIP3    H126400   4.876   0.778   8.014
  807TIP3    H226401   4.985   0.677   7.980
  808TIP3   OH226402   4.819   0.716   9.193
  808TIP3    H126403   4.768   0.638   9.223
  808TIP3    H226404   4.903   0.704   9.240
  809TIP3   OH226405   5.019   0.644   8.333
  809TIP3    H126406   4.990   0.700   8.260
  809TIP3    H226407   5.027   0.559   8.287
  810TIP3   OH226408   4.128   0.658   8.853
  810TIP3    H126409   4.139   0.698   8.941
  810TIP3    H226410   4.084   0.574   8.875
  811TIP3   OH226411   3.797   0.373   8.249
  811TIP3    H126412   3.863   0.369   8.321
  811TIP3    H226413   3.841   0.331   8.174
  812TIP3   OH226414   3.915   0.444   7.785
  812TIP3    H126415   3.973   0.506   7.739
  812TIP3    H226416   3.852   0.508   7.825
  813TIP3   OH226417   4.937   0.801   8.788
  813TIP3    H126418   4.976   0.732   8.730
  813TIP3    H226419   4.890   0.749   8.855
  814TIP3   OH226420   4.619   0.404   8.273
  814TIP3    H126421   4.526   0.397   8.300
  814TIP3    H226422   4.667   0.382   8.354
  815TIP3   OH226423   4.097   0.554   8.160
  815TIP3    H126424   4.010   0.568   8.117
  815TIP3    H226425   4.128   0.471   8.119
  816TIP3   OH226426   4.459   0.559   7.923
  816TIP3    H126427   4.556   0.565   7.935
  816TIP3    H226428   4.437   0.625   7.856
  817TIP3   OH226429   5.060   0.327   8.592
  817TIP3    H126430   4.992   0.327   8.663
  817TIP3    H226431   5.011   0.293   8.516
  818TIP3   OH226432   4.332   0.683   7.682
  818TIP3    H126433   4.284   0.638   7.612
  818TIP3    H226434   4.416   0.697   7.637
  819TIP3   OH226435   5.378   1.887   9.229
  819TIP3    H126436   5.405   1.925   9.144
  819TIP3    H226437   5.450   1.919   9.285
  820TIP3   OH226438   4.146   1.134   9.187
  820TIP3    H126439   4.218   1.159   9.247
  820TIP3    H226440   4.069   1.141   9.248
  821TIP3   OH226441   4.746   0.676   8.462
  821TIP3    H126442   4.806   0.623   8.410
  821TIP3    H226443   4.731   0.621   8.540
  822TIP3   OH226444   4.246   0.290   8.105
  822TIP3    H126445   4.217   0.198   8.105
  822TIP3    H226446   4.324   0.283   8.048
  823TIP3   OH226447   4.609   0.508   8.704
  823TIP3    H126448   4.528   0.562   8.712
  823TIP3    H226449   4.666   0.544   8.775
  824TIP3   OH226450   5.389   1.052   8.754
  824TIP3    H126451   5.444   1.100   8.689
  824TIP3    H226452   5.302   1.054   8.708
  825TIP3   OH226453   4.818   1.157   8.997
  825TIP3    H126454   4.783   1.114   9.076
  825TIP3    H226455   4.792   1.250   9.009
  826TIP3   OH226456   5.128   0.592   7.854
  826TIP3    H126457   5.216   0.589   7.897
  826TIP3    H226458   5.133   0.675   7.805
  827TIP3   OH226459   4.181   1.071   8.453
  827TIP3    H126460   4.247   1.062   8.381
  827TIP3    H226461   4.186   0.986   8.499
  828TIP3   OH226462   4.882   1.274   7.785
  828TIP3    H126463   4.850   1.363   7.809
  828TIP3    H226464   4.805   1.222   7.798
  829TIP3   OH226465   3.878   0.910   8.980
  829TIP3    H126466   3.895   0.865   9.065
  829TIP3    H226467   3.816   0.849   8.935
  830TIP3   OH226468   4.580   0.867   9.196
  830TIP3    H126469   4.548   0.834   9.111
  830TIP3    H226470   4.672   0.833   9.196
  831TIP3   OH226471   5.050   1.400   8.993
  831TIP3    H126472   4.957   1.418   8.969
  831TIP3    H226473   5.046   1.429   9.086
  832TIP3   OH226474   5.605   0.625   7.838
  832TIP3    H126475   5.568   0.583   7.758
  832TIP3    H226476   5.632   0.708   7.800
  833TIP3   OH226477   5.614   1.203   9.111
  833TIP3    H126478   5.525   1.226   9.075
  833TIP3    H226479   5.668   1.198   9.029
  834TIP3   OH226480   5.446   1.501   7.877
  834TIP3    H126481   5.407   1.418   7.904
  834TIP3    H226482   5.471   1.487   7.782
  835TIP3   OH226483   5.166   0.982   8.582
  835TIP3    H126484   5.072   0.962   8.570
  835TIP3    H226485   5.209   0.907   8.537
  836TIP3   OH226486   4.417   1.414   8.192
  836TIP3    H126487   4.467   1.496   8.175
  836TIP3    H226488   4.329   1.438   8.161
  837TIP3   OH226489   3.996   0.889   7.658
  837TIP3    H126490   4.053   0.964   7.682
  837TIP3    H226491   3.909   0.931   7.669
  838TIP3   OH226492   4.558   1.183   8.142
  838TIP3    H126493   4.525   1.275   8.154
  838TIP3    H226494   4.488   1.132   8.188
  839TIP3   OH226495   4.603   1.601   8.786
  839TIP3    H126496   4.650   1.680   8.756
  839TIP3    H226497   4.665   1.566   8.852
  840TIP3   OH226498   4.425   1.681   8.096
  840TIP3    H126499   4.330   1.693   8.116
  840TIP3    H226500   4.464   1.763   8.131
  841TIP3   OH226501   4.954   1.199   8.746
  841TIP3    H126502   4.924   1.180   8.837
  841TIP3    H226503   5.019   1.129   8.729
  842TIP3   OH226504   5.183   1.285   7.651
  842TIP3    H126505   5.212   1.265   7.741
  842TIP3    H226506   5.088   1.292   7.663
  843TIP3   OH226507   5.239   1.658   8.994
  843TIP3    H126508   5.169   1.609   8.948
  843TIP3    H226509   5.256   1.728   8.928
  844TIP3   OH226510   4.045   0.383   8.935
  844TIP3    H126511   3.954   0.418   8.931
  844TIP3    H226512   4.030   0.297   8.978
  845TIP3   OH226513   5.271   1.160   7.875
  845TIP3    H126514   5.243   1.091   7.939
  845TIP3    H226515   5.361   1.178   7.904
  846TIP3   OH226516   4.005   1.561   8.777
  846TIP3    H126517   4.037   1.470   8.777
  846TIP3    H226518   4.031   1.591   8.864
  847TIP3   OH226519   4.482   1.367   7.749
  847TIP3    H126520   4.501   1.314   7.827
  847TIP3    H226521   4.492   1.457   7.782
  848TIP3   OH226522   4.137   1.092   7.806
  848TIP3    H126523   4.062   1.133   7.852
  848TIP3    H226524   4.177   1.170   7.765
  849TIP3   OH226525   4.917   0.360   8.832
  849TIP3    H126526   4.990   0.363   8.896
  849TIP3    H226527   4.882   0.271   8.849
  850TIP3   OH226528   5.010   0.309   7.929
  850TIP3    H126529   5.009   0.383   7.867
  850TIP3    H226530   5.044   0.358   8.006
  851TIP3   OH226531   4.753   1.530   7.814
  851TIP3    H126532   4.684   1.593   7.832
  851TIP3    H226533   4.818   1.582   7.764
  852TIP3   OH226534   4.718   0.490   8.022
  852TIP3    H126535   4.791   0.554   8.027
  852TIP3    H226536   4.685   0.482   8.114
  853TIP3   OH226537   4.771   0.597   8.941
  853TIP3    H126538   4.778   0.650   9.022
  853TIP3    H226539   4.835   0.525   8.951
  854TIP3   OH226540   4.803   0.199   8.114
  854TIP3    H126541   4.766   0.267   8.174
  854TIP3    H226542   4.868   0.255   8.066
  855TIP3   OH226543   4.362   0.303   7.793
  855TIP3    H126544   4.361   0.399   7.812
  855TIP3    H226545   4.457   0.286   7.800
  856TIP3   OH226546   5.386   0.386   9.024
  856TIP3    H126547   5.293   0.415   9.010
  856TIP3    H226548   5.417   0.377   8.932
  857TIP3   OH226549   5.249   0.761   8.425
  857TIP3    H126550   5.167   0.715   8.400
  857TIP3    H226551   5.298   0.693   8.476
  858TIP3   OH226552   4.195   1.347   7.694
  858TIP3    H126553   4.256   1.417   7.715
  858TIP3    H226554   4.232   1.308   7.612
  859TIP3   OH226555   5.355   1.688   8.592
  859TIP3    H126556   5.347   1.756   8.522
  859TIP3    H226557   5.452   1.692   8.609
  860TIP3   OH226558   4.091   0.125   8.461
  860TIP3    H126559   4.075   0.110   8.364
  860TIP3    H226560   4.071   0.036   8.495
  861TIP3   OH226561   4.002   1.491   8.087
  861TIP3    H126562   3.915   1.534   8.084
  861TIP3    H226563   4.046   1.538   8.016
  862TIP3   OH226564   3.919   1.757   9.215
  862TIP3    H126565   3.980   1.738   9.289
  862TIP3    H226566   3.880   1.669   9.198
  863TIP3   OH226567   4.389   1.649   9.377
  863TIP3    H126568   4.464   1.598   9.410
  863TIP3    H226569   4.386   1.620   9.283
  864TIP3   OH226570   5.042   1.485   9.249
  864TIP3    H126571   5.006   1.400   9.282
  864TIP3    H226572   5.115   1.499   9.311
  865TIP3   OH226573   3.910   1.133   9.316
  865TIP3    H126574   3.927   1.042   9.286
  865TIP3    H226575   3.837   1.159   9.258
  866TIP3   OH226576   4.583   1.133   9.254
  866TIP3    H126577   4.550   1.165   9.169
  866TIP3    H226578   4.589   1.035   9.243
  867TIP3   OH226579   5.152   1.118   8.994
  867TIP3    H126580   5.232   1.176   8.989
  867TIP3    H226581   5.083   1.186   8.997
  868TIP3   OH226582   4.005   0.856   9.254
  868TIP3    H126583   4.044   0.769   9.245
  868TIP3    H226584   3.981   0.857   9.348
  869TIP3   OH226585   4.393   0.750   8.988
  869TIP3    H126586   4.334   0.823   9.014
  869TIP3    H226587   4.434   0.787   8.908
  870TIP3   OH226588   4.569   0.794   7.588
  870TIP3    H126589   4.556   0.767   7.496
  870TIP3    H226590   4.667   0.790   7.592
  871TIP3   OH226591   4.901   1.008   9.324
  871TIP3    H126592   4.996   1.006   9.309
  871TIP3    H226593   4.884   0.931   9.379
  872TIP3   OH226594   4.436   0.492   9.094
  872TIP3    H126595   4.447   0.421   9.028
  872TIP3    H226596   4.430   0.572   9.039
  873TIP3   OH226597   4.475   0.328   8.850
  873TIP3    H126598   4.526   0.374   8.779
  873TIP3    H226599   4.386   0.320   8.811
  874TIP3   OH226600   4.628   0.877   8.874
  874TIP3    H126601   4.704   0.860   8.818
  874TIP3    H226602   4.591   0.960   8.840
  875TIP3   OH226603   5.067   0.650   9.370
  875TIP3    H126604   5.091   0.556   9.360
  875TIP3    H226605   5.153   0.695   9.374
  876TIP3   OH226606   5.202   0.933   9.189
  876TIP3    H126607   5.177   1.003   9.126
  876TIP3    H226608   5.298   0.928   9.170
  877TIP3   OH226609   4.281   0.613   9.286
  877TIP3    H126610   4.203   0.556   9.270
  877TIP3    H226611   4.346   0.576   9.224
  878TIP3   OH226612   4.545   0.079   8.891
  878TIP3    H126613   4.534   0.177   8.880
  878TIP3    H226614   4.469   0.042   8.847
  879TIP3   OH226615   4.681   0.503   9.251
  879TIP3    H126616   4.650   0.480   9.341
  879TIP3    H226617   4.602   0.483   9.198
  880TIP3   OH226618   4.952   0.425   9.165
  880TIP3    H126619   4.855   0.421   9.172
  880TIP3    H226620   4.980   0.358   9.229
  881TIP3   OH226621   5.109   0.289   9.351
  881TIP3    H126622   5.109   0.190   9.348
  881TIP3    H226623   5.084   0.307   9.443
  882TIP3   OH226624   4.088   0.409   9.262
  882TIP3    H126625   4.112   0.334   9.204
  882TIP3    H226626   4.079   0.364   9.349
  883TIP3   OH226627   4.586   8.146   9.136
  883TIP3    H126628   4.652   8.075   9.142
  883TIP3    H226629   4.562   8.132   9.042
  884TIP3   OH226630   4.610   0.176   9.370
  884TIP3    H126631   4.597   0.131   9.285
  884TIP3    H226632   4.552   0.254   9.361
  885TIP3   OH226633   3.791   1.859   8.129
  885TIP3    H126634   3.719   1.808   8.086
  885TIP3    H226635   3.819   1.796   8.198
  886TIP3   OH226636   3.873   1.672   8.320
  886TIP3    H126637   3.838   1.585   8.340
  886TIP3    H226638   3.896   1.705   8.408
  887TIP3   OH226639   5.628   1.752   8.612
  887TIP3    H126640   5.631   1.767   8.708
  887TIP3    H226641   5.698   1.810   8.582
  888TIP3   OH226642   5.585   1.711   8.907
  888TIP3    H126643   5.538   1.634   8.868
  888TIP3    H226644   5.632   1.666   8.979
  889TIP3   OH226645   5.428   1.283   9.376
  889TIP3    H126646   5.337   1.281   9.412
  889TIP3    H226647   5.464   1.365   9.414
  890TIP3   OH226648   5.558   1.115   7.918
  890TIP3    H126649   5.646   1.155   7.933
  890TIP3    H226650   5.562   1.044   7.985
  891TIP3   OH226651   5.595   0.926   8.103
  891TIP3    H126652   5.521   0.875   8.143
  891TIP3    H226653   5.656   0.936   8.179
  892TIP3   OH226654   5.572   1.193   8.604
  892TIP3    H126655   5.653   1.155   8.566
  892TIP3    H226656   5.587   1.288   8.587
  893TIP3   OH226657   5.428   1.484   8.831
  893TIP3    H126658   5.359   1.518   8.890
  893TIP3    H226659   5.374   1.444   8.760
  894TIP3   OH226660   5.445   0.625   7.594
  894TIP3    H126661   5.478   0.687   7.528
  894TIP3    H226662   5.452   0.544   7.544
  895TIP3   OH226663   5.378   0.772   8.165
  895TIP3    H126664   5.364   0.676   8.157
  895TIP3    H226665   5.347   0.790   8.256
  896TIP3   OH226666   3.879   0.980   8.569
  896TIP3    H126667   3.897   0.972   8.473
  896TIP3    H226668   3.969   0.961   8.604
  897TIP3   OH226669   5.465   0.969   9.133
  897TIP3    H126670   5.526   0.892   9.145
  897TIP3    H226671   5.526   1.045   9.132
  898TIP3   OH226672   5.615   0.755   9.197
  898TIP3    H126673   5.527   0.716   9.182
  898TIP3    H226674   5.672   0.677   9.190
  899TIP3   OH226675   5.344   0.533   8.005
  899TIP3    H126676   5.374   0.441   8.020
  899TIP3    H226677   5.427   0.571   7.969
  900TIP3   OH226678   5.409   0.586   8.552
  900TIP3    H126679   5.506   0.605   8.551
  900TIP3    H226680   5.391   0.594   8.647
  901TIP3   OH226681   5.414   0.658   8.829
  901TIP3    H126682   5.327   0.686   8.862
  901TIP3    H226683   5.459   0.744   8.809
  902TIP3   OH226684   3.843   0.513   9.187
  902TIP3    H126685   3.936   0.485   9.203
  902TIP3    H226686   3.795   0.430   9.210
  903TIP3   OH226687   5.656   0.072   9.381
  903TIP3    H126688   5.669   0.005   9.311
  903TIP3    H226689   5.649   0.148   9.321
  904TIP3   OH226690   5.408   0.261   8.011
  904TIP3    H126691   5.433   0.218   8.097
  904TIP3    H226692   5.350   0.193   7.972
  905TIP3   OH226693   3.956   0.346   8.470
  905TIP3    H126694   4.002   0.262   8.492
  905TIP3    H226695   4.016   0.410   8.508
  906TIP3   OH226696   3.789   0.640   8.572
  906TIP3    H126697   3.846   0.613   8.497
  906TIP3    H226698   3.837   0.720   8.599
  907TIP3   OH226699   5.598   0.277   9.198
  907TIP3    H126700   5.503   0.298   9.194
  907TIP3    H226701   5.598   0.215   9.123
  908TIP3   OH226702   3.824   0.258   7.976
  908TIP3    H126703   3.731   0.286   7.969
  908TIP3    H226704   3.868   0.315   7.911
  909TIP3   OH226705   5.300   1.758   8.177
  909TIP3    H126706   5.366   1.731   8.111
  909TIP3    H226707   5.351   1.811   8.239
  910TIP3   OH226708   3.827   0.142   8.805
  910TIP3    H126709   3.766   0.123   8.877
  910TIP3    H226710   3.776   0.206   8.750
  911TIP3   OH226711   4.045   1.449   9.225
  911TIP3    H126712   3.961   1.472   9.182
  911TIP3    H226713   4.019   1.442   9.317
  912TIP3   OH226714   4.335   1.551   8.854
  912TIP3    H126715   4.303   1.639   8.827
  912TIP3    H226716   4.427   1.559   8.823
  913TIP3   OH226717   4.766   1.693   9.142
  913TIP3    H126718   4.779   1.658   9.234
  913TIP3    H226719   4.857   1.724   9.120
  914TIP3   OH226720   4.995   1.820   9.075
  914TIP3    H126721   5.069   1.762   9.051
  914TIP3    H226722   5.032   1.864   9.155
  915TIP3   OH226723   5.486   0.103   8.988
  915TIP3    H126724   5.399   0.122   8.950
  915TIP3    H226725   5.494   0.009   8.966
  916TIP3   OH226726   4.077   1.874   8.852
  916TIP3    H126727   4.004   1.925   8.813
  916TIP3    H226728   4.047   1.856   8.942
  917TIP3   OH226729   4.323   1.832   8.760
  917TIP3    H126730   4.234   1.849   8.799
  917TIP3    H226731   4.319   1.891   8.683
  918TIP3   OH226732   4.795   1.823   8.677
  918TIP3    H126733   4.748   1.879   8.612
  918TIP3    H226734   4.808   1.886   8.751
  919TIP3   OH226735   5.022   1.703   8.782
  919TIP3    H126736   4.938   1.732   8.743
  919TIP3    H226737   5.073   1.785   8.772
  920TIP3   OH226738   5.281   1.860   8.802
  920TIP3    H126739   5.278   1.956   8.779
  920TIP3    H226740   5.303   1.823   8.714
  921TIP3   OH226741   4.024   1.739   8.547
  921TIP3    H126742   4.015   1.693   8.633
  921TIP3    H226743   4.105   1.700   8.509
  922TIP3   OH226744   4.230   1.610   8.414
  922TIP3    H126745   4.215   1.517   8.437
  922TIP3    H226746   4.317   1.626   8.457
  923TIP3   OH226747   4.492   1.659   8.501
  923TIP3    H126748   4.506   1.566   8.474
  923TIP3    H226749   4.496   1.653   8.598
  924TIP3   OH226750   4.832   0.229   8.408
  924TIP3    H126751   4.770   0.161   8.440
  924TIP3    H226752   4.895   0.174   8.360
  925TIP3   OH226753   5.354   0.057   8.437
  925TIP3    H126754   5.413   0.094   8.368
  925TIP3    H226755   5.265   0.062   8.397
  926TIP3   OH226756   5.518   0.160   8.243
  926TIP3    H126757   5.583   0.096   8.209
  926TIP3    H226758   5.570   0.240   8.263
  927TIP3   OH226759   4.067   0.083   8.199
  927TIP3    H126760   3.990   0.067   8.144
  927TIP3    H226761   4.118   0.002   8.187
  928TIP3   OH226762   4.517   0.088   8.177
  928TIP3    H126763   4.608   0.118   8.169
  928TIP3    H226764   4.522   0.058   8.268
  929TIP3   OH226765   5.091   0.085   8.343
  929TIP3    H126766   5.087   0.091   8.247
  929TIP3    H226767   5.058  -0.006   8.355
  930TIP3   OH226768   5.200   0.096   7.868
  930TIP3    H126769   5.131   0.158   7.897
  930TIP3    H226770   5.180   0.019   7.924
  931TIP3   OH226771   3.946   1.657   7.866
  931TIP3    H126772   3.873   1.658   7.799
  931TIP3    H226773   3.942   1.750   7.893
  932TIP3   OH226774   4.631   0.287   7.861
  932TIP3    H126775   4.657   0.225   7.931
  932TIP3    H226776   4.639   0.372   7.909
  933TIP3   OH226777   4.832   1.780   7.704
  933TIP3    H126778   4.922   1.814   7.689
  933TIP3    H226779   4.812   1.736   7.621
  934TIP3   OH226780   5.498   1.743   7.972
  934TIP3    H126781   5.477   1.662   7.919
  934TIP3    H226782   5.487   1.813   7.906
  935TIP3   OH226783   4.062   0.146   9.148
  935TIP3    H126784   4.027   0.063   9.180
  935TIP3    H226785   4.154   0.135   9.177
  936TIP3   OH226786   4.266   0.087   9.322
  936TIP3    H126787   4.348   0.054   9.281
  936TIP3    H226788   4.219   0.002   9.334
  937TIP3   OH226789   5.114   8.110   9.328
  937TIP3    H126790   5.112   8.042   9.397
  937TIP3    H226791   5.197   8.088   9.284
  938TIP3   OH226792   5.423   1.613   9.185
  938TIP3    H126793   5.343   1.599   9.131
  938TIP3    H226794   5.411   1.707   9.208
  939TIP3   OH226795   6.869   1.002   8.184
  939TIP3    H126796   6.866   1.099   8.180
  939TIP3    H226797   6.796   0.977   8.125
  940TIP3   OH226798   6.754   0.925   8.534
  940TIP3    H126799   6.752   0.861   8.606
  940TIP3    H226800   6.717   0.875   8.460
  941TIP3   OH226801   5.988   0.894   8.690
  941TIP3    H126802   5.996   0.825   8.758
  941TIP3    H226803   6.063   0.951   8.713
  942TIP3   OH226804   7.123   1.225   8.362
  942TIP3    H126805   7.081   1.152   8.409
  942TIP3    H226806   7.124   1.292   8.432
  943TIP3   OH226807   6.080   1.339   8.538
  943TIP3    H126808   6.050   1.251   8.508
  943TIP3    H226809   6.176   1.321   8.543
  944TIP3   OH226810   5.744   0.694   8.092
  944TIP3    H126811   5.701   0.781   8.083
  944TIP3    H226812   5.690   0.640   8.031
  945TIP3   OH226813   5.816   0.918   8.303
  945TIP3    H126814   5.843   0.835   8.347
  945TIP3    H226815   5.886   0.929   8.237
  946TIP3   OH226816   6.835   1.738   8.387
  946TIP3    H126817   6.899   1.668   8.357
  946TIP3    H226818   6.811   1.702   8.473
  947TIP3   OH226819   6.591   1.165   8.583
  947TIP3    H126820   6.624   1.103   8.516
  947TIP3    H226821   6.672   1.181   8.633
  948TIP3   OH226822   7.451   0.326   8.655
  948TIP3    H126823   7.467   0.390   8.728
  948TIP3    H226824   7.507   0.370   8.587
  949TIP3   OH226825   6.908   0.608   8.616
  949TIP3    H126826   6.923   0.513   8.607
  949TIP3    H226827   6.896   0.630   8.521
  950TIP3   OH226828   6.219   0.423   8.334
  950TIP3    H126829   6.231   0.507   8.284
  950TIP3    H226830   6.179   0.366   8.265
  951TIP3   OH226831   6.992   0.429   8.172
  951TIP3    H126832   7.057   0.400   8.239
  951TIP3    H226833   7.047   0.487   8.117
  952TIP3   OH226834   5.880   0.664   8.408
  952TIP3    H126835   5.947   0.609   8.454
  952TIP3    H226836   5.891   0.632   8.317
  953TIP3   OH226837   6.396   0.818   8.343
  953TIP3    H126838   6.465   0.760   8.380
  953TIP3    H226839   6.345   0.753   8.291
  954TIP3   OH226840   7.498   0.475   8.882
  954TIP3    H126841   7.434   0.549   8.871
  954TIP3    H226842   7.495   0.460   8.978
  955TIP3   OH226843   6.110   0.317   8.736
  955TIP3    H126844   6.080   0.374   8.662
  955TIP3    H226845   6.042   0.337   8.805
  956TIP3   OH226846   6.838   1.260   8.093
  956TIP3    H126847   6.811   1.235   8.004
  956TIP3    H226848   6.807   1.353   8.100
  957TIP3   OH226849   6.360   1.076   8.762
  957TIP3    H126850   6.291   1.140   8.785
  957TIP3    H226851   6.431   1.135   8.733
  958TIP3   OH226852   7.169   0.372   8.378
  958TIP3    H126853   7.153   0.287   8.420
  958TIP3    H226854   7.244   0.408   8.428
  959TIP3   OH226855   6.066   0.503   8.540
  959TIP3    H126856   6.132   0.568   8.573
  959TIP3    H226857   6.118   0.457   8.469
  960TIP3   OH226858   6.206   1.277   8.844
  960TIP3    H126859   6.201   1.368   8.811
  960TIP3    H226860   6.118   1.268   8.888
  961TIP3   OH226861   5.809   1.238   7.922
  961TIP3    H126862   5.790   1.273   7.833
  961TIP3    H226863   5.822   1.320   7.974
  962TIP3   OH226864   7.174   1.404   8.600
  962TIP3    H126865   7.077   1.416   8.612
  962TIP3    H226866   7.200   1.496   8.581
  963TIP3   OH226867   7.217   0.238   8.744
  963TIP3    H126868   7.163   0.309   8.711
  963TIP3    H226869   7.296   0.258   8.688
  964TIP3   OH226870   6.497   0.059   8.443
  964TIP3    H126871   6.502  -0.031   8.482
  964TIP3    H226872   6.425   0.082   8.505
  965TIP3   OH226873   7.002   1.582   8.260
  965TIP3    H126874   7.041   1.510   8.208
  965TIP3    H226875   7.044   1.662   8.221
  966TIP3   OH226876   7.137   1.373   8.106
  966TIP3    H126877   7.091   1.306   8.052
  966TIP3    H226878   7.124   1.329   8.193
  967TIP3   OH226879   7.283   1.236   8.960
  967TIP3    H126880   7.297   1.170   8.889
  967TIP3    H226881   7.304   1.320   8.914
  968TIP3   OH226882   6.732   0.930   7.936
  968TIP3    H126883   6.662   0.983   7.895
  968TIP3    H226884   6.800   0.929   7.866
  969TIP3   OH226885   7.474   0.867   8.765
  969TIP3    H126886   7.407   0.938   8.768
  969TIP3    H226887   7.522   0.890   8.684
  970TIP3   OH226888   7.080   0.943   8.028
  970TIP3    H126889   7.007   0.969   8.089
  970TIP3    H226890   7.127   0.878   8.085
  971TIP3   OH226891   7.071   0.759   8.942
  971TIP3    H126892   7.072   0.842   8.993
  971TIP3    H226893   7.009   0.791   8.872
  972TIP3   OH226894   6.240   1.012   8.220
  972TIP3    H126895   6.207   0.973   8.135
  972TIP3    H226896   6.301   0.942   8.253
  973TIP3   OH226897   6.370   1.348   8.488
  973TIP3    H126898   6.371   1.297   8.406
  973TIP3    H226899   6.449   1.313   8.533
  974TIP3   OH226900   6.271   0.886   8.587
  974TIP3    H126901   6.326   0.895   8.506
  974TIP3    H226902   6.312   0.952   8.647
  975TIP3   OH226903   6.915   1.443   8.658
  975TIP3    H126904   6.886   1.507   8.724
  975TIP3    H226905   6.889   1.358   8.699
  976TIP3   OH226906   6.368   1.329   9.056
  976TIP3    H126907   6.325   1.402   9.106
  976TIP3    H226908   6.301   1.308   8.986
  977TIP3   OH226909   6.972   0.858   7.794
  977TIP3    H126910   7.016   0.885   7.878
  977TIP3    H226911   7.000   0.920   7.726
  978TIP3   OH226912   6.062   0.944   8.969
  978TIP3    H126913   6.068   1.011   9.041
  978TIP3    H226914   5.967   0.950   8.950
  979TIP3   OH226915   6.742   1.540   8.136
  979TIP3    H126916   6.779   1.568   8.221
  979TIP3    H226917   6.680   1.612   8.117
  980TIP3   OH226918   6.191   1.532   9.132
  980TIP3    H126919   6.187   1.523   9.035
  980TIP3    H226920   6.098   1.517   9.156
  981TIP3   OH226921   7.342   0.051   7.801
  981TIP3    H126922   7.244   0.044   7.801
  981TIP3    H226923   7.355   0.116   7.731
  982TIP3   OH226924   6.133   0.914   7.986
  982TIP3    H126925   6.108   0.990   7.929
  982TIP3    H226926   6.071   0.847   7.958
  983TIP3   OH226927   5.745   1.157   8.873
  983TIP3    H126928   5.701   1.148   8.786
  983TIP3    H226929   5.754   1.062   8.894
  984TIP3   OH226930   5.721   1.429   8.549
  984TIP3    H126931   5.817   1.418   8.546
  984TIP3    H226932   5.713   1.512   8.599
  985TIP3   OH226933   7.545   1.501   9.118
  985TIP3    H126934   7.533   1.404   9.115
  985TIP3    H226935   7.458   1.525   9.157
  986TIP3   OH226936   6.641   1.454   9.004
  986TIP3    H126937   6.646   1.538   9.055
  986TIP3    H226938   6.553   1.418   9.029
  987TIP3   OH226939   6.689   1.828   7.981
  987TIP3    H126940   6.675   1.823   7.885
  987TIP3    H226941   6.685   1.923   8.002
  988TIP3   OH226942   6.049   1.717   8.168
  988TIP3    H126943   6.064   1.676   8.256
  988TIP3    H226944   5.965   1.675   8.143
  989TIP3   OH226945   6.961   1.743   7.957
  989TIP3    H126946   6.865   1.753   7.977
  989TIP3    H226947   6.982   1.672   8.019
  990TIP3   OH226948   7.258   0.649   9.166
  990TIP3    H126949   7.212   0.694   9.094
  990TIP3    H226950   7.259   0.556   9.136
  991TIP3   OH226951   5.974   1.288   8.966
  991TIP3    H126952   5.996   1.251   9.054
  991TIP3    H226953   5.887   1.248   8.944
  992TIP3   OH226954   6.243   0.147   8.551
  992TIP3    H126955   6.154   0.133   8.515
  992TIP3    H226956   6.225   0.219   8.612
  993TIP3   OH226957   6.713   0.116   8.911
  993TIP3    H126958   6.747   0.056   8.978
  993TIP3    H226959   6.617   0.093   8.909
  994TIP3   OH226960   7.028   0.478   8.977
  994TIP3    H126961   6.981   0.466   9.064
  994TIP3    H226962   7.024   0.575   8.965
  995TIP3   OH226963   6.253   0.634   8.688
  995TIP3    H126964   6.178   0.633   8.750
  995TIP3    H226965   6.247   0.724   8.649
  996TIP3   OH226966   6.249   0.642   8.172
  996TIP3    H126967   6.154   0.619   8.157
  996TIP3    H226968   6.287   0.615   8.086
  997TIP3   OH226969   6.800   0.695   8.048
  997TIP3    H126970   6.761   0.778   8.012
  997TIP3    H226971   6.868   0.675   7.982
  998TIP3   OH226972   6.705   0.716   9.192
  998TIP3    H126973   6.653   0.638   9.223
  998TIP3    H226974   6.789   0.705   9.240
  999TIP3   OH226975   6.905   0.643   8.335
  999TIP3    H126976   6.875   0.700   8.261
  999TIP3    H226977   6.913   0.559   8.285
 1000TIP3   OH226978   6.014   0.658   8.853
 1000TIP3    H126979   6.024   0.698   8.940
 1000TIP3    H226980   5.970   0.574   8.875
 1001TIP3   OH226981   6.348   0.397   7.535
 1001TIP3    H126982   6.309   0.355   7.614
 1001TIP3    H226983   6.277   0.440   7.489
 1002TIP3   OH226984   5.682   0.374   8.253
 1002TIP3    H126985   5.749   0.368   8.325
 1002TIP3    H226986   5.726   0.334   8.176
 1003TIP3   OH226987   6.824   0.801   8.788
 1003TIP3    H126988   6.861   0.733   8.729
 1003TIP3    H226989   6.775   0.750   8.855
 1004TIP3   OH226990   6.504   0.406   8.274
 1004TIP3    H126991   6.411   0.396   8.302
 1004TIP3    H226992   6.552   0.382   8.354
 1005TIP3   OH226993   5.983   0.555   8.159
 1005TIP3    H126994   5.895   0.567   8.118
 1005TIP3    H226995   6.013   0.470   8.122
 1006TIP3   OH226996   6.343   0.566   7.922
 1006TIP3    H126997   6.439   0.564   7.938
 1006TIP3    H226998   6.331   0.631   7.852
 1007TIP3   OH226999   6.939   0.325   8.586
 1007TIP3    H127000   6.862   0.333   8.646
 1007TIP3    H227001   6.893   0.294   8.505
 1008TIP3   OH227002   7.264   1.885   9.229
 1008TIP3    H127003   7.288   1.926   9.144
 1008TIP3    H227004   7.333   1.921   9.285
 1009TIP3   OH227005   6.032   1.133   9.186
 1009TIP3    H127006   6.105   1.157   9.246
 1009TIP3    H227007   5.955   1.139   9.246
 1010TIP3   OH227008   6.631   0.677   8.461
 1010TIP3    H127009   6.690   0.621   8.408
 1010TIP3    H227010   6.614   0.622   8.539
 1011TIP3   OH227011   6.130   0.292   8.100
 1011TIP3    H127012   6.102   0.200   8.105
 1011TIP3    H227013   6.211   0.281   8.049
 1012TIP3   OH227014   6.497   0.507   8.703
 1012TIP3    H127015   6.414   0.558   8.711
 1012TIP3    H227016   6.550   0.545   8.775
 1013TIP3   OH227017   6.552   1.134   7.873
 1013TIP3    H127018   6.476   1.082   7.840
 1013TIP3    H227019   6.530   1.145   7.967
 1014TIP3   OH227020   7.275   1.051   8.753
 1014TIP3    H127021   7.329   1.100   8.689
 1014TIP3    H227022   7.188   1.054   8.708
 1015TIP3   OH227023   6.704   1.158   8.998
 1015TIP3    H127024   6.669   1.115   9.076
 1015TIP3    H227025   6.677   1.250   9.009
 1016TIP3   OH227026   7.011   0.597   7.861
 1016TIP3    H127027   7.102   0.590   7.895
 1016TIP3    H227028   7.012   0.678   7.806
 1017TIP3   OH227029   6.066   1.071   8.453
 1017TIP3    H127030   6.132   1.062   8.382
 1017TIP3    H227031   6.071   0.985   8.499
 1018TIP3   OH227032   6.768   1.278   7.779
 1018TIP3    H127033   6.726   1.360   7.812
 1018TIP3    H227034   6.694   1.215   7.793
 1019TIP3   OH227035   5.764   0.910   8.979
 1019TIP3    H127036   5.781   0.865   9.065
 1019TIP3    H227037   5.702   0.849   8.935
 1020TIP3   OH227038   6.466   0.867   9.196
 1020TIP3    H127039   6.433   0.834   9.111
 1020TIP3    H227040   6.558   0.833   9.196
 1021TIP3   OH227041   6.935   1.400   8.993
 1021TIP3    H127042   6.843   1.418   8.969
 1021TIP3    H227043   6.931   1.430   9.086
 1022TIP3   OH227044   7.496   0.622   7.833
 1022TIP3    H127045   7.446   0.584   7.760
 1022TIP3    H227046   7.511   0.713   7.805
 1023TIP3   OH227047   7.500   1.204   9.112
 1023TIP3    H127048   7.410   1.226   9.076
 1023TIP3    H227049   7.553   1.198   9.030
 1024TIP3   OH227050   7.321   1.497   7.860
 1024TIP3    H127051   7.284   1.412   7.891
 1024TIP3    H227052   7.359   1.478   7.773
 1025TIP3   OH227053   7.051   0.982   8.582
 1025TIP3    H127054   6.957   0.962   8.570
 1025TIP3    H227055   7.094   0.907   8.537
 1026TIP3   OH227056   6.304   1.416   8.192
 1026TIP3    H127057   6.352   1.497   8.171
 1026TIP3    H227058   6.215   1.438   8.159
 1027TIP3   OH227059   5.876   0.895   7.662
 1027TIP3    H127060   5.941   0.964   7.683
 1027TIP3    H227061   5.794   0.941   7.667
 1028TIP3   OH227062   6.443   1.182   8.143
 1028TIP3    H127063   6.411   1.274   8.152
 1028TIP3    H227064   6.373   1.132   8.188
 1029TIP3   OH227065   6.489   1.601   8.786
 1029TIP3    H127066   6.536   1.680   8.756
 1029TIP3    H227067   6.552   1.565   8.851
 1030TIP3   OH227068   6.313   1.678   8.099
 1030TIP3    H127069   6.216   1.695   8.111
 1030TIP3    H227070   6.349   1.764   8.129
 1031TIP3   OH227071   6.840   1.199   8.746
 1031TIP3    H127072   6.809   1.180   8.837
 1031TIP3    H227073   6.905   1.129   8.729
 1032TIP3   OH227074   7.072   1.313   7.666
 1032TIP3    H127075   7.097   1.254   7.739
 1032TIP3    H227076   6.978   1.288   7.658
 1033TIP3   OH227077   7.124   1.658   8.995
 1033TIP3    H127078   7.054   1.610   8.947
 1033TIP3    H227079   7.143   1.729   8.930
 1034TIP3   OH227080   7.521   1.741   7.686
 1034TIP3    H127081   7.593   1.802   7.661
 1034TIP3    H227082   7.454   1.808   7.708
 1035TIP3   OH227083   5.930   0.383   8.935
 1035TIP3    H127084   5.839   0.418   8.931
 1035TIP3    H227085   5.916   0.297   8.979
 1036TIP3   OH227086   7.157   1.168   7.880
 1036TIP3    H127087   7.127   1.092   7.934
 1036TIP3    H227088   7.251   1.171   7.905
 1037TIP3   OH227089   5.890   1.561   8.777
 1037TIP3    H127090   5.922   1.470   8.777
 1037TIP3    H227091   5.917   1.591   8.864
 1038TIP3   OH227092   6.360   1.370   7.747
 1038TIP3    H127093   6.394   1.316   7.820
 1038TIP3    H227094   6.377   1.460   7.782
 1039TIP3   OH227095   6.023   1.093   7.800
 1039TIP3    H127096   5.949   1.132   7.851
 1039TIP3    H227097   6.069   1.173   7.770
 1040TIP3   OH227098   6.807   0.356   8.830
 1040TIP3    H127099   6.856   0.373   8.912
 1040TIP3    H227100   6.757   0.273   8.852
 1041TIP3   OH227101   6.888   0.313   7.937
 1041TIP3    H127102   6.895   0.369   7.859
 1041TIP3    H227103   6.934   0.366   8.004
 1042TIP3   OH227104   6.646   1.532   7.814
 1042TIP3    H127105   6.565   1.584   7.828
 1042TIP3    H227106   6.699   1.590   7.759
 1043TIP3   OH227107   6.596   0.496   8.022
 1043TIP3    H127108   6.677   0.551   8.025
 1043TIP3    H227109   6.572   0.481   8.116
 1044TIP3   OH227110   6.659   0.596   8.939
 1044TIP3    H127111   6.661   0.650   9.021
 1044TIP3    H227112   6.720   0.525   8.955
 1045TIP3   OH227113   6.690   0.200   8.115
 1045TIP3    H127114   6.652   0.268   8.173
 1045TIP3    H227115   6.754   0.254   8.064
 1046TIP3   OH227116   6.384   1.636   7.820
 1046TIP3    H127117   6.400   1.721   7.773
 1046TIP3    H227118   6.357   1.669   7.909
 1047TIP3   OH227119   6.252   0.311   7.779
 1047TIP3    H127120   6.245   0.400   7.818
 1047TIP3    H227121   6.344   0.287   7.803
 1048TIP3   OH227122   7.268   0.383   9.023
 1048TIP3    H127123   7.178   0.419   9.011
 1048TIP3    H227124   7.305   0.380   8.932
 1049TIP3   OH227125   7.135   0.762   8.424
 1049TIP3    H127126   7.053   0.717   8.397
 1049TIP3    H227127   7.184   0.694   8.475
 1050TIP3   OH227128   6.077   1.359   7.687
 1050TIP3    H127129   6.145   1.417   7.723
 1050TIP3    H227130   6.125   1.306   7.623
 1051TIP3   OH227131   7.240   1.687   8.591
 1051TIP3    H127132   7.232   1.757   8.524
 1051TIP3    H227133   7.336   1.693   8.611
 1052TIP3   OH227134   5.972   0.129   8.459
 1052TIP3    H127135   5.963   0.109   8.363
 1052TIP3    H227136   5.960   0.039   8.495
 1053TIP3   OH227137   5.884   1.492   8.089
 1053TIP3    H127138   5.799   1.536   8.084
 1053TIP3    H227139   5.931   1.537   8.018
 1054TIP3   OH227140   5.803   1.758   9.216
 1054TIP3    H127141   5.867   1.737   9.286
 1054TIP3    H227142   5.765   1.671   9.195
 1055TIP3   OH227143   6.273   1.647   9.377
 1055TIP3    H127144   6.352   1.600   9.409
 1055TIP3    H227145   6.272   1.620   9.283
 1056TIP3   OH227146   6.924   1.487   9.253
 1056TIP3    H127147   6.892   1.398   9.280
 1056TIP3    H227148   7.001   1.499   9.311
 1057TIP3   OH227149   5.796   1.136   9.318
 1057TIP3    H127150   5.814   1.045   9.289
 1057TIP3    H227151   5.723   1.159   9.257
 1058TIP3   OH227152   6.468   1.133   9.254
 1058TIP3    H127153   6.435   1.165   9.168
 1058TIP3    H227154   6.475   1.035   9.243
 1059TIP3   OH227155   6.776   1.271   7.502
 1059TIP3    H127156   6.750   1.287   7.594
 1059TIP3    H227157   6.752   1.180   7.484
 1060TIP3   OH227158   7.038   1.118   8.994
 1060TIP3    H127159   7.117   1.176   8.989
 1060TIP3    H227160   6.968   1.186   8.997
 1061TIP3   OH227161   5.890   0.857   9.254
 1061TIP3    H127162   5.930   0.769   9.245
 1061TIP3    H227163   5.866   0.857   9.348
 1062TIP3   OH227164   6.279   0.750   8.989
 1062TIP3    H127165   6.219   0.823   9.014
 1062TIP3    H227166   6.319   0.787   8.908
 1063TIP3   OH227167   6.787   1.008   9.324
 1063TIP3    H127168   6.882   1.005   9.309
 1063TIP3    H227169   6.770   0.931   9.380
 1064TIP3   OH227170   6.322   0.491   9.094
 1064TIP3    H127171   6.333   0.421   9.027
 1064TIP3    H227172   6.314   0.572   9.039
 1065TIP3   OH227173   6.360   0.332   8.852
 1065TIP3    H127174   6.412   0.372   8.778
 1065TIP3    H227175   6.272   0.318   8.810
 1066TIP3   OH227176   6.514   0.877   8.874
 1066TIP3    H127177   6.589   0.860   8.817
 1066TIP3    H227178   6.477   0.960   8.840
 1067TIP3   OH227179   6.953   0.650   9.369
 1067TIP3    H127180   6.979   0.557   9.362
 1067TIP3    H227181   7.039   0.696   9.374
 1068TIP3   OH227182   7.089   0.932   9.189
 1068TIP3    H127183   7.062   1.003   9.126
 1068TIP3    H227184   7.184   0.929   9.169
 1069TIP3   OH227185   6.167   0.613   9.286
 1069TIP3    H127186   6.089   0.556   9.270
 1069TIP3    H227187   6.232   0.576   9.225
 1070TIP3   OH227188   6.414   0.079   8.902
 1070TIP3    H127189   6.417   0.174   8.877
 1070TIP3    H227190   6.355   0.039   8.838
 1071TIP3   OH227191   6.566   0.503   9.252
 1071TIP3    H127192   6.535   0.478   9.341
 1071TIP3    H227193   6.488   0.482   9.198
 1072TIP3   OH227194   6.838   0.419   9.158
 1072TIP3    H127195   6.742   0.423   9.174
 1072TIP3    H227196   6.866   0.359   9.231
 1073TIP3   OH227197   6.994   0.289   9.347
 1073TIP3    H127198   6.994   0.190   9.349
 1073TIP3    H227199   6.971   0.308   9.440
 1074TIP3   OH227200   5.974   0.409   9.262
 1074TIP3    H127201   5.998   0.334   9.204
 1074TIP3    H227202   5.965   0.364   9.349
 1075TIP3   OH227203   6.474   8.146   9.139
 1075TIP3    H127204   6.538   8.074   9.142
 1075TIP3    H227205   6.445   8.132   9.046
 1076TIP3   OH227206   6.495   0.177   9.371
 1076TIP3    H127207   6.482   0.131   9.285
 1076TIP3    H227208   6.437   0.254   9.361
 1077TIP3   OH227209   6.442   1.857   7.679
 1077TIP3    H127210   6.535   1.878   7.697
 1077TIP3    H227211   6.420   1.929   7.618
 1078TIP3   OH227212   5.806   1.314   7.641
 1078TIP3    H127213   5.901   1.330   7.653
 1078TIP3    H227214   5.804   1.264   7.557
 1079TIP3   OH227215   5.675   1.857   8.133
 1079TIP3    H127216   5.605   1.808   8.083
 1079TIP3    H227217   5.704   1.792   8.199
 1080TIP3   OH227218   5.759   1.672   8.320
 1080TIP3    H127219   5.723   1.584   8.340
 1080TIP3    H227220   5.782   1.705   8.408
 1081TIP3   OH227221   7.506   1.754   8.611
 1081TIP3    H127222   7.515   1.765   8.707
 1081TIP3    H227223   7.581   1.806   8.581
 1082TIP3   OH227224   7.474   1.711   8.909
 1082TIP3    H127225   7.423   1.637   8.869
 1082TIP3    H227226   7.520   1.662   8.978
 1083TIP3   OH227227   7.315   1.283   9.375
 1083TIP3    H127228   7.224   1.281   9.410
 1083TIP3    H227229   7.352   1.364   9.415
 1084TIP3   OH227230   7.445   1.117   7.915
 1084TIP3    H127231   7.534   1.152   7.936
 1084TIP3    H227232   7.445   1.045   7.983
 1085TIP3   OH227233   7.480   0.926   8.102
 1085TIP3    H127234   7.406   0.876   8.143
 1085TIP3    H227235   7.541   0.936   8.178
 1086TIP3   OH227236   7.458   1.193   8.606
 1086TIP3    H127237   7.538   1.155   8.566
 1086TIP3    H227238   7.472   1.288   8.589
 1087TIP3   OH227239   7.314   1.485   8.830
 1087TIP3    H127240   7.245   1.518   8.889
 1087TIP3    H227241   7.260   1.444   8.760
 1088TIP3   OH227242   7.265   0.771   8.162
 1088TIP3    H127243   7.248   0.675   8.159
 1088TIP3    H227244   7.233   0.792   8.252
 1089TIP3   OH227245   5.765   0.980   8.569
 1089TIP3    H127246   5.782   0.972   8.473
 1089TIP3    H227247   5.855   0.961   8.604
 1090TIP3   OH227248   7.349   0.967   9.133
 1090TIP3    H127249   7.410   0.892   9.145
 1090TIP3    H227250   7.410   1.044   9.132
 1091TIP3   OH227251   7.502   0.754   9.195
 1091TIP3    H127252   7.412   0.717   9.183
 1091TIP3    H227253   7.558   0.676   9.191
 1092TIP3   OH227254   7.280   0.394   7.536
 1092TIP3    H127255   7.342   0.333   7.576
 1092TIP3    H227256   7.201   0.337   7.526
 1093TIP3   OH227257   7.232   0.533   8.006
 1093TIP3    H127258   7.258   0.439   8.021
 1093TIP3    H227259   7.314   0.570   7.973
 1094TIP3   OH227260   7.293   0.582   8.554
 1094TIP3    H127261   7.389   0.605   8.549
 1094TIP3    H227262   7.278   0.598   8.648
 1095TIP3   OH227263   7.299   0.657   8.828
 1095TIP3    H127264   7.213   0.688   8.863
 1095TIP3    H227265   7.346   0.741   8.808
 1096TIP3   OH227266   5.730   0.513   9.187
 1096TIP3    H127267   5.822   0.485   9.203
 1096TIP3    H227268   5.681   0.431   9.210
 1097TIP3   OH227269   7.541   0.071   9.381
 1097TIP3    H127270   7.553   0.005   9.311
 1097TIP3    H227271   7.533   0.147   9.321
 1098TIP3   OH227272   7.293   0.262   8.009
 1098TIP3    H127273   7.319   0.219   8.094
 1098TIP3    H227274   7.234   0.193   7.970
 1099TIP3   OH227275   5.840   0.348   8.471
 1099TIP3    H127276   5.886   0.263   8.491
 1099TIP3    H227277   5.902   0.411   8.508
 1100TIP3   OH227278   5.675   0.639   8.572
 1100TIP3    H127279   5.731   0.613   8.497
 1100TIP3    H227280   5.722   0.719   8.599
 1101TIP3   OH227281   7.485   0.280   9.196
 1101TIP3    H127282   7.389   0.297   9.198
 1101TIP3    H227283   7.484   0.213   9.126
 1102TIP3   OH227284   5.708   0.262   7.979
 1102TIP3    H127285   5.615   0.289   7.971
 1102TIP3    H227286   5.752   0.313   7.909
 1103TIP3   OH227287   7.185   1.756   8.176
 1103TIP3    H127288   7.254   1.736   8.112
 1103TIP3    H227289   7.231   1.814   8.240
 1104TIP3   OH227290   5.712   0.141   8.805
 1104TIP3    H127291   5.652   0.122   8.877
 1104TIP3    H227292   5.662   0.206   8.750
 1105TIP3   OH227293   5.931   1.455   9.228
 1105TIP3    H127294   5.848   1.470   9.179
 1105TIP3    H227295   5.900   1.435   9.316
 1106TIP3   OH227296   6.220   1.551   8.854
 1106TIP3    H127297   6.189   1.639   8.827
 1106TIP3    H227298   6.313   1.559   8.824
 1107TIP3   OH227299   6.652   1.693   9.143
 1107TIP3    H127300   6.665   1.658   9.234
 1107TIP3    H227301   6.743   1.724   9.120
 1108TIP3   OH227302   6.881   1.820   9.076
 1108TIP3    H127303   6.954   1.761   9.052
 1108TIP3    H227304   6.919   1.865   9.155
 1109TIP3   OH227305   7.372   0.103   8.986
 1109TIP3    H127306   7.284   0.120   8.951
 1109TIP3    H227307   7.381   0.009   8.969
 1110TIP3   OH227308   5.962   1.874   8.852
 1110TIP3    H127309   5.889   1.925   8.813
 1110TIP3    H227310   5.933   1.856   8.942
 1111TIP3   OH227311   6.209   1.832   8.760
 1111TIP3    H127312   6.120   1.848   8.799
 1111TIP3    H227313   6.204   1.891   8.683
 1112TIP3   OH227314   6.680   1.824   8.677
 1112TIP3    H127315   6.634   1.879   8.612
 1112TIP3    H227316   6.693   1.886   8.751
 1113TIP3   OH227317   6.908   1.703   8.782
 1113TIP3    H127318   6.824   1.732   8.743
 1113TIP3    H227319   6.958   1.785   8.773
 1114TIP3   OH227320   7.167   1.860   8.802
 1114TIP3    H127321   7.163   1.956   8.779
 1114TIP3    H227322   7.189   1.823   8.714
 1115TIP3   OH227323   5.910   1.739   8.547
 1115TIP3    H127324   5.901   1.693   8.633
 1115TIP3    H227325   5.991   1.700   8.509
 1116TIP3   OH227326   6.117   1.610   8.413
 1116TIP3    H127327   6.101   1.517   8.436
 1116TIP3    H227328   6.202   1.626   8.457
 1117TIP3   OH227329   6.378   1.659   8.501
 1117TIP3    H127330   6.392   1.566   8.475
 1117TIP3    H227331   6.381   1.654   8.597
 1118TIP3   OH227332   6.723   0.230   8.415
 1118TIP3    H127333   6.654   0.164   8.441
 1118TIP3    H227334   6.776   0.173   8.358
 1119TIP3   OH227335   7.238   0.065   8.440
 1119TIP3    H127336   7.299   0.092   8.368
 1119TIP3    H227337   7.151   0.059   8.394
 1120TIP3   OH227338   7.404   0.161   8.243
 1120TIP3    H127339   7.468   0.097   8.208
 1120TIP3    H227340   7.457   0.241   8.262
 1121TIP3   OH227341   5.954   0.085   8.197
 1121TIP3    H127342   5.876   0.067   8.144
 1121TIP3    H227343   6.004   0.002   8.190
 1122TIP3   OH227344   5.864   0.114   7.787
 1122TIP3    H127345   5.876   0.152   7.698
 1122TIP3    H227346   5.774   0.138   7.814
 1123TIP3   OH227347   6.402   0.091   8.177
 1123TIP3    H127348   6.494   0.117   8.169
 1123TIP3    H227349   6.407   0.057   8.267
 1124TIP3   OH227350   6.979   0.083   8.342
 1124TIP3    H127351   6.973   0.090   8.246
 1124TIP3    H227352   6.943  -0.007   8.353
 1125TIP3   OH227353   7.091   0.101   7.884
 1125TIP3    H127354   7.012   0.157   7.885
 1125TIP3    H227355   7.061   0.016   7.917
 1126TIP3   OH227356   5.826   1.657   7.875
 1126TIP3    H127357   5.765   1.654   7.799
 1126TIP3    H227358   5.831   1.754   7.883
 1127TIP3   OH227359   6.508   0.286   7.867
 1127TIP3    H127360   6.547   0.226   7.931
 1127TIP3    H227361   6.531   0.372   7.908
 1128TIP3   OH227362   6.720   1.775   7.704
 1128TIP3    H127363   6.803   1.818   7.681
 1128TIP3    H227364   6.691   1.742   7.618
 1129TIP3   OH227365   7.383   1.729   7.976
 1129TIP3    H127366   7.358   1.665   7.906
 1129TIP3    H227367   7.382   1.810   7.920
 1130TIP3   OH227368   5.948   0.146   9.148
 1130TIP3    H127369   5.912   0.063   9.180
 1130TIP3    H227370   6.040   0.135   9.177
 1131TIP3   OH227371   6.150   0.087   9.321
 1131TIP3    H127372   6.233   0.054   9.282
 1131TIP3    H227373   6.105   0.001   9.333
 1132TIP3   OH227374   7.000   8.110   9.327
 1132TIP3    H127375   6.996   8.043   9.397
 1132TIP3    H227376   7.084   8.087   9.286
 1133TIP3   OH227377   7.308   1.612   9.186
 1133TIP3    H127378   7.229   1.601   9.130
 1133TIP3    H227379   7.295   1.706   9.209
 1134TIP3   OH227380   7.871   0.895   8.694
 1134TIP3    H127381   7.887   0.823   8.757
 1134TIP3    H227382   7.951   0.948   8.708
 1135TIP3   OH227383   7.948   1.324   8.557
 1135TIP3    H127384   7.933   1.243   8.505
 1135TIP3    H227385   8.046   1.329   8.547
 1136TIP3   OH227386   7.629   0.695   8.083
 1136TIP3    H127387   7.585   0.782   8.086
 1136TIP3    H227388   7.567   0.641   8.035
 1137TIP3   OH227389   7.701   0.918   8.301
 1137TIP3    H127390   7.729   0.837   8.347
 1137TIP3    H227391   7.774   0.931   8.238
 1138TIP3   OH227392   7.762   0.661   8.408
 1138TIP3    H127393   7.831   0.609   8.455
 1138TIP3    H227394   7.781   0.631   8.317
 1139TIP3   OH227395   7.981   0.315   8.737
 1139TIP3    H127396   7.964   0.374   8.660
 1139TIP3    H227397   7.914   0.339   8.802
 1140TIP3   OH227398   7.936   0.488   8.536
 1140TIP3    H127399   7.995   0.559   8.573
 1140TIP3    H227400   7.995   0.454   8.466
 1141TIP3   OH227401   8.071   1.310   8.844
 1141TIP3    H127402   8.069   1.398   8.807
 1141TIP3    H227403   7.986   1.295   8.889
 1142TIP3   OH227404   7.690   1.239   7.923
 1142TIP3    H127405   7.679   1.275   7.835
 1142TIP3    H227406   7.711   1.318   7.977
 1143TIP3   OH227407   7.933   0.934   8.978
 1143TIP3    H127408   7.948   1.008   9.040
 1143TIP3    H227409   7.844   0.956   8.949
 1144TIP3   OH227410   8.075   1.532   9.135
 1144TIP3    H127411   8.077   1.521   9.039
 1144TIP3    H227412   7.980   1.518   9.155
 1145TIP3   OH227413   8.019   0.906   7.957
 1145TIP3    H127414   7.993   0.998   7.941
 1145TIP3    H227415   7.940   0.854   7.962
 1146TIP3   OH227416   7.628   1.156   8.873
 1146TIP3    H127417   7.586   1.148   8.785
 1146TIP3    H227418   7.641   1.061   8.893
 1147TIP3   OH227419   7.608   1.434   8.545
 1147TIP3    H127420   7.703   1.418   8.549
 1147TIP3    H227421   7.601   1.512   8.601
 1148TIP3   OH227422   7.923   1.707   8.169
 1148TIP3    H127423   7.942   1.670   8.258
 1148TIP3    H227424   7.838   1.668   8.147
 1149TIP3   OH227425   7.848   1.294   8.972
 1149TIP3    H127426   7.880   1.249   9.054
 1149TIP3    H227427   7.768   1.244   8.945
 1150TIP3   OH227428   7.906   0.657   8.858
 1150TIP3    H127429   7.899   0.711   8.938
 1150TIP3    H227430   7.852   0.577   8.863
 1151TIP3   OH227431   7.566   0.374   8.251
 1151TIP3    H127432   7.631   0.371   8.324
 1151TIP3    H227433   7.613   0.335   8.176
 1152TIP3   OH227434   7.694   0.447   7.794
 1152TIP3    H127435   7.740   0.502   7.731
 1152TIP3    H227436   7.621   0.507   7.819
 1153TIP3   OH227437   7.864   0.561   8.159
 1153TIP3    H127438   7.776   0.566   8.118
 1153TIP3    H227439   7.898   0.474   8.131
 1154TIP3   OH227440   7.915   1.143   9.184
 1154TIP3    H127441   7.985   1.159   9.247
 1154TIP3    H227442   7.837   1.144   9.244
 1155TIP3   OH227443   7.965   0.287   8.092
 1155TIP3    H127444   7.965   0.192   8.112
 1155TIP3    H227445   8.061   0.300   8.079
 1156TIP3   OH227446   7.946   1.070   8.449
 1156TIP3    H127447   8.020   1.066   8.386
 1156TIP3    H227448   7.959   0.987   8.498
 1157TIP3   OH227449   7.651   0.907   8.980
 1157TIP3    H127450   7.663   0.865   9.067
 1157TIP3    H227451   7.584   0.852   8.935
 1158TIP3   OH227452   7.807   0.380   8.941
 1158TIP3    H127453   7.717   0.405   8.914
 1158TIP3    H227454   7.796   0.287   8.971
 1159TIP3   OH227455   7.783   1.562   8.775
 1159TIP3    H127456   7.799   1.467   8.781
 1159TIP3    H227457   7.801   1.592   8.865
 1160TIP3   OH227458   7.896   1.096   7.784
 1160TIP3    H127459   7.840   1.126   7.858
 1160TIP3    H227460   7.956   1.173   7.781
 1161TIP3   OH227461   7.976   1.338   7.699
 1161TIP3    H127462   8.021   1.421   7.718
 1161TIP3    H227463   8.021   1.323   7.615
 1162TIP3   OH227464   7.852   0.128   8.459
 1162TIP3    H127465   7.853   0.109   8.363
 1162TIP3    H227466   7.842   0.038   8.495
 1163TIP3   OH227467   7.756   1.486   8.081
 1163TIP3    H127468   7.686   1.550   8.084
 1163TIP3    H227469   7.821   1.531   8.023
 1164TIP3   OH227470   7.690   1.760   9.213
 1164TIP3    H127471   7.749   1.738   9.288
 1164TIP3    H227472   7.650   1.673   9.197
 1165TIP3   OH227473   7.683   1.135   9.316
 1165TIP3    H127474   7.697   1.042   9.288
 1165TIP3    H227475   7.607   1.159   9.259
 1166TIP3   OH227476   7.776   0.855   9.254
 1166TIP3    H127477   7.818   0.770   9.250
 1166TIP3    H227478   7.755   0.860   9.349
 1167TIP3   OH227479   8.029   0.637   9.287
 1167TIP3    H127480   7.972   0.560   9.291
 1167TIP3    H227481   8.109   0.601   9.244
 1168TIP3   OH227482   7.861   0.405   9.258
 1168TIP3    H127483   7.878   0.323   9.207
 1168TIP3    H227484   7.855   0.367   9.349
 1169TIP3   OH227485   7.561   1.857   8.132
 1169TIP3    H127486   7.489   1.811   8.086
 1169TIP3    H227487   7.592   1.796   8.201
 1170TIP3   OH227488   7.640   1.669   8.319
 1170TIP3    H127489   7.612   1.581   8.347
 1170TIP3    H227490   7.671   1.705   8.404
 1171TIP3   OH227491   7.651   0.983   8.567
 1171TIP3    H127492   7.671   0.969   8.472
 1171TIP3    H227493   7.739   0.962   8.605
 1172TIP3   OH227494   7.621   0.509   9.177
 1172TIP3    H127495   7.703   0.478   9.217
 1172TIP3    H227496   7.562   0.435   9.207
 1173TIP3   OH227497   7.720   0.346   8.473
 1173TIP3    H127498   7.773   0.263   8.486
 1173TIP3    H227499   7.789   0.410   8.501
 1174TIP3   OH227500   7.558   0.638   8.573
 1174TIP3    H127501   7.617   0.613   8.499
 1174TIP3    H227502   7.604   0.720   8.598
 1175TIP3   OH227503   7.591   0.258   7.977
 1175TIP3    H127504   7.499   0.287   7.968
 1175TIP3    H227505   7.638   0.313   7.911
 1176TIP3   OH227506   7.599   0.144   8.809
 1176TIP3    H127507   7.535   0.120   8.876
 1176TIP3    H227508   7.549   0.203   8.748
 1177TIP3   OH227509   7.813   1.451   9.226
 1177TIP3    H127510   7.730   1.473   9.181
 1177TIP3    H227511   7.784   1.440   9.317
 1178TIP3   OH227512   7.851   1.883   8.860
 1178TIP3    H127513   7.775   1.922   8.812
 1178TIP3    H227514   7.812   1.851   8.942
 1179TIP3   OH227515   8.069   1.800   8.728
 1179TIP3    H127516   8.007   1.837   8.794
 1179TIP3    H227517   8.097   1.882   8.686
 1180TIP3   OH227518   7.781   1.739   8.548
 1180TIP3    H127519   7.785   1.695   8.635
 1180TIP3    H227520   7.865   1.706   8.509
 1181TIP3   OH227521   7.983   1.608   8.431
 1181TIP3    H127522   7.979   1.511   8.440
 1181TIP3    H227523   8.074   1.621   8.464
 1182TIP3   OH227524   7.831   0.077   8.201
 1182TIP3    H127525   7.757   0.061   8.142
 1182TIP3    H227526   7.891   0.001   8.190
 1183TIP3   OH227527   7.749   0.110   7.784
 1183TIP3    H127528   7.764   0.158   7.701
 1183TIP3    H227529   7.660   0.136   7.816
 1184TIP3   OH227530   7.699   1.659   7.881
 1184TIP3    H127531   7.651   1.660   7.796
 1184TIP3    H227532   7.721   1.754   7.884
 1185TIP3   OH227533   7.841   0.148   9.146
 1185TIP3    H127534   7.801   0.067   9.179
 1185TIP3    H227535   7.932   0.131   9.174
 1186TIP3   OH227536   8.029   0.092   9.331
 1186TIP3    H127537   8.108   0.062   9.281
 1186TIP3    H227538   7.988   0.004   9.341
 1187TIP3   OH227539   1.212   2.886   8.184
 1187TIP3    H127540   1.210   2.984   8.181
 1187TIP3    H227541   1.138   2.863   8.125
 1188TIP3   OH227542   1.097   2.811   8.534
 1188TIP3    H127543   1.096   2.747   8.606
 1188TIP3    H227544   1.058   2.760   8.461
 1189TIP3   OH227545   0.341   2.775   8.684
 1189TIP3    H127546   0.340   2.711   8.758
 1189TIP3    H227547   0.410   2.836   8.713
 1190TIP3   OH227548   1.460   3.109   8.362
 1190TIP3    H127549   1.424   3.035   8.411
 1190TIP3    H227550   1.469   3.176   8.433
 1191TIP3   OH227551   0.422   3.224   8.536
 1191TIP3    H127552   0.392   3.135   8.510
 1191TIP3    H227553   0.518   3.205   8.541
 1192TIP3   OH227554   0.095   2.580   8.084
 1192TIP3    H127555   0.050   2.667   8.085
 1192TIP3    H227556   0.032   2.525   8.039
 1193TIP3   OH227557   0.160   2.800   8.304
 1193TIP3    H127558   0.186   2.717   8.348
 1193TIP3    H227559   0.230   2.808   8.237
 1194TIP3   OH227560   1.180   3.618   8.397
 1194TIP3    H127561   1.252   3.551   8.383
 1194TIP3    H227562   1.153   3.591   8.487
 1195TIP3   OH227563   0.932   3.052   8.585
 1195TIP3    H127564   0.966   2.990   8.518
 1195TIP3    H227565   1.015   3.067   8.634
 1196TIP3   OH227566   1.792   2.218   8.653
 1196TIP3    H127567   1.811   2.276   8.731
 1196TIP3    H227568   1.850   2.259   8.588
 1197TIP3   OH227569   1.251   2.498   8.614
 1197TIP3    H127570   1.268   2.402   8.615
 1197TIP3    H227571   1.240   2.512   8.518
 1198TIP3   OH227572   0.577   2.269   8.330
 1198TIP3    H127573   0.576   2.365   8.308
 1198TIP3    H227574   0.519   2.237   8.258
 1199TIP3   OH227575   1.337   2.311   8.169
 1199TIP3    H127576   1.400   2.283   8.240
 1199TIP3    H227577   1.393   2.374   8.120
 1200TIP3   OH227578   0.224   2.541   8.409
 1200TIP3    H127579   0.302   2.497   8.449
 1200TIP3    H227580   0.241   2.519   8.316
 1201TIP3   OH227581   0.765   2.714   8.329
 1201TIP3    H127582   0.809   2.647   8.383
 1201TIP3    H227583   0.691   2.655   8.302
 1202TIP3   OH227584   1.837   2.357   8.882
 1202TIP3    H127585   1.777   2.434   8.870
 1202TIP3    H227586   1.840   2.351   8.978
 1203TIP3   OH227587   0.456   2.193   8.739
 1203TIP3    H127588   0.430   2.254   8.665
 1203TIP3    H227589   0.388   2.218   8.806
 1204TIP3   OH227590   1.180   3.145   8.095
 1204TIP3    H127591   1.156   3.116   8.006
 1204TIP3    H227592   1.149   3.237   8.096
 1205TIP3   OH227593   0.707   2.963   8.763
 1205TIP3    H127594   0.635   3.026   8.785
 1205TIP3    H227595   0.776   3.023   8.732
 1206TIP3   OH227596   1.516   2.251   8.372
 1206TIP3    H127597   1.495   2.173   8.424
 1206TIP3    H227598   1.584   2.293   8.427
 1207TIP3   OH227599   0.414   2.372   8.551
 1207TIP3    H127600   0.469   2.453   8.569
 1207TIP3    H227601   0.461   2.346   8.468
 1208TIP3   OH227602   0.550   3.163   8.845
 1208TIP3    H127603   0.540   3.252   8.808
 1208TIP3    H227604   0.462   3.150   8.886
 1209TIP3   OH227605   0.159   3.128   7.925
 1209TIP3    H127606   0.129   3.154   7.837
 1209TIP3    H227607   0.164   3.211   7.975
 1210TIP3   OH227608   1.518   3.289   8.599
 1210TIP3    H127609   1.422   3.301   8.615
 1210TIP3    H227610   1.545   3.381   8.580
 1211TIP3   OH227611   1.550   2.118   8.738
 1211TIP3    H127612   1.478   2.182   8.728
 1211TIP3    H227613   1.622   2.160   8.686
 1212TIP3   OH227614   0.846   1.932   8.482
 1212TIP3    H127615   0.832   1.836   8.477
 1212TIP3    H227616   0.759   1.962   8.516
 1213TIP3   OH227617   1.352   3.468   8.260
 1213TIP3    H127618   1.394   3.391   8.213
 1213TIP3    H227619   1.413   3.539   8.227
 1214TIP3   OH227620   1.460   3.263   8.114
 1214TIP3    H127621   1.438   3.194   8.049
 1214TIP3    H227622   1.470   3.209   8.195
 1215TIP3   OH227623   1.625   3.122   8.960
 1215TIP3    H127624   1.641   3.055   8.889
 1215TIP3    H227625   1.647   3.205   8.914
 1216TIP3   OH227626   1.082   2.817   7.940
 1216TIP3    H127627   1.008   2.867   7.902
 1216TIP3    H227628   1.147   2.818   7.867
 1217TIP3   OH227629   1.087   2.661   7.643
 1217TIP3    H127630   1.158   2.665   7.708
 1217TIP3    H227631   1.115   2.589   7.586
 1218TIP3   OH227632   1.815   2.753   8.764
 1218TIP3    H127633   1.749   2.825   8.768
 1218TIP3    H227634   1.864   2.778   8.683
 1219TIP3   OH227635   1.424   2.833   8.030
 1219TIP3    H127636   1.348   2.854   8.089
 1219TIP3    H227637   1.470   2.764   8.080
 1220TIP3   OH227638   1.415   2.647   8.941
 1220TIP3    H127639   1.415   2.730   8.993
 1220TIP3    H227640   1.352   2.676   8.872
 1221TIP3   OH227641   0.586   2.899   8.219
 1221TIP3    H127642   0.550   2.859   8.135
 1221TIP3    H227643   0.642   2.825   8.253
 1222TIP3   OH227644   0.714   3.235   8.490
 1222TIP3    H127645   0.714   3.184   8.407
 1222TIP3    H227646   0.793   3.200   8.534
 1223TIP3   OH227647   0.619   2.773   8.590
 1223TIP3    H127648   0.669   2.780   8.507
 1223TIP3    H227649   0.656   2.841   8.649
 1224TIP3   OH227650   1.257   3.330   8.656
 1224TIP3    H127651   1.231   3.391   8.726
 1224TIP3    H227652   1.233   3.244   8.697
 1225TIP3   OH227653   0.712   3.220   9.053
 1225TIP3    H127654   0.667   3.287   9.107
 1225TIP3    H227655   0.644   3.192   8.987
 1226TIP3   OH227656   1.308   2.751   7.796
 1226TIP3    H127657   1.362   2.769   7.877
 1226TIP3    H227658   1.354   2.799   7.726
 1227TIP3   OH227659   0.404   2.827   8.973
 1227TIP3    H127660   0.410   2.899   9.038
 1227TIP3    H227661   0.309   2.839   8.949
 1228TIP3   OH227662   1.074   3.412   8.126
 1228TIP3    H127663   1.095   3.415   8.221
 1228TIP3    H227664   1.006   3.480   8.112
 1229TIP3   OH227665   0.535   3.427   9.125
 1229TIP3    H127666   0.525   3.398   9.033
 1229TIP3    H227667   0.446   3.404   9.160
 1230TIP3   OH227668   1.672   1.922   7.775
 1230TIP3    H127669   1.585   1.938   7.817
 1230TIP3    H227670   1.704   2.009   7.748
 1231TIP3   OH227671   0.483   2.810   7.979
 1231TIP3    H127672   0.447   2.880   7.921
 1231TIP3    H227673   0.423   2.736   7.962
 1232TIP3   OH227674   1.798   3.356   7.627
 1232TIP3    H127675   1.801   3.453   7.630
 1232TIP3    H227676   1.890   3.327   7.617
 1233TIP3   OH227677   0.142   2.999   8.848
 1233TIP3    H127678   0.065   3.034   8.799
 1233TIP3    H227679   0.096   2.929   8.899
 1234TIP3   OH227680   0.089   3.338   8.532
 1234TIP3    H127681   0.179   3.306   8.552
 1234TIP3    H227682   0.070   3.396   8.608
 1235TIP3   OH227683   1.888   3.386   9.119
 1235TIP3    H127684   1.876   3.290   9.115
 1235TIP3    H227685   1.801   3.411   9.156
 1236TIP3   OH227686   0.981   3.343   8.999
 1236TIP3    H127687   0.992   3.422   9.057
 1236TIP3    H227688   0.898   3.301   9.030
 1237TIP3   OH227689   1.031   3.714   7.985
 1237TIP3    H127690   1.020   3.710   7.887
 1237TIP3    H227691   1.029   3.811   8.002
 1238TIP3   OH227692   0.398   3.598   8.164
 1238TIP3    H127693   0.406   3.561   8.255
 1238TIP3    H227694   0.311   3.561   8.142
 1239TIP3   OH227695   1.297   3.639   7.981
 1239TIP3    H127696   1.202   3.633   7.962
 1239TIP3    H227697   1.331   3.549   7.999
 1240TIP3   OH227698   1.603   2.532   9.165
 1240TIP3    H127699   1.554   2.577   9.093
 1240TIP3    H227700   1.601   2.440   9.135
 1241TIP3   OH227701   0.318   3.183   8.969
 1241TIP3    H127702   0.332   3.136   9.054
 1241TIP3    H227703   0.237   3.136   8.939
 1242TIP3   OH227704   0.586   2.022   8.559
 1242TIP3    H127705   0.496   2.011   8.522
 1242TIP3    H227706   0.572   2.105   8.608
 1243TIP3   OH227707   1.051   1.989   8.897
 1243TIP3    H127708   1.088   1.944   8.975
 1243TIP3    H227709   0.954   1.977   8.910
 1244TIP3   OH227710   1.378   2.373   8.987
 1244TIP3    H127711   1.321   2.351   9.064
 1244TIP3    H227712   1.359   2.466   8.964
 1245TIP3   OH227713   1.014   2.242   7.638
 1245TIP3    H127714   0.973   2.238   7.727
 1245TIP3    H227715   0.978   2.162   7.598
 1246TIP3   OH227716   0.598   2.520   8.691
 1246TIP3    H127717   0.520   2.519   8.748
 1246TIP3    H227718   0.587   2.606   8.642
 1247TIP3   OH227719   0.572   2.553   8.066
 1247TIP3    H127720   0.514   2.538   8.143
 1247TIP3    H227721   0.642   2.489   8.081
 1248TIP3   OH227722   1.143   2.580   8.047
 1248TIP3    H127723   1.105   2.663   8.014
 1248TIP3    H227724   1.212   2.562   7.981
 1249TIP3   OH227725   1.048   2.601   9.192
 1249TIP3    H127726   0.997   2.523   9.223
 1249TIP3    H227727   1.132   2.590   9.240
 1250TIP3   OH227728   1.248   2.530   8.333
 1250TIP3    H127729   1.218   2.586   8.260
 1250TIP3    H227730   1.256   2.445   8.286
 1251TIP3   OH227731   0.356   2.546   8.856
 1251TIP3    H127732   0.360   2.585   8.944
 1251TIP3    H227733   0.312   2.461   8.872
 1252TIP3   OH227734   0.697   2.290   7.535
 1252TIP3    H127735   0.661   2.247   7.615
 1252TIP3    H227736   0.616   2.316   7.490
 1253TIP3   OH227737   0.047   2.281   8.263
 1253TIP3    H127738   0.104   2.251   8.337
 1253TIP3    H227739   0.069   2.220   8.194
 1254TIP3   OH227740   1.168   2.687   8.789
 1254TIP3    H127741   1.205   2.618   8.730
 1254TIP3    H227742   1.119   2.635   8.855
 1255TIP3   OH227743   0.847   2.286   8.272
 1255TIP3    H127744   0.752   2.285   8.301
 1255TIP3    H227745   0.893   2.268   8.355
 1256TIP3   OH227746   0.319   2.432   8.163
 1256TIP3    H127747   0.238   2.454   8.115
 1256TIP3    H227748   0.355   2.356   8.114
 1257TIP3   OH227749   0.711   2.423   7.884
 1257TIP3    H127750   0.785   2.453   7.937
 1257TIP3    H227751   0.663   2.506   7.862
 1258TIP3   OH227752   1.287   2.207   8.597
 1258TIP3    H127753   1.218   2.213   8.666
 1258TIP3    H227754   1.237   2.182   8.518
 1259TIP3   OH227755   0.563   2.559   7.684
 1259TIP3    H127756   0.509   2.524   7.613
 1259TIP3    H227757   0.643   2.587   7.638
 1260TIP3   OH227758   1.607   3.773   9.229
 1260TIP3    H127759   1.633   3.811   9.144
 1260TIP3    H227760   1.679   3.805   9.285
 1261TIP3   OH227761   0.379   3.018   9.188
 1261TIP3    H127762   0.452   3.043   9.248
 1261TIP3    H227763   0.302   3.026   9.247
 1262TIP3   OH227764   0.977   2.562   8.466
 1262TIP3    H127765   1.034   2.508   8.410
 1262TIP3    H227766   0.959   2.505   8.541
 1263TIP3   OH227767   0.476   2.174   8.102
 1263TIP3    H127768   0.445   2.083   8.105
 1263TIP3    H227769   0.557   2.168   8.050
 1264TIP3   OH227770   0.839   2.393   8.705
 1264TIP3    H127771   0.757   2.446   8.711
 1264TIP3    H227772   0.894   2.431   8.776
 1265TIP3   OH227773   0.895   3.021   7.873
 1265TIP3    H127774   0.820   2.969   7.841
 1265TIP3    H227775   0.876   3.028   7.969
 1266TIP3   OH227776   1.617   2.937   8.754
 1266TIP3    H127777   1.673   2.986   8.689
 1266TIP3    H227778   1.531   2.940   8.708
 1267TIP3   OH227779   1.047   3.045   8.998
 1267TIP3    H127780   1.012   3.000   9.076
 1267TIP3    H227781   1.020   3.136   9.009
 1268TIP3   OH227782   1.358   2.482   7.853
 1268TIP3    H127783   1.445   2.478   7.896
 1268TIP3    H227784   1.362   2.565   7.802
 1269TIP3   OH227785   0.410   2.957   8.454
 1269TIP3    H127786   0.474   2.947   8.381
 1269TIP3    H227787   0.415   2.869   8.495
 1270TIP3   OH227788   1.115   3.167   7.785
 1270TIP3    H127789   1.071   3.250   7.811
 1270TIP3    H227790   1.041   3.104   7.793
 1271TIP3   OH227791   0.118   2.779   8.976
 1271TIP3    H127792   0.126   2.746   9.066
 1271TIP3    H227793   0.041   2.733   8.939
 1272TIP3   OH227794   0.810   2.753   9.197
 1272TIP3    H127795   0.776   2.719   9.112
 1272TIP3    H227796   0.901   2.718   9.196
 1273TIP3   OH227797   1.278   3.286   8.993
 1273TIP3    H127798   1.186   3.303   8.969
 1273TIP3    H227799   1.274   3.315   9.086
 1274TIP3   OH227800   1.842   2.503   7.828
 1274TIP3    H127801   1.788   2.472   7.754
 1274TIP3    H227802   1.851   2.597   7.803
 1275TIP3   OH227803   1.843   3.089   9.111
 1275TIP3    H127804   1.754   3.111   9.076
 1275TIP3    H227805   1.897   3.084   9.029
 1276TIP3   OH227806   1.681   3.383   7.872
 1276TIP3    H127807   1.637   3.305   7.906
 1276TIP3    H227808   1.698   3.364   7.779
 1277TIP3   OH227809   1.394   2.868   8.582
 1277TIP3    H127810   1.300   2.848   8.570
 1277TIP3    H227811   1.437   2.793   8.537
 1278TIP3   OH227812   0.647   3.300   8.189
 1278TIP3    H127813   0.694   3.383   8.174
 1278TIP3    H227814   0.557   3.323   8.162
 1279TIP3   OH227815   0.785   3.069   8.140
 1279TIP3    H127816   0.753   3.160   8.154
 1279TIP3    H227817   0.717   3.015   8.187
 1280TIP3   OH227818   0.827   3.498   8.800
 1280TIP3    H127819   0.884   3.561   8.752
 1280TIP3    H227820   0.897   3.447   8.848
 1281TIP3   OH227821   0.661   3.564   8.101
 1281TIP3    H127822   0.564   3.578   8.112
 1281TIP3    H227823   0.692   3.652   8.130
 1282TIP3   OH227824   1.183   3.086   8.745
 1282TIP3    H127825   1.153   3.067   8.837
 1282TIP3    H227826   1.248   3.015   8.729
 1283TIP3   OH227827   1.414   3.176   7.654
 1283TIP3    H127828   1.442   3.144   7.741
 1283TIP3    H227829   1.318   3.183   7.669
 1284TIP3   OH227830   1.467   3.544   8.994
 1284TIP3    H127831   1.397   3.494   8.948
 1284TIP3    H227832   1.485   3.614   8.928
 1285TIP3   OH227833   0.272   2.268   8.932
 1285TIP3    H127834   0.181   2.303   8.936
 1285TIP3    H227835   0.259   2.184   8.978
 1286TIP3   OH227836   1.497   3.052   7.880
 1286TIP3    H127837   1.473   2.973   7.934
 1286TIP3    H227838   1.592   3.060   7.900
 1287TIP3   OH227839   0.242   3.447   8.771
 1287TIP3    H127840   0.263   3.352   8.777
 1287TIP3    H227841   0.253   3.474   8.863
 1288TIP3   OH227842   0.825   3.299   7.500
 1288TIP3    H127843   0.838   3.221   7.445
 1288TIP3    H227844   0.789   3.254   7.579
 1289TIP3   OH227845   0.707   3.259   7.752
 1289TIP3    H127846   0.735   3.194   7.819
 1289TIP3    H227847   0.727   3.340   7.795
 1290TIP3   OH227848   0.365   2.980   7.803
 1290TIP3    H127849   0.290   3.016   7.855
 1290TIP3    H227850   0.413   3.057   7.772
 1291TIP3   OH227851   1.147   2.247   8.831
 1291TIP3    H127852   1.218   2.253   8.896
 1291TIP3    H227853   1.108   2.160   8.852
 1292TIP3   OH227854   1.237   2.196   7.930
 1292TIP3    H127855   1.235   2.263   7.861
 1292TIP3    H227856   1.274   2.247   8.005
 1293TIP3   OH227857   0.984   3.420   7.816
 1293TIP3    H127858   0.913   3.481   7.831
 1293TIP3    H227859   1.047   3.470   7.761
 1294TIP3   OH227860   0.948   2.376   8.023
 1294TIP3    H127861   1.022   2.439   8.026
 1294TIP3    H227862   0.916   2.368   8.115
 1295TIP3   OH227863   0.999   2.482   8.941
 1295TIP3    H127864   1.006   2.536   9.022
 1295TIP3    H227865   1.065   2.412   8.950
 1296TIP3   OH227866   1.032   2.086   8.113
 1296TIP3    H127867   0.995   2.151   8.175
 1296TIP3    H227868   1.097   2.142   8.066
 1297TIP3   OH227869   1.616   2.268   9.025
 1297TIP3    H127870   1.523   2.300   9.012
 1297TIP3    H227871   1.646   2.266   8.933
 1298TIP3   OH227872   1.479   2.646   8.424
 1298TIP3    H127873   1.396   2.602   8.398
 1298TIP3    H227874   1.527   2.578   8.477
 1299TIP3   OH227875   0.420   3.242   7.684
 1299TIP3    H127876   0.489   3.296   7.721
 1299TIP3    H227877   0.467   3.190   7.617
 1300TIP3   OH227878   1.582   3.574   8.590
 1300TIP3    H127879   1.577   3.643   8.522
 1300TIP3    H227880   1.679   3.577   8.609
 1301TIP3   OH227881   0.329   1.990   8.468
 1301TIP3    H127882   0.311   1.986   8.371
 1301TIP3    H227883   0.296   1.901   8.498
 1302TIP3   OH227884   0.231   3.374   8.086
 1302TIP3    H127885   0.147   3.422   8.084
 1302TIP3    H227886   0.278   3.425   8.018
 1303TIP3   OH227887   0.155   3.639   9.214
 1303TIP3    H127888   0.209   3.614   9.291
 1303TIP3    H227889   0.107   3.556   9.194
 1304TIP3   OH227890   0.619   3.534   9.376
 1304TIP3    H127891   0.693   3.483   9.412
 1304TIP3    H227892   0.614   3.502   9.284
 1305TIP3   OH227893   1.267   3.373   9.253
 1305TIP3    H127894   1.235   3.284   9.280
 1305TIP3    H227895   1.344   3.385   9.311
 1306TIP3   OH227896   0.141   3.023   9.319
 1306TIP3    H127897   0.157   2.932   9.287
 1306TIP3    H227898   0.071   3.048   9.258
 1307TIP3   OH227899   0.812   3.019   9.254
 1307TIP3    H127900   0.779   3.050   9.168
 1307TIP3    H227901   0.818   2.920   9.243
 1308TIP3   OH227902   1.381   3.004   8.994
 1308TIP3    H127903   1.460   3.061   8.989
 1308TIP3    H227904   1.312   3.071   8.997
 1309TIP3   OH227905   0.217   2.741   9.255
 1309TIP3    H127906   0.275   2.663   9.246
 1309TIP3    H227907   0.205   2.743   9.351
 1310TIP3   OH227908   0.622   2.636   8.989
 1310TIP3    H127909   0.561   2.707   9.013
 1310TIP3    H227910   0.661   2.672   8.906
 1311TIP3   OH227911   1.130   2.894   9.324
 1311TIP3    H127912   1.225   2.891   9.309
 1311TIP3    H227913   1.113   2.817   9.380
 1312TIP3   OH227914   0.667   2.375   9.095
 1312TIP3    H127915   0.675   2.304   9.028
 1312TIP3    H227916   0.656   2.455   9.040
 1313TIP3   OH227917   0.703   2.213   8.848
 1313TIP3    H127918   0.754   2.261   8.778
 1313TIP3    H227919   0.613   2.206   8.808
 1314TIP3   OH227920   0.857   2.763   8.875
 1314TIP3    H127921   0.932   2.745   8.817
 1314TIP3    H227922   0.820   2.846   8.841
 1315TIP3   OH227923   1.296   2.536   9.370
 1315TIP3    H127924   1.320   2.442   9.361
 1315TIP3    H227925   1.382   2.581   9.374
 1316TIP3   OH227926   1.431   2.816   9.188
 1316TIP3    H127927   1.406   2.888   9.126
 1316TIP3    H227928   1.527   2.813   9.169
 1317TIP3   OH227929   0.509   2.500   9.286
 1317TIP3    H127930   0.433   2.441   9.271
 1317TIP3    H227931   0.574   2.462   9.224
 1318TIP3   OH227932   0.783   1.956   8.888
 1318TIP3    H127933   0.763   2.052   8.879
 1318TIP3    H227934   0.708   1.917   8.839
 1319TIP3   OH227935   0.910   2.389   9.253
 1319TIP3    H127936   0.877   2.365   9.342
 1319TIP3    H227937   0.832   2.369   9.198
 1320TIP3   OH227938   1.182   2.303   9.163
 1320TIP3    H127939   1.085   2.309   9.173
 1320TIP3    H227940   1.207   2.239   9.232
 1321TIP3   OH227941   1.340   2.166   9.349
 1321TIP3    H127942   1.335   2.068   9.353
 1321TIP3    H227943   1.316   2.196   9.439
 1322TIP3   OH227944   0.323   2.293   9.264
 1322TIP3    H127945   0.345   2.219   9.204
 1322TIP3    H227946   0.311   2.246   9.349
 1323TIP3   OH227947   0.804   1.896   9.160
 1323TIP3    H127948   0.870   1.824   9.159
 1323TIP3    H227949   0.792   1.908   9.063
 1324TIP3   OH227950   0.840   2.055   9.374
 1324TIP3    H127951   0.823   2.005   9.290
 1324TIP3    H227952   0.782   2.132   9.362
 1325TIP3   OH227953   0.144   3.208   7.630
 1325TIP3    H127954   0.238   3.216   7.655
 1325TIP3    H227955   0.150   3.135   7.564
 1326TIP3   OH227956   0.034   3.758   8.125
 1326TIP3    H127957  -0.044   3.708   8.092
 1326TIP3    H227958   0.055   3.695   8.196
 1327TIP3   OH227959   0.123   3.562   8.312
 1327TIP3    H127960   0.076   3.478   8.328
 1327TIP3    H227961   0.134   3.597   8.402
 1328TIP3   OH227962   1.856   3.637   8.612
 1328TIP3    H127963   1.860   3.653   8.708
 1328TIP3    H227964   1.926   3.696   8.582
 1329TIP3   OH227965   1.813   3.597   8.907
 1329TIP3    H127966   1.766   3.520   8.868
 1329TIP3    H227967   1.861   3.552   8.978
 1330TIP3   OH227968   1.658   3.168   9.375
 1330TIP3    H127969   1.567   3.166   9.410
 1330TIP3    H227970   1.695   3.249   9.415
 1331TIP3   OH227971   1.792   3.000   7.914
 1331TIP3    H127972   1.876   3.042   7.939
 1331TIP3    H227973   1.788   2.931   7.984
 1332TIP3   OH227974   1.826   2.810   8.103
 1332TIP3    H127975   1.750   2.761   8.143
 1332TIP3    H227976   1.884   2.823   8.181
 1333TIP3   OH227977   1.800   3.078   8.604
 1333TIP3    H127978   1.881   3.040   8.566
 1333TIP3    H227979   1.816   3.174   8.588
 1334TIP3   OH227980   1.657   3.370   8.831
 1334TIP3    H127981   1.588   3.404   8.890
 1334TIP3    H227982   1.602   3.330   8.760
 1335TIP3   OH227983   1.862   2.798   7.742
 1335TIP3    H127984   1.793   2.818   7.678
 1335TIP3    H227985   1.845   2.864   7.812
 1336TIP3   OH227986   1.609   2.656   8.162
 1336TIP3    H127987   1.593   2.561   8.159
 1336TIP3    H227988   1.575   2.678   8.251
 1337TIP3   OH227989   0.108   2.865   8.568
 1337TIP3    H127990   0.128   2.854   8.473
 1337TIP3    H227991   0.196   2.849   8.606
 1338TIP3   OH227992   1.694   2.853   9.133
 1338TIP3    H127993   1.755   2.777   9.145
 1338TIP3    H227994   1.755   2.930   9.133
 1339TIP3   OH227995   1.844   2.641   9.197
 1339TIP3    H127996   1.755   2.601   9.182
 1339TIP3    H227997   1.901   2.562   9.190
 1340TIP3   OH227998   1.609   2.256   7.503
 1340TIP3    H127999   1.679   2.226   7.563
 1340TIP3    H228000   1.526   2.219   7.529
 1341TIP3   OH228001   1.573   2.413   8.009
 1341TIP3    H128002   1.604   2.321   8.021
 1341TIP3    H228003   1.653   2.454   7.971
 1342TIP3   OH228004   1.638   2.470   8.553
 1342TIP3    H128005   1.734   2.492   8.552
 1342TIP3    H228006   1.620   2.483   8.648
 1343TIP3   OH228007   1.646   2.541   8.832
 1343TIP3    H128008   1.557   2.570   8.862
 1343TIP3    H228009   1.689   2.627   8.809
 1344TIP3   OH228010   0.087   2.354   9.149
 1344TIP3    H128011   0.172   2.367   9.196
 1344TIP3    H228012   0.032   2.311   9.214
 1345TIP3   OH228013   1.873   1.949   9.365
 1345TIP3    H128014   1.908   1.882   9.304
 1345TIP3    H228015   1.882   2.030   9.310
 1346TIP3   OH228016   1.640   2.141   8.012
 1346TIP3    H128017   1.664   2.101   8.099
 1346TIP3    H228018   1.581   2.076   7.973
 1347TIP3   OH228019   0.190   2.224   8.475
 1347TIP3    H128020   0.240   2.143   8.495
 1347TIP3    H228021   0.245   2.293   8.513
 1348TIP3   OH228022   0.036   2.535   8.582
 1348TIP3    H128023   0.087   2.508   8.501
 1348TIP3    H228024   0.077   2.620   8.599
 1349TIP3   OH228025   1.824   2.158   9.200
 1349TIP3    H128026   1.730   2.186   9.195
 1349TIP3    H228027   1.826   2.103   9.121
 1350TIP3   OH228028   0.079   2.136   7.939
 1350TIP3    H128029  -0.016   2.154   7.947
 1350TIP3    H228030   0.113   2.210   7.889
 1351TIP3   OH228031   1.528   3.644   8.174
 1351TIP3    H128032   1.597   3.617   8.109
 1351TIP3    H228033   1.580   3.696   8.237
 1352TIP3   OH228034   0.069   2.029   8.823
 1352TIP3    H128035  -0.005   2.000   8.878
 1352TIP3    H228036   0.014   2.090   8.767
 1353TIP3   OH228037   0.277   3.345   9.226
 1353TIP3    H128038   0.190   3.358   9.183
 1353TIP3    H228039   0.250   3.330   9.317
 1354TIP3   OH228040   0.565   3.441   8.859
 1354TIP3    H128041   0.519   3.512   8.811
 1354TIP3    H228042   0.653   3.435   8.814
 1355TIP3   OH228043   0.995   3.579   9.144
 1355TIP3    H128044   1.009   3.543   9.234
 1355TIP3    H228045   1.086   3.608   9.121
 1356TIP3   OH228046   1.222   3.705   9.075
 1356TIP3    H128047   1.296   3.647   9.051
 1356TIP3    H228048   1.260   3.750   9.154
 1357TIP3   OH228049   1.726   1.967   8.988
 1357TIP3    H128050   1.644   1.997   8.945
 1357TIP3    H228051   1.743   1.885   8.937
 1358TIP3   OH228052   0.305   3.760   8.855
 1358TIP3    H128053   0.231   3.810   8.815
 1358TIP3    H228054   0.269   3.747   8.944
 1359TIP3   OH228055   0.552   3.720   8.764
 1359TIP3    H128056   0.459   3.736   8.794
 1359TIP3    H228057   0.548   3.775   8.682
 1360TIP3   OH228058   1.019   3.706   8.679
 1360TIP3    H128059   0.977   3.766   8.614
 1360TIP3    H228060   1.040   3.771   8.750
 1361TIP3   OH228061   1.253   3.588   8.779
 1361TIP3    H128062   1.168   3.618   8.744
 1361TIP3    H228063   1.302   3.671   8.773
 1362TIP3   OH228064   1.510   3.746   8.802
 1362TIP3    H128065   1.506   3.842   8.779
 1362TIP3    H228066   1.532   3.708   8.714
 1363TIP3   OH228067   0.258   3.631   8.546
 1363TIP3    H128068   0.240   3.582   8.630
 1363TIP3    H228069   0.334   3.585   8.505
 1364TIP3   OH228070   0.457   3.495   8.418
 1364TIP3    H128071   0.444   3.400   8.436
 1364TIP3    H228072   0.546   3.511   8.454
 1365TIP3   OH228073   0.719   3.544   8.500
 1365TIP3    H128074   0.733   3.451   8.473
 1365TIP3    H228075   0.727   3.538   8.596
 1366TIP3   OH228076   1.066   2.110   8.414
 1366TIP3    H128077   0.998   2.047   8.443
 1366TIP3    H228078   1.119   2.057   8.355
 1367TIP3   OH228079   1.580   1.910   8.417
 1367TIP3    H128080   1.639   1.974   8.369
 1367TIP3    H228081   1.491   1.948   8.399
 1368TIP3   OH228082   1.746   2.038   8.248
 1368TIP3    H128083   1.815   1.983   8.205
 1368TIP3    H228084   1.795   2.123   8.260
 1369TIP3   OH228085   0.305   1.971   8.198
 1369TIP3    H128086   0.224   1.951   8.148
 1369TIP3    H228087   0.351   1.886   8.191
 1370TIP3   OH228088   0.747   1.967   8.178
 1370TIP3    H128089   0.839   1.996   8.168
 1370TIP3    H228090   0.745   1.943   8.271
 1371TIP3   OH228091   1.322   1.966   8.339
 1371TIP3    H128092   1.315   1.978   8.243
 1371TIP3    H228093   1.282   1.877   8.351
 1372TIP3   OH228094   1.438   1.966   7.889
 1372TIP3    H128095   1.368   2.032   7.909
 1372TIP3    H228096   1.406   1.885   7.937
 1373TIP3   OH228097   0.169   3.545   7.877
 1373TIP3    H128098   0.109   3.543   7.800
 1373TIP3    H228099   0.173   3.641   7.888
 1374TIP3   OH228100   0.872   2.165   7.863
 1374TIP3    H128101   0.885   2.109   7.940
 1374TIP3    H228102   0.865   2.253   7.906
 1375TIP3   OH228103   1.058   3.667   7.703
 1375TIP3    H128104   1.149   3.696   7.691
 1375TIP3    H228105   1.043   3.620   7.621
 1376TIP3   OH228106   1.726   3.625   7.978
 1376TIP3    H128107   1.707   3.545   7.923
 1376TIP3    H228108   1.717   3.697   7.912
 1377TIP3   OH228109   0.287   2.033   9.155
 1377TIP3    H128110   0.251   1.945   9.181
 1377TIP3    H228111   0.382   2.020   9.182
 1378TIP3   OH228112   0.494   1.966   9.312
 1378TIP3    H128113   0.581   1.930   9.287
 1378TIP3    H228114   0.452   1.884   9.346
 1379TIP3   OH228115   1.329   1.892   9.326
 1379TIP3    H128116   1.343   1.845   9.409
 1379TIP3    H228117   1.420   1.892   9.288
 1380TIP3   OH228118   1.652   3.498   9.186
 1380TIP3    H128119   1.572   3.485   9.131
 1380TIP3    H228120   1.640   3.593   9.208
 1381TIP3   OH228121   3.097   2.886   8.184
 1381TIP3    H128122   3.097   2.984   8.183
 1381TIP3    H228123   3.025   2.865   8.123
 1382TIP3   OH228124   2.981   2.810   8.534
 1382TIP3    H128125   2.981   2.746   8.607
 1382TIP3    H228126   2.946   2.759   8.459
 1383TIP3   OH228127   2.217   2.780   8.688
 1383TIP3    H128128   2.224   2.713   8.759
 1383TIP3    H228129   2.292   2.836   8.712
 1384TIP3   OH228130   2.309   3.224   8.539
 1384TIP3    H128131   2.279   3.137   8.508
 1384TIP3    H228132   2.405   3.206   8.543
 1385TIP3   OH228133   1.975   2.580   8.087
 1385TIP3    H128134   1.930   2.667   8.085
 1385TIP3    H228135   1.917   2.527   8.030
 1386TIP3   OH228136   2.046   2.802   8.303
 1386TIP3    H128137   2.074   2.720   8.347
 1386TIP3    H228138   2.114   2.814   8.236
 1387TIP3   OH228139   3.067   3.614   8.381
 1387TIP3    H128140   3.136   3.550   8.357
 1387TIP3    H228141   3.043   3.586   8.470
 1388TIP3   OH228142   2.819   3.050   8.583
 1388TIP3    H128143   2.853   2.988   8.517
 1388TIP3    H228144   2.901   3.067   8.633
 1389TIP3   OH228145   3.678   2.219   8.653
 1389TIP3    H128146   3.697   2.276   8.730
 1389TIP3    H228147   3.736   2.260   8.588
 1390TIP3   OH228148   3.135   2.497   8.615
 1390TIP3    H128149   3.153   2.402   8.615
 1390TIP3    H228150   3.126   2.512   8.518
 1391TIP3   OH228151   2.446   2.306   8.336
 1391TIP3    H128152   2.459   2.389   8.285
 1391TIP3    H228153   2.408   2.251   8.262
 1392TIP3   OH228154   3.220   2.316   8.175
 1392TIP3    H128155   3.287   2.283   8.239
 1392TIP3    H228156   3.276   2.372   8.118
 1393TIP3   OH228157   2.110   2.549   8.408
 1393TIP3    H128158   2.175   2.495   8.453
 1393TIP3    H228159   2.119   2.518   8.316
 1394TIP3   OH228160   2.622   2.702   8.345
 1394TIP3    H128161   2.695   2.647   8.378
 1394TIP3    H228162   2.574   2.638   8.289
 1395TIP3   OH228163   3.722   2.357   8.882
 1395TIP3    H128164   3.662   2.434   8.871
 1395TIP3    H228165   3.727   2.352   8.978
 1396TIP3   OH228166   2.341   2.200   8.736
 1396TIP3    H128167   2.298   2.257   8.668
 1396TIP3    H228168   2.275   2.216   8.810
 1397TIP3   OH228169   3.061   3.143   8.094
 1397TIP3    H128170   3.040   3.122   8.004
 1397TIP3    H228171   3.039   3.239   8.101
 1398TIP3   OH228172   2.589   2.961   8.761
 1398TIP3    H128173   2.519   3.026   8.785
 1398TIP3    H228174   2.660   3.021   8.733
 1399TIP3   OH228175   3.404   2.250   8.371
 1399TIP3    H128176   3.380   2.173   8.424
 1399TIP3    H228177   3.470   2.293   8.427
 1400TIP3   OH228178   2.303   2.376   8.545
 1400TIP3    H128179   2.353   2.457   8.571
 1400TIP3    H228180   2.337   2.354   8.454
 1401TIP3   OH228181   2.435   3.163   8.844
 1401TIP3    H128182   2.429   3.254   8.811
 1401TIP3    H228183   2.347   3.154   8.888
 1402TIP3   OH228184   2.039   3.123   7.919
 1402TIP3    H128185   2.014   3.159   7.833
 1402TIP3    H228186   2.048   3.204   7.975
 1403TIP3   OH228187   3.404   3.293   8.613
 1403TIP3    H128188   3.306   3.298   8.609
 1403TIP3    H228189   3.428   3.379   8.575
 1404TIP3   OH228190   3.435   2.118   8.738
 1404TIP3    H128191   3.363   2.182   8.728
 1404TIP3    H228192   3.507   2.160   8.687
 1405TIP3   OH228193   2.731   1.935   8.484
 1405TIP3    H128194   2.724   1.838   8.475
 1405TIP3    H228195   2.641   1.956   8.517
 1406TIP3   OH228196   3.517   3.120   8.960
 1406TIP3    H128197   3.530   3.054   8.888
 1406TIP3    H228198   3.533   3.205   8.914
 1407TIP3   OH228199   2.964   2.807   7.935
 1407TIP3    H128200   2.893   2.864   7.902
 1407TIP3    H228201   3.031   2.813   7.864
 1408TIP3   OH228202   2.971   2.664   7.642
 1408TIP3    H128203   3.042   2.654   7.705
 1408TIP3    H228204   2.990   2.595   7.576
 1409TIP3   OH228205   3.700   2.752   8.763
 1409TIP3    H128206   3.633   2.823   8.769
 1409TIP3    H228207   3.746   2.773   8.681
 1410TIP3   OH228208   3.304   2.823   8.025
 1410TIP3    H128209   3.237   2.857   8.089
 1410TIP3    H228210   3.358   2.768   8.084
 1411TIP3   OH228211   3.300   2.647   8.941
 1411TIP3    H128212   3.300   2.730   8.992
 1411TIP3    H228213   3.238   2.676   8.871
 1412TIP3   OH228214   2.468   2.896   8.220
 1412TIP3    H128215   2.435   2.856   8.136
 1412TIP3    H228216   2.530   2.827   8.254
 1413TIP3   OH228217   2.599   3.233   8.487
 1413TIP3    H128218   2.600   3.183   8.405
 1413TIP3    H228219   2.679   3.199   8.533
 1414TIP3   OH228220   2.502   2.767   8.588
 1414TIP3    H128221   2.554   2.781   8.506
 1414TIP3    H228222   2.539   2.836   8.647
 1415TIP3   OH228223   3.143   3.330   8.658
 1415TIP3    H128224   3.114   3.392   8.726
 1415TIP3    H228225   3.119   3.243   8.697
 1416TIP3   OH228226   2.596   3.215   9.056
 1416TIP3    H128227   2.554   3.288   9.105
 1416TIP3    H228228   2.530   3.194   8.986
 1417TIP3   OH228229   3.194   2.755   7.795
 1417TIP3    H128230   3.249   2.771   7.877
 1417TIP3    H228231   3.240   2.798   7.723
 1418TIP3   OH228232   2.291   2.830   8.969
 1418TIP3    H128233   2.297   2.897   9.041
 1418TIP3    H228234   2.196   2.838   8.950
 1419TIP3   OH228235   2.965   3.424   8.141
 1419TIP3    H128236   3.011   3.456   8.219
 1419TIP3    H228237   2.909   3.499   8.117
 1420TIP3   OH228238   2.421   3.417   9.130
 1420TIP3    H128239   2.414   3.408   9.034
 1420TIP3    H228240   2.329   3.403   9.158
 1421TIP3   OH228241   2.367   2.802   7.976
 1421TIP3    H128242   2.330   2.880   7.936
 1421TIP3    H228243   2.300   2.732   7.963
 1422TIP3   OH228244   1.974   3.042   8.873
 1422TIP3    H128245   1.930   3.034   8.786
 1422TIP3    H228246   1.983   2.947   8.894
 1423TIP3   OH228247   1.950   3.315   8.550
 1423TIP3    H128248   2.046   3.304   8.547
 1423TIP3    H228249   1.942   3.397   8.599
 1424TIP3   OH228250   3.773   3.386   9.120
 1424TIP3    H128251   3.764   3.290   9.113
 1424TIP3    H228252   3.685   3.410   9.156
 1425TIP3   OH228253   2.869   3.339   9.004
 1425TIP3    H128254   2.875   3.424   9.055
 1425TIP3    H228255   2.782   3.303   9.029
 1426TIP3   OH228256   2.910   3.714   7.984
 1426TIP3    H128257   2.905   3.705   7.887
 1426TIP3    H228258   2.916   3.810   8.000
 1427TIP3   OH228259   2.276   3.605   8.169
 1427TIP3    H128260   2.294   3.561   8.256
 1427TIP3    H228261   2.193   3.560   8.146
 1428TIP3   OH228262   3.184   3.632   7.965
 1428TIP3    H128263   3.089   3.632   7.985
 1428TIP3    H228264   3.217   3.559   8.020
 1429TIP3   OH228265   3.489   2.532   9.164
 1429TIP3    H128266   3.440   2.577   9.093
 1429TIP3    H228267   3.486   2.440   9.134
 1430TIP3   OH228268   2.203   3.173   8.965
 1430TIP3    H128269   2.225   3.137   9.054
 1430TIP3    H228270   2.116   3.134   8.944
 1431TIP3   OH228271   2.471   2.017   8.556
 1431TIP3    H128272   2.380   1.995   8.522
 1431TIP3    H228273   2.449   2.065   8.636
 1432TIP3   OH228274   2.937   1.986   8.896
 1432TIP3    H128275   2.976   1.944   8.975
 1432TIP3    H228276   2.840   1.975   8.912
 1433TIP3   OH228277   3.264   2.373   8.987
 1433TIP3    H128278   3.207   2.351   9.064
 1433TIP3    H228279   3.245   2.466   8.964
 1434TIP3   OH228280   2.480   2.516   8.685
 1434TIP3    H128281   2.409   2.521   8.752
 1434TIP3    H228282   2.479   2.609   8.650
 1435TIP3   OH228283   2.476   2.522   8.175
 1435TIP3    H128284   2.382   2.506   8.156
 1435TIP3    H228285   2.514   2.501   8.087
 1436TIP3   OH228286   3.025   2.577   8.046
 1436TIP3    H128287   2.989   2.662   8.014
 1436TIP3    H228288   3.098   2.562   7.983
 1437TIP3   OH228289   2.934   2.601   9.192
 1437TIP3    H128290   2.882   2.523   9.223
 1437TIP3    H228291   3.018   2.590   9.240
 1438TIP3   OH228292   3.132   2.529   8.334
 1438TIP3    H128293   3.104   2.586   8.260
 1438TIP3    H228294   3.142   2.444   8.287
 1439TIP3   OH228295   2.245   2.540   8.851
 1439TIP3    H128296   2.252   2.586   8.937
 1439TIP3    H228297   2.197   2.459   8.876
 1440TIP3   OH228298   1.906   2.253   8.250
 1440TIP3    H128299   1.973   2.250   8.322
 1440TIP3    H228300   1.954   2.216   8.174
 1441TIP3   OH228301   2.043   2.331   7.800
 1441TIP3    H128302   2.082   2.384   7.728
 1441TIP3    H228303   1.965   2.388   7.814
 1442TIP3   OH228304   3.050   2.687   8.789
 1442TIP3    H128305   3.091   2.619   8.730
 1442TIP3    H228306   3.004   2.634   8.856
 1443TIP3   OH228307   2.733   2.287   8.274
 1443TIP3    H128308   2.640   2.287   8.299
 1443TIP3    H228309   2.783   2.267   8.355
 1444TIP3   OH228310   2.212   2.435   8.166
 1444TIP3    H128311   2.127   2.456   8.120
 1444TIP3    H228312   2.243   2.358   8.116
 1445TIP3   OH228313   2.575   2.449   7.929
 1445TIP3    H128314   2.672   2.454   7.936
 1445TIP3    H228315   2.552   2.512   7.858
 1446TIP3   OH228316   3.173   2.209   8.596
 1446TIP3    H128317   3.105   2.213   8.667
 1446TIP3    H228318   3.122   2.183   8.518
 1447TIP3   OH228319   2.451   2.567   7.679
 1447TIP3    H128320   2.390   2.530   7.613
 1447TIP3    H228321   2.532   2.580   7.628
 1448TIP3   OH228322   3.493   3.773   9.228
 1448TIP3    H128323   3.520   3.809   9.142
 1448TIP3    H228324   3.565   3.805   9.285
 1449TIP3   OH228325   2.260   3.020   9.187
 1449TIP3    H128326   2.332   3.045   9.247
 1449TIP3    H228327   2.183   3.026   9.247
 1450TIP3   OH228328   2.855   2.558   8.460
 1450TIP3    H128329   2.922   2.510   8.409
 1450TIP3    H228330   2.850   2.507   8.541
 1451TIP3   OH228331   2.364   2.175   8.110
 1451TIP3    H128332   2.328   2.084   8.104
 1451TIP3    H228333   2.440   2.167   8.051
 1452TIP3   OH228334   2.718   2.388   8.706
 1452TIP3    H128335   2.644   2.451   8.715
 1452TIP3    H228336   2.781   2.427   8.771
 1453TIP3   OH228337   2.776   3.018   7.868
 1453TIP3    H128338   2.701   2.962   7.852
 1453TIP3    H228339   2.768   3.034   7.965
 1454TIP3   OH228340   3.503   2.937   8.752
 1454TIP3    H128341   3.554   2.988   8.688
 1454TIP3    H228342   3.415   2.938   8.709
 1455TIP3   OH228343   3.167   2.296   7.696
 1455TIP3    H128344   3.075   2.315   7.674
 1455TIP3    H228345   3.201   2.383   7.723
 1456TIP3   OH228346   2.932   3.044   8.998
 1456TIP3    H128347   2.897   3.000   9.076
 1456TIP3    H228348   2.906   3.136   9.009
 1457TIP3   OH228349   3.241   2.493   7.861
 1457TIP3    H128350   3.331   2.474   7.896
 1457TIP3    H228351   3.250   2.571   7.805
 1458TIP3   OH228352   2.295   2.956   8.453
 1458TIP3    H128353   2.361   2.948   8.382
 1458TIP3    H228354   2.300   2.870   8.499
 1459TIP3   OH228355   2.997   3.162   7.779
 1459TIP3    H128356   2.962   3.249   7.809
 1459TIP3    H228357   2.920   3.103   7.794
 1460TIP3   OH228358   1.993   2.795   8.979
 1460TIP3    H128359   2.009   2.751   9.065
 1460TIP3    H228360   1.931   2.735   8.935
 1461TIP3   OH228361   2.694   2.752   9.196
 1461TIP3    H128362   2.662   2.719   9.111
 1461TIP3    H228363   2.786   2.718   9.196
 1462TIP3   OH228364   3.164   3.286   8.993
 1462TIP3    H128365   3.071   3.303   8.969
 1462TIP3    H228366   3.160   3.315   9.087
 1463TIP3   OH228367   3.723   2.504   7.835
 1463TIP3    H128368   3.671   2.475   7.761
 1463TIP3    H228369   3.737   2.599   7.813
 1464TIP3   OH228370   3.728   3.088   9.114
 1464TIP3    H128371   3.640   3.110   9.076
 1464TIP3    H228372   3.783   3.085   9.033
 1465TIP3   OH228373   3.280   2.860   8.591
 1465TIP3    H128374   3.186   2.849   8.568
 1465TIP3    H228375   3.322   2.794   8.534
 1466TIP3   OH228376   2.530   3.299   8.191
 1466TIP3    H128377   2.581   3.380   8.172
 1466TIP3    H228378   2.443   3.325   8.158
 1467TIP3   OH228379   2.112   2.786   7.646
 1467TIP3    H128380   2.164   2.852   7.689
 1467TIP3    H228381   2.021   2.808   7.675
 1468TIP3   OH228382   2.671   3.068   8.140
 1468TIP3    H128383   2.642   3.161   8.154
 1468TIP3    H228384   2.602   3.019   8.189
 1469TIP3   OH228385   2.718   3.487   8.786
 1469TIP3    H128386   2.765   3.565   8.756
 1469TIP3    H228387   2.780   3.451   8.852
 1470TIP3   OH228388   2.541   3.563   8.101
 1470TIP3    H128389   2.445   3.578   8.116
 1470TIP3    H228390   2.577   3.649   8.128
 1471TIP3   OH228391   3.068   3.084   8.746
 1471TIP3    H128392   3.038   3.066   8.837
 1471TIP3    H228393   3.133   3.014   8.729
 1472TIP3   OH228394   3.353   3.543   8.995
 1472TIP3    H128395   3.283   3.495   8.948
 1472TIP3    H228396   3.370   3.614   8.929
 1473TIP3   OH228397   2.159   2.268   8.932
 1473TIP3    H128398   2.069   2.305   8.934
 1473TIP3    H228399   2.147   2.186   8.983
 1474TIP3   OH228400   2.119   3.447   8.776
 1474TIP3    H128401   2.151   3.355   8.777
 1474TIP3    H228402   2.146   3.477   8.864
 1475TIP3   OH228403   2.699   3.295   7.502
 1475TIP3    H128404   2.733   3.226   7.446
 1475TIP3    H228405   2.689   3.261   7.589
 1476TIP3   OH228406   3.032   2.246   8.832
 1476TIP3    H128407   3.104   2.254   8.896
 1476TIP3    H228408   2.996   2.158   8.854
 1477TIP3   OH228409   3.107   2.204   7.943
 1477TIP3    H128410   3.127   2.249   7.859
 1477TIP3    H228411   3.162   2.253   8.006
 1478TIP3   OH228412   2.877   3.417   7.819
 1478TIP3    H128413   2.793   3.466   7.829
 1478TIP3    H228414   2.926   3.472   7.757
 1479TIP3   OH228415   2.828   2.378   8.019
 1479TIP3    H128416   2.906   2.437   8.023
 1479TIP3    H228417   2.802   2.367   8.112
 1480TIP3   OH228418   2.885   2.481   8.941
 1480TIP3    H128419   2.892   2.536   9.021
 1480TIP3    H228420   2.951   2.412   8.950
 1481TIP3   OH228421   2.915   2.086   8.108
 1481TIP3    H128422   2.882   2.151   8.171
 1481TIP3    H228423   2.985   2.140   8.064
 1482TIP3   OH228424   2.615   3.522   7.825
 1482TIP3    H128425   2.625   3.602   7.770
 1482TIP3    H228426   2.586   3.557   7.911
 1483TIP3   OH228427   2.482   2.193   7.781
 1483TIP3    H128428   2.475   2.283   7.816
 1483TIP3    H228429   2.572   2.171   7.811
 1484TIP3   OH228430   3.501   2.267   9.025
 1484TIP3    H128431   3.409   2.300   9.012
 1484TIP3    H228432   3.532   2.266   8.933
 1485TIP3   OH228433   3.365   2.646   8.427
 1485TIP3    H128434   3.282   2.603   8.398
 1485TIP3    H228435   3.410   2.576   8.479
 1486TIP3   OH228436   2.138   2.503   7.600
 1486TIP3    H128437   2.137   2.600   7.614
 1486TIP3    H228438   2.051   2.481   7.562
 1487TIP3   OH228439   3.468   3.578   8.597
 1487TIP3    H128440   3.459   3.634   8.520
 1487TIP3    H228441   3.566   3.577   8.610
 1488TIP3   OH228442   2.220   1.985   8.475
 1488TIP3    H128443   2.200   1.987   8.378
 1488TIP3    H228444   2.178   1.900   8.499
 1489TIP3   OH228445   2.112   3.377   8.088
 1489TIP3    H128446   2.027   3.423   8.084
 1489TIP3    H228447   2.161   3.423   8.019
 1490TIP3   OH228448   2.034   3.642   9.216
 1490TIP3    H128449   2.095   3.623   9.290
 1490TIP3    H228450   1.995   3.555   9.198
 1491TIP3   OH228451   2.504   3.534   9.376
 1491TIP3    H128452   2.579   3.484   9.410
 1491TIP3    H228453   2.500   3.506   9.283
 1492TIP3   OH228454   3.152   3.373   9.253
 1492TIP3    H128455   3.121   3.284   9.280
 1492TIP3    H228456   3.230   3.385   9.311
 1493TIP3   OH228457   2.024   3.019   9.316
 1493TIP3    H128458   2.041   2.928   9.286
 1493TIP3    H228459   1.951   3.045   9.258
 1494TIP3   OH228460   2.697   3.019   9.254
 1494TIP3    H128461   2.664   3.050   9.168
 1494TIP3    H228462   2.703   2.921   9.243
 1495TIP3   OH228463   3.267   3.004   8.998
 1495TIP3    H128464   3.346   3.061   8.986
 1495TIP3    H228465   3.198   3.071   8.995
 1496TIP3   OH228466   2.118   2.742   9.254
 1496TIP3    H128467   2.161   2.656   9.245
 1496TIP3    H228468   2.095   2.743   9.349
 1497TIP3   OH228469   2.506   2.634   8.985
 1497TIP3    H128470   2.449   2.706   9.014
 1497TIP3    H228471   2.550   2.675   8.909
 1498TIP3   OH228472   3.016   2.894   9.324
 1498TIP3    H128473   3.111   2.891   9.309
 1498TIP3    H228474   2.998   2.817   9.380
 1499TIP3   OH228475   3.623   2.909   7.523
 1499TIP3    H128476   3.597   2.869   7.439
 1499TIP3    H228477   3.632   3.002   7.496
 1500TIP3   OH228478   2.548   2.374   9.093
 1500TIP3    H128479   2.562   2.303   9.028
 1500TIP3    H228480   2.544   2.456   9.041
 1501TIP3   OH228481   2.590   2.207   8.847
 1501TIP3    H128482   2.642   2.261   8.783
 1501TIP3    H228483   2.497   2.208   8.816
 1502TIP3   OH228484   2.742   2.762   8.875
 1502TIP3    H128485   2.818   2.745   8.818
 1502TIP3    H228486   2.706   2.845   8.840
 1503TIP3   OH228487   3.182   2.536   9.370
 1503TIP3    H128488   3.207   2.443   9.360
 1503TIP3    H228489   3.268   2.581   9.374
 1504TIP3   OH228490   3.317   2.816   9.189
 1504TIP3    H128491   3.291   2.888   9.126
 1504TIP3    H228492   3.412   2.813   9.168
 1505TIP3   OH228493   2.395   2.499   9.287
 1505TIP3    H128494   2.318   2.441   9.270
 1505TIP3    H228495   2.460   2.462   9.224
 1506TIP3   OH228496   2.669   1.956   8.886
 1506TIP3    H128497   2.649   2.052   8.880
 1506TIP3    H228498   2.593   1.916   8.840
 1507TIP3   OH228499   2.794   2.389   9.253
 1507TIP3    H128500   2.762   2.365   9.342
 1507TIP3    H228501   2.717   2.368   9.198
 1508TIP3   OH228502   3.067   2.304   9.163
 1508TIP3    H128503   2.971   2.309   9.173
 1508TIP3    H228504   3.093   2.239   9.232
 1509TIP3   OH228505   3.224   2.165   9.350
 1509TIP3    H128506   3.221   2.067   9.354
 1509TIP3    H228507   3.201   2.194   9.440
 1510TIP3   OH228508   2.202   2.294   9.263
 1510TIP3    H128509   2.226   2.219   9.205
 1510TIP3    H228510   2.192   2.249   9.350
 1511TIP3   OH228511   2.689   1.896   9.159
 1511TIP3    H128512   2.757   1.826   9.158
 1511TIP3    H228513   2.678   1.909   9.062
 1512TIP3   OH228514   2.725   2.056   9.372
 1512TIP3    H128515   2.708   2.005   9.289
 1512TIP3    H228516   2.666   2.133   9.362
 1513TIP3   OH228517   2.677   3.763   7.699
 1513TIP3    H128518   2.773   3.748   7.690
 1513TIP3    H228519   2.650   3.796   7.612
 1514TIP3   OH228520   2.032   3.204   7.635
 1514TIP3    H128521   2.126   3.220   7.655
 1514TIP3    H228522   2.038   3.145   7.558
 1515TIP3   OH228523   1.905   3.742   8.132
 1515TIP3    H128524   1.832   3.695   8.086
 1515TIP3    H228525   1.931   3.678   8.201
 1516TIP3   OH228526   1.986   3.557   8.321
 1516TIP3    H128527   1.950   3.470   8.341
 1516TIP3    H228528   2.011   3.590   8.409
 1517TIP3   OH228529   3.729   3.657   8.616
 1517TIP3    H128530   3.747   3.648   8.711
 1517TIP3    H228531   3.817   3.681   8.583
 1518TIP3   OH228532   3.696   3.597   8.905
 1518TIP3    H128533   3.653   3.518   8.869
 1518TIP3    H228534   3.747   3.554   8.976
 1519TIP3   OH228535   3.543   3.168   9.375
 1519TIP3    H128536   3.453   3.166   9.411
 1519TIP3    H228537   3.581   3.249   9.415
 1520TIP3   OH228538   3.679   2.993   7.914
 1520TIP3    H128539   3.760   3.038   7.941
 1520TIP3    H228540   3.675   2.928   7.988
 1521TIP3   OH228541   3.712   2.807   8.102
 1521TIP3    H128542   3.639   2.761   8.146
 1521TIP3    H228543   3.774   2.829   8.175
 1522TIP3   OH228544   3.694   3.076   8.608
 1522TIP3    H128545   3.771   3.045   8.560
 1522TIP3    H228546   3.693   3.172   8.590
 1523TIP3   OH228547   3.542   3.369   8.832
 1523TIP3    H128548   3.472   3.404   8.889
 1523TIP3    H228549   3.487   3.330   8.760
 1524TIP3   OH228550   3.742   2.788   7.743
 1524TIP3    H128551   3.689   2.831   7.672
 1524TIP3    H228552   3.734   2.857   7.812
 1525TIP3   OH228553   3.490   2.654   8.162
 1525TIP3    H128554   3.477   2.558   8.162
 1525TIP3    H228555   3.461   2.681   8.250
 1526TIP3   OH228556   1.994   2.866   8.569
 1526TIP3    H128557   2.011   2.857   8.473
 1526TIP3    H228558   2.083   2.847   8.604
 1527TIP3   OH228559   3.578   2.853   9.135
 1527TIP3    H128560   3.640   2.777   9.144
 1527TIP3    H228561   3.639   2.930   9.133
 1528TIP3   OH228562   3.729   2.640   9.200
 1528TIP3    H128563   3.641   2.601   9.181
 1528TIP3    H228564   3.787   2.563   9.189
 1529TIP3   OH228565   3.460   2.413   8.004
 1529TIP3    H128566   3.490   2.322   8.022
 1529TIP3    H228567   3.541   2.456   7.973
 1530TIP3   OH228568   3.524   2.469   8.553
 1530TIP3    H128569   3.620   2.490   8.551
 1530TIP3    H228570   3.506   2.484   8.647
 1531TIP3   OH228571   3.531   2.541   8.831
 1531TIP3    H128572   3.443   2.569   8.862
 1531TIP3    H228573   3.574   2.627   8.810
 1532TIP3   OH228574   1.956   2.396   9.186
 1532TIP3    H128575   2.049   2.374   9.204
 1532TIP3    H228576   1.910   2.313   9.211
 1533TIP3   OH228577   3.759   1.948   9.364
 1533TIP3    H128578   3.792   1.881   9.302
 1533TIP3    H228579   3.767   2.029   9.310
 1534TIP3   OH228580   3.531   2.140   8.007
 1534TIP3    H128581   3.547   2.104   8.097
 1534TIP3    H228582   3.463   2.078   7.971
 1535TIP3   OH228583   2.077   2.225   8.467
 1535TIP3    H128584   2.118   2.141   8.495
 1535TIP3    H228585   2.129   2.294   8.510
 1536TIP3   OH228586   1.903   2.525   8.573
 1536TIP3    H128587   1.958   2.500   8.496
 1536TIP3    H228588   1.951   2.605   8.600
 1537TIP3   OH228589   3.710   2.158   9.200
 1537TIP3    H128590   3.616   2.186   9.195
 1537TIP3    H228591   3.712   2.103   9.121
 1538TIP3   OH228592   1.938   2.149   7.978
 1538TIP3    H128593   1.845   2.173   7.971
 1538TIP3    H228594   1.981   2.202   7.909
 1539TIP3   OH228595   1.934   2.015   8.808
 1539TIP3    H128596   1.869   1.999   8.879
 1539TIP3    H228597   1.891   2.085   8.756
 1540TIP3   OH228598   2.160   3.334   9.225
 1540TIP3    H128599   2.076   3.358   9.182
 1540TIP3    H228600   2.133   3.327   9.317
 1541TIP3   OH228601   2.449   3.437   8.854
 1541TIP3    H128602   2.417   3.524   8.827
 1541TIP3    H228603   2.542   3.444   8.823
 1542TIP3   OH228604   2.881   3.579   9.143
 1542TIP3    H128605   2.894   3.543   9.234
 1542TIP3    H228606   2.972   3.609   9.120
 1543TIP3   OH228607   3.109   3.706   9.076
 1543TIP3    H128608   3.183   3.648   9.051
 1543TIP3    H228609   3.147   3.750   9.155
 1544TIP3   OH228610   3.612   1.967   8.987
 1544TIP3    H128611   3.529   1.997   8.945
 1544TIP3    H228612   3.628   1.884   8.935
 1545TIP3   OH228613   2.191   3.760   8.852
 1545TIP3    H128614   2.118   3.810   8.813
 1545TIP3    H228615   2.161   3.742   8.942
 1546TIP3   OH228616   2.438   3.717   8.760
 1546TIP3    H128617   2.349   3.734   8.799
 1546TIP3    H228618   2.433   3.777   8.683
 1547TIP3   OH228619   2.910   3.708   8.675
 1547TIP3    H128620   2.862   3.766   8.613
 1547TIP3    H228621   2.924   3.770   8.749
 1548TIP3   OH228622   3.136   3.590   8.783
 1548TIP3    H128623   3.051   3.618   8.745
 1548TIP3    H228624   3.187   3.672   8.772
 1549TIP3   OH228625   3.394   3.746   8.804
 1549TIP3    H128626   3.389   3.841   8.781
 1549TIP3    H228627   3.417   3.706   8.718
 1550TIP3   OH228628   2.138   3.625   8.547
 1550TIP3    H128629   2.129   3.578   8.633
 1550TIP3    H228630   2.220   3.586   8.509
 1551TIP3   OH228631   2.345   3.496   8.412
 1551TIP3    H128632   2.329   3.403   8.437
 1551TIP3    H228633   2.431   3.512   8.457
 1552TIP3   OH228634   2.605   3.544   8.500
 1552TIP3    H128635   2.621   3.451   8.474
 1552TIP3    H228636   2.610   3.539   8.597
 1553TIP3   OH228637   2.947   2.109   8.413
 1553TIP3    H128638   2.884   2.042   8.443
 1553TIP3    H228639   3.006   2.056   8.357
 1554TIP3   OH228640   3.464   1.913   8.419
 1554TIP3    H128641   3.525   1.973   8.370
 1554TIP3    H228642   3.376   1.949   8.397
 1555TIP3   OH228643   3.629   2.040   8.246
 1555TIP3    H128644   3.699   1.980   8.209
 1555TIP3    H228645   3.681   2.122   8.264
 1556TIP3   OH228646   2.185   1.971   8.206
 1556TIP3    H128647   2.109   1.956   8.147
 1556TIP3    H228648   2.234   1.887   8.190
 1557TIP3   OH228649   2.063   1.948   7.775
 1557TIP3    H128650   2.103   2.012   7.716
 1557TIP3    H228651   2.005   2.004   7.829
 1558TIP3   OH228652   2.632   1.969   8.181
 1558TIP3    H128653   2.725   1.998   8.166
 1558TIP3    H228654   2.635   1.940   8.272
 1559TIP3   OH228655   3.206   1.966   8.340
 1559TIP3    H128656   3.200   1.978   8.245
 1559TIP3    H228657   3.168   1.876   8.352
 1560TIP3   OH228658   3.334   1.970   7.904
 1560TIP3    H128659   3.259   2.030   7.894
 1560TIP3    H228660   3.291   1.885   7.929
 1561TIP3   OH228661   2.053   3.545   7.874
 1561TIP3    H128662   1.990   3.540   7.801
 1561TIP3    H228663   2.055   3.639   7.892
 1562TIP3   OH228664   2.744   2.168   7.859
 1562TIP3    H128665   2.774   2.111   7.932
 1562TIP3    H228666   2.758   2.254   7.906
 1563TIP3   OH228667   2.943   3.677   7.702
 1563TIP3    H128668   3.036   3.696   7.685
 1563TIP3    H228669   2.922   3.625   7.623
 1564TIP3   OH228670   3.614   3.625   7.972
 1564TIP3    H128671   3.593   3.550   7.916
 1564TIP3    H228672   3.615   3.699   7.910
 1565TIP3   OH228673   2.177   2.025   9.143
 1565TIP3    H128674   2.136   1.947   9.183
 1565TIP3    H228675   2.266   2.021   9.184
 1566TIP3   OH228676   2.376   1.965   9.310
 1566TIP3    H128677   2.465   1.931   9.288
 1566TIP3    H228678   2.339   1.884   9.349
 1567TIP3   OH228679   3.216   1.893   9.324
 1567TIP3    H128680   3.225   1.845   9.409
 1567TIP3    H228681   3.308   1.889   9.290
 1568TIP3   OH228682   3.537   3.498   9.188
 1568TIP3    H128683   3.458   3.485   9.131
 1568TIP3    H228684   3.526   3.593   9.208
 1569TIP3   OH228685   4.984   2.887   8.185
 1569TIP3    H128686   4.981   2.985   8.180
 1569TIP3    H228687   4.909   2.863   8.127
 1570TIP3   OH228688   4.869   2.810   8.534
 1570TIP3    H128689   4.866   2.746   8.607
 1570TIP3    H228690   4.832   2.759   8.460
 1571TIP3   OH228691   5.235   3.107   8.363
 1571TIP3    H128692   5.194   3.035   8.412
 1571TIP3    H228693   5.238   3.177   8.431
 1572TIP3   OH228694   3.861   2.577   8.082
 1572TIP3    H128695   3.821   2.667   8.085
 1572TIP3    H228696   3.797   2.528   8.032
 1573TIP3   OH228697   4.948   3.622   8.385
 1573TIP3    H128698   5.013   3.553   8.358
 1573TIP3    H228699   4.925   3.588   8.472
 1574TIP3   OH228700   4.706   3.053   8.580
 1574TIP3    H128701   4.739   2.989   8.516
 1574TIP3    H228702   4.787   3.068   8.633
 1575TIP3   OH228703   5.563   2.218   8.653
 1575TIP3    H128704   5.582   2.275   8.731
 1575TIP3    H228705   5.622   2.259   8.588
 1576TIP3   OH228706   5.022   2.498   8.614
 1576TIP3    H128707   5.039   2.402   8.615
 1576TIP3    H228708   5.011   2.512   8.518
 1577TIP3   OH228709   4.333   2.305   8.334
 1577TIP3    H128710   4.344   2.390   8.287
 1577TIP3    H228711   4.292   2.251   8.264
 1578TIP3   OH228712   5.105   2.316   8.173
 1578TIP3    H128713   5.171   2.283   8.238
 1578TIP3    H228714   5.162   2.372   8.118
 1579TIP3   OH228715   3.991   2.541   8.413
 1579TIP3    H128716   4.064   2.492   8.453
 1579TIP3    H228717   4.007   2.528   8.319
 1580TIP3   OH228718   4.517   2.700   8.341
 1580TIP3    H128719   4.582   2.640   8.381
 1580TIP3    H228720   4.460   2.638   8.290
 1581TIP3   OH228721   5.609   2.358   8.882
 1581TIP3    H128722   5.549   2.435   8.870
 1581TIP3    H228723   5.611   2.351   8.978
 1582TIP3   OH228724   4.225   2.198   8.739
 1582TIP3    H128725   4.196   2.255   8.664
 1582TIP3    H228726   4.157   2.220   8.807
 1583TIP3   OH228727   4.955   3.145   8.092
 1583TIP3    H128728   4.927   3.118   8.004
 1583TIP3    H228729   4.921   3.236   8.101
 1584TIP3   OH228730   5.289   2.250   8.371
 1584TIP3    H128731   5.266   2.173   8.424
 1584TIP3    H228732   5.356   2.293   8.427
 1585TIP3   OH228733   4.182   2.379   8.544
 1585TIP3    H128734   4.243   2.450   8.573
 1585TIP3    H228735   4.233   2.343   8.467
 1586TIP3   OH228736   5.289   3.290   8.600
 1586TIP3    H128737   5.192   3.302   8.612
 1586TIP3    H228738   5.315   3.382   8.579
 1587TIP3   OH228739   5.321   2.118   8.738
 1587TIP3    H128740   5.249   2.182   8.728
 1587TIP3    H228741   5.393   2.160   8.687
 1588TIP3   OH228742   4.616   1.931   8.485
 1588TIP3    H128743   4.602   1.835   8.477
 1588TIP3    H228744   4.529   1.961   8.516
 1589TIP3   OH228745   5.114   3.468   8.257
 1589TIP3    H128746   5.159   3.396   8.210
 1589TIP3    H228747   5.162   3.547   8.223
 1590TIP3   OH228748   5.236   3.261   8.108
 1590TIP3    H128749   5.207   3.189   8.051
 1590TIP3    H228750   5.241   3.213   8.193
 1591TIP3   OH228751   5.397   3.122   8.960
 1591TIP3    H128752   5.412   3.055   8.889
 1591TIP3    H228753   5.418   3.205   8.914
 1592TIP3   OH228754   4.846   2.809   7.934
 1592TIP3    H128755   4.783   2.874   7.897
 1592TIP3    H228756   4.920   2.817   7.869
 1593TIP3   OH228757   5.589   2.755   8.764
 1593TIP3    H128758   5.520   2.824   8.767
 1593TIP3    H228759   5.632   2.775   8.681
 1594TIP3   OH228760   5.195   2.832   8.031
 1594TIP3    H128761   5.119   2.855   8.090
 1594TIP3    H228762   5.241   2.764   8.082
 1595TIP3   OH228763   5.186   2.647   8.941
 1595TIP3    H128764   5.186   2.730   8.993
 1595TIP3    H228765   5.123   2.676   8.872
 1596TIP3   OH228766   4.372   2.896   8.213
 1596TIP3    H128767   4.317   2.857   8.144
 1596TIP3    H228768   4.417   2.821   8.254
 1597TIP3   OH228769   4.491   3.243   8.484
 1597TIP3    H128770   4.483   3.182   8.409
 1597TIP3    H228771   4.562   3.199   8.535
 1598TIP3   OH228772   4.397   2.762   8.589
 1598TIP3    H128773   4.440   2.781   8.503
 1598TIP3    H228774   4.423   2.838   8.642
 1599TIP3   OH228775   5.032   3.329   8.658
 1599TIP3    H128776   5.000   3.392   8.724
 1599TIP3    H228777   5.004   3.244   8.699
 1600TIP3   OH228778   4.480   3.214   9.052
 1600TIP3    H128779   4.439   3.288   9.104
 1600TIP3    H228780   4.410   3.198   8.986
 1601TIP3   OH228781   5.077   2.754   7.797
 1601TIP3    H128782   5.135   2.769   7.875
 1601TIP3    H228783   5.123   2.799   7.724
 1602TIP3   OH228784   4.860   3.428   8.133
 1602TIP3    H128785   4.892   3.450   8.223
 1602TIP3    H228786   4.794   3.497   8.120
 1603TIP3   OH228787   4.307   3.421   9.131
 1603TIP3    H128788   4.301   3.410   9.034
 1603TIP3    H228789   4.215   3.401   9.157
 1604TIP3   OH228790   3.856   3.043   8.872
 1604TIP3    H128791   3.813   3.034   8.786
 1604TIP3    H228792   3.871   2.949   8.895
 1605TIP3   OH228793   5.660   3.386   9.119
 1605TIP3    H128794   5.647   3.290   9.115
 1605TIP3    H228795   5.572   3.411   9.156
 1606TIP3   OH228796   4.755   3.338   9.005
 1606TIP3    H128797   4.761   3.423   9.055
 1606TIP3    H228798   4.667   3.305   9.028
 1607TIP3   OH228799   4.810   3.715   7.975
 1607TIP3    H128800   4.784   3.717   7.882
 1607TIP3    H228801   4.801   3.809   8.003
 1608TIP3   OH228802   5.097   3.617   7.682
 1608TIP3    H128803   5.157   3.558   7.638
 1608TIP3    H228804   5.132   3.630   7.772
 1609TIP3   OH228805   5.075   3.626   7.964
 1609TIP3    H128806   4.982   3.648   7.991
 1609TIP3    H228807   5.102   3.563   8.033
 1610TIP3   OH228808   5.374   2.532   9.165
 1610TIP3    H128809   5.326   2.577   9.093
 1610TIP3    H228810   5.372   2.440   9.135
 1611TIP3   OH228811   4.090   3.175   8.963
 1611TIP3    H128812   4.112   3.135   9.049
 1611TIP3    H228813   4.004   3.135   8.942
 1612TIP3   OH228814   4.357   2.021   8.560
 1612TIP3    H128815   4.267   2.008   8.524
 1612TIP3    H228816   4.342   2.104   8.610
 1613TIP3   OH228817   4.821   1.987   8.896
 1613TIP3    H128818   4.860   1.944   8.975
 1613TIP3    H228819   4.724   1.976   8.911
 1614TIP3   OH228820   5.149   2.373   8.986
 1614TIP3    H128821   5.092   2.351   9.064
 1614TIP3    H228822   5.131   2.466   8.964
 1615TIP3   OH228823   5.231   2.848   7.577
 1615TIP3    H128824   5.216   2.828   7.482
 1615TIP3    H228825   5.308   2.903   7.579
 1616TIP3   OH228826   4.784   2.244   7.635
 1616TIP3    H128827   4.754   2.237   7.727
 1616TIP3    H228828   4.753   2.159   7.600
 1617TIP3   OH228829   4.369   2.516   8.689
 1617TIP3    H128830   4.292   2.519   8.748
 1617TIP3    H228831   4.364   2.605   8.646
 1618TIP3   OH228832   4.363   2.527   8.175
 1618TIP3    H128833   4.268   2.510   8.161
 1618TIP3    H228834   4.400   2.499   8.090
 1619TIP3   OH228835   4.913   2.579   8.045
 1619TIP3    H128836   4.876   2.664   8.013
 1619TIP3    H228837   4.984   2.564   7.979
 1620TIP3   OH228838   4.819   2.601   9.192
 1620TIP3    H128839   4.768   2.523   9.224
 1620TIP3    H228840   4.903   2.590   9.240
 1621TIP3   OH228841   5.019   2.530   8.334
 1621TIP3    H128842   4.989   2.586   8.260
 1621TIP3    H228843   5.027   2.445   8.288
 1622TIP3   OH228844   4.131   2.543   8.852
 1622TIP3    H128845   4.135   2.584   8.939
 1622TIP3    H228846   4.085   2.461   8.872
 1623TIP3   OH228847   4.464   2.305   7.550
 1623TIP3    H128848   4.426   2.237   7.609
 1623TIP3    H228849   4.398   2.311   7.480
 1624TIP3   OH228850   3.794   2.252   8.252
 1624TIP3    H128851   3.861   2.250   8.323
 1624TIP3    H228852   3.842   2.217   8.175
 1625TIP3   OH228853   4.935   2.688   8.788
 1625TIP3    H128854   4.974   2.620   8.730
 1625TIP3    H228855   4.891   2.634   8.856
 1626TIP3   OH228856   4.619   2.286   8.272
 1626TIP3    H128857   4.526   2.285   8.301
 1626TIP3    H228858   4.666   2.267   8.355
 1627TIP3   OH228859   4.101   2.436   8.158
 1627TIP3    H128860   4.011   2.459   8.124
 1627TIP3    H228861   4.124   2.351   8.116
 1628TIP3   OH228862   4.461   2.443   7.916
 1628TIP3    H128863   4.556   2.452   7.944
 1628TIP3    H228864   4.443   2.519   7.861
 1629TIP3   OH228865   5.058   2.210   8.596
 1629TIP3    H128866   4.989   2.213   8.666
 1629TIP3    H228867   5.008   2.182   8.518
 1630TIP3   OH228868   5.378   3.773   9.229
 1630TIP3    H128869   5.405   3.811   9.144
 1630TIP3    H228870   5.450   3.805   9.285
 1631TIP3   OH228871   4.148   3.018   9.188
 1631TIP3    H128872   4.218   3.045   9.249
 1631TIP3    H228873   4.069   3.026   9.245
 1632TIP3   OH228874   4.745   2.561   8.463
 1632TIP3    H128875   4.807   2.509   8.410
 1632TIP3    H228876   4.731   2.505   8.540
 1633TIP3   OH228877   4.244   2.177   8.099
 1633TIP3    H128878   4.215   2.084   8.109
 1633TIP3    H228879   4.327   2.166   8.051
 1634TIP3   OH228880   4.612   2.394   8.703
 1634TIP3    H128881   4.529   2.445   8.711
 1634TIP3    H228882   4.667   2.428   8.776
 1635TIP3   OH228883   4.669   3.010   7.873
 1635TIP3    H128884   4.583   2.975   7.846
 1635TIP3    H228885   4.645   3.034   7.966
 1636TIP3   OH228886   5.388   2.936   8.754
 1636TIP3    H128887   5.442   2.986   8.690
 1636TIP3    H228888   5.301   2.940   8.708
 1637TIP3   OH228889   5.049   2.298   7.696
 1637TIP3    H128890   4.957   2.314   7.672
 1637TIP3    H228891   5.085   2.384   7.721
 1638TIP3   OH228892   4.814   3.044   8.997
 1638TIP3    H128893   4.785   3.001   9.078
 1638TIP3    H228894   4.791   3.136   9.010
 1639TIP3   OH228895   5.126   2.490   7.864
 1639TIP3    H128896   5.217   2.473   7.893
 1639TIP3    H228897   5.133   2.568   7.807
 1640TIP3   OH228898   4.881   3.166   7.784
 1640TIP3    H128899   4.836   3.246   7.814
 1640TIP3    H228900   4.809   3.100   7.794
 1641TIP3   OH228901   3.875   2.799   8.981
 1641TIP3    H128902   3.898   2.754   9.064
 1641TIP3    H228903   3.819   2.734   8.936
 1642TIP3   OH228904   4.580   2.753   9.195
 1642TIP3    H128905   4.547   2.718   9.111
 1642TIP3    H228906   4.672   2.719   9.196
 1643TIP3   OH228907   5.049   3.286   8.993
 1643TIP3    H128908   4.956   3.302   8.969
 1643TIP3    H228909   5.045   3.315   9.086
 1644TIP3   OH228910   5.615   2.504   7.832
 1644TIP3    H128911   5.557   2.473   7.759
 1644TIP3    H228912   5.623   2.598   7.808
 1645TIP3   OH228913   5.614   3.089   9.112
 1645TIP3    H128914   5.524   3.112   9.075
 1645TIP3    H228915   5.669   3.087   9.031
 1646TIP3   OH228916   5.430   3.387   7.866
 1646TIP3    H128917   5.413   3.301   7.906
 1646TIP3    H228918   5.480   3.367   7.786
 1647TIP3   OH228919   5.166   2.868   8.582
 1647TIP3    H128920   5.071   2.848   8.571
 1647TIP3    H228921   5.208   2.792   8.537
 1648TIP3   OH228922   4.417   3.300   8.193
 1648TIP3    H128923   4.466   3.381   8.170
 1648TIP3    H228924   4.330   3.320   8.157
 1649TIP3   OH228925   4.564   3.068   8.145
 1649TIP3    H128926   4.530   3.160   8.151
 1649TIP3    H228927   4.488   3.018   8.183
 1650TIP3   OH228928   4.602   3.485   8.785
 1650TIP3    H128929   4.649   3.564   8.754
 1650TIP3    H228930   4.664   3.451   8.851
 1651TIP3   OH228931   4.424   3.561   8.102
 1651TIP3    H128932   4.329   3.576   8.108
 1651TIP3    H228933   4.460   3.647   8.131
 1652TIP3   OH228934   4.956   3.085   8.746
 1652TIP3    H128935   4.924   3.066   8.837
 1652TIP3    H228936   5.020   3.014   8.729
 1653TIP3   OH228937   5.182   3.204   7.669
 1653TIP3    H128938   5.217   3.143   7.738
 1653TIP3    H228939   5.094   3.166   7.661
 1654TIP3   OH228940   5.239   3.543   8.995
 1654TIP3    H128941   5.169   3.495   8.948
 1654TIP3    H228942   5.256   3.614   8.928
 1655TIP3   OH228943   5.640   3.641   7.692
 1655TIP3    H128944   5.713   3.697   7.659
 1655TIP3    H228945   5.568   3.703   7.711
 1656TIP3   OH228946   4.045   2.272   8.936
 1656TIP3    H128947   3.953   2.303   8.933
 1656TIP3    H228948   4.035   2.185   8.979
 1657TIP3   OH228949   5.267   3.059   7.883
 1657TIP3    H128950   5.242   2.978   7.933
 1657TIP3    H228951   5.363   3.058   7.899
 1658TIP3   OH228952   4.005   3.447   8.775
 1658TIP3    H128953   4.036   3.356   8.776
 1658TIP3    H228954   4.032   3.475   8.863
 1659TIP3   OH228955   4.917   2.247   8.832
 1659TIP3    H128956   4.989   2.253   8.896
 1659TIP3    H228957   4.879   2.159   8.853
 1660TIP3   OH228958   4.989   2.206   7.941
 1660TIP3    H128959   5.016   2.250   7.858
 1660TIP3    H228960   5.050   2.247   8.005
 1661TIP3   OH228961   4.775   3.438   7.825
 1661TIP3    H128962   4.678   3.462   7.829
 1661TIP3    H228963   4.793   3.472   7.736
 1662TIP3   OH228964   4.709   2.384   8.019
 1662TIP3    H128965   4.793   2.436   8.026
 1662TIP3    H228966   4.687   2.365   8.113
 1663TIP3   OH228967   4.770   2.484   8.940
 1663TIP3    H128968   4.778   2.536   9.023
 1663TIP3    H228969   4.835   2.412   8.949
 1664TIP3   OH228970   4.802   2.086   8.113
 1664TIP3    H128971   4.767   2.151   8.176
 1664TIP3    H228972   4.870   2.140   8.066
 1665TIP3   OH228973   4.509   3.527   7.825
 1665TIP3    H128974   4.503   3.606   7.768
 1665TIP3    H228975   4.470   3.556   7.910
 1666TIP3   OH228976   4.366   2.197   7.780
 1666TIP3    H128977   4.362   2.283   7.825
 1666TIP3    H228978   4.456   2.169   7.807
 1667TIP3   OH228979   5.387   2.268   9.025
 1667TIP3    H128980   5.294   2.300   9.012
 1667TIP3    H228981   5.417   2.266   8.933
 1668TIP3   OH228982   5.250   2.647   8.427
 1668TIP3    H128983   5.168   2.602   8.399
 1668TIP3    H228984   5.298   2.578   8.477
 1669TIP3   OH228985   5.355   3.574   8.592
 1669TIP3    H128986   5.347   3.641   8.522
 1669TIP3    H228987   5.452   3.578   8.610
 1670TIP3   OH228988   4.104   1.985   8.474
 1670TIP3    H128989   4.086   1.986   8.378
 1670TIP3    H228990   4.064   1.899   8.499
 1671TIP3   OH228991   3.919   3.642   9.216
 1671TIP3    H128992   3.980   3.623   9.289
 1671TIP3    H228993   3.880   3.555   9.198
 1672TIP3   OH228994   4.389   3.534   9.377
 1672TIP3    H128995   4.464   3.484   9.410
 1672TIP3    H228996   4.386   3.506   9.283
 1673TIP3   OH228997   5.038   3.373   9.253
 1673TIP3    H128998   5.007   3.284   9.280
 1673TIP3    H228999   5.115   3.385   9.311
 1674TIP3   OH229000   3.909   3.018   9.318
 1674TIP3    H129001   3.929   2.928   9.284
 1674TIP3    H229002   3.838   3.045   9.257
 1675TIP3   OH229003   4.582   3.018   9.254
 1675TIP3    H129004   4.549   3.050   9.168
 1675TIP3    H229005   4.590   2.920   9.244
 1676TIP3   OH229006   5.151   3.003   8.993
 1676TIP3    H129007   5.230   3.061   8.989
 1676TIP3    H229008   5.082   3.071   8.996
 1677TIP3   OH229009   4.003   2.740   9.255
 1677TIP3    H129010   4.046   2.655   9.247
 1677TIP3    H229011   3.980   2.743   9.350
 1678TIP3   OH229012   4.393   2.637   8.990
 1678TIP3    H129013   4.336   2.709   9.015
 1678TIP3    H229014   4.433   2.671   8.908
 1679TIP3   OH229015   4.901   2.894   9.324
 1679TIP3    H129016   4.997   2.891   9.309
 1679TIP3    H229017   4.884   2.817   9.380
 1680TIP3   OH229018   4.434   2.373   9.094
 1680TIP3    H129019   4.446   2.302   9.028
 1680TIP3    H229020   4.429   2.454   9.040
 1681TIP3   OH229021   4.475   2.213   8.850
 1681TIP3    H129022   4.525   2.259   8.779
 1681TIP3    H229023   4.385   2.207   8.810
 1682TIP3   OH229024   4.625   2.764   8.873
 1682TIP3    H129025   4.703   2.742   8.820
 1682TIP3    H229026   4.601   2.850   8.841
 1683TIP3   OH229027   5.067   2.536   9.370
 1683TIP3    H129028   5.091   2.442   9.361
 1683TIP3    H229029   5.154   2.580   9.374
 1684TIP3   OH229030   5.204   2.816   9.188
 1684TIP3    H129031   5.177   2.888   9.126
 1684TIP3    H229032   5.299   2.813   9.169
 1685TIP3   OH229033   4.281   2.499   9.287
 1685TIP3    H129034   4.204   2.442   9.270
 1685TIP3    H229035   4.345   2.462   9.224
 1686TIP3   OH229036   4.553   1.956   8.888
 1686TIP3    H129037   4.533   2.052   8.879
 1686TIP3    H229038   4.478   1.919   8.838
 1687TIP3   OH229039   4.680   2.390   9.254
 1687TIP3    H129040   4.647   2.365   9.343
 1687TIP3    H229041   4.603   2.368   9.198
 1688TIP3   OH229042   4.953   2.303   9.163
 1688TIP3    H129043   4.856   2.309   9.173
 1688TIP3    H229044   4.978   2.239   9.232
 1689TIP3   OH229045   5.109   2.165   9.351
 1689TIP3    H129046   5.106   2.067   9.354
 1689TIP3    H229047   5.087   2.193   9.442
 1690TIP3   OH229048   4.088   2.294   9.263
 1690TIP3    H129049   4.112   2.220   9.205
 1690TIP3    H229050   4.078   2.249   9.350
 1691TIP3   OH229051   4.575   1.896   9.159
 1691TIP3    H129052   4.642   1.825   9.158
 1691TIP3    H229053   4.563   1.909   9.063
 1692TIP3   OH229054   4.611   2.056   9.372
 1692TIP3    H129055   4.594   2.005   9.289
 1692TIP3    H229056   4.551   2.133   9.361
 1693TIP3   OH229057   5.628   3.637   8.612
 1693TIP3    H129058   5.631   3.653   8.708
 1693TIP3    H229059   5.698   3.696   8.582
 1694TIP3   OH229060   5.584   3.597   8.907
 1694TIP3    H129061   5.538   3.520   8.868
 1694TIP3    H229062   5.632   3.552   8.979
 1695TIP3   OH229063   5.429   3.168   9.375
 1695TIP3    H129064   5.338   3.166   9.410
 1695TIP3    H229065   5.466   3.249   9.415
 1696TIP3   OH229066   5.562   3.000   7.915
 1696TIP3    H129067   5.648   3.041   7.935
 1696TIP3    H229068   5.559   2.930   7.985
 1697TIP3   OH229069   5.596   2.809   8.102
 1697TIP3    H129070   5.520   2.759   8.140
 1697TIP3    H229071   5.654   2.823   8.180
 1698TIP3   OH229072   5.575   3.078   8.608
 1698TIP3    H129073   5.652   3.041   8.563
 1698TIP3    H229074   5.585   3.173   8.587
 1699TIP3   OH229075   5.428   3.370   8.831
 1699TIP3    H129076   5.359   3.404   8.889
 1699TIP3    H229077   5.374   3.330   8.760
 1700TIP3   OH229078   5.623   2.789   7.746
 1700TIP3    H129079   5.566   2.829   7.681
 1700TIP3    H229080   5.624   2.861   7.812
 1701TIP3   OH229081   5.448   2.513   7.599
 1701TIP3    H129082   5.467   2.577   7.531
 1701TIP3    H229083   5.451   2.429   7.549
 1702TIP3   OH229084   5.380   2.657   8.165
 1702TIP3    H129085   5.364   2.562   8.158
 1702TIP3    H229086   5.347   2.677   8.254
 1703TIP3   OH229087   5.465   2.853   9.132
 1703TIP3    H129088   5.526   2.777   9.145
 1703TIP3    H229089   5.526   2.930   9.133
 1704TIP3   OH229090   5.615   2.641   9.197
 1704TIP3    H129091   5.527   2.601   9.182
 1704TIP3    H229092   5.672   2.562   9.190
 1705TIP3   OH229093   5.347   2.416   8.010
 1705TIP3    H129094   5.375   2.322   8.020
 1705TIP3    H229095   5.425   2.455   7.969
 1706TIP3   OH229096   5.409   2.470   8.554
 1706TIP3    H129097   5.505   2.492   8.552
 1706TIP3    H229098   5.391   2.483   8.648
 1707TIP3   OH229099   5.417   2.542   8.831
 1707TIP3    H129100   5.328   2.570   8.862
 1707TIP3    H229101   5.460   2.628   8.809
 1708TIP3   OH229102   3.842   2.396   9.187
 1708TIP3    H129103   3.936   2.373   9.203
 1708TIP3    H229104   3.796   2.313   9.211
 1709TIP3   OH229105   5.649   1.948   9.366
 1709TIP3    H129106   5.678   1.883   9.299
 1709TIP3    H229107   5.651   2.030   9.311
 1710TIP3   OH229108   5.412   2.145   8.015
 1710TIP3    H129109   5.435   2.098   8.097
 1710TIP3    H229110   5.352   2.081   7.969
 1711TIP3   OH229111   3.961   2.222   8.469
 1711TIP3    H129112   4.008   2.140   8.495
 1711TIP3    H229113   4.017   2.292   8.506
 1712TIP3   OH229114   3.786   2.525   8.571
 1712TIP3    H129115   3.845   2.499   8.497
 1712TIP3    H229116   3.837   2.602   8.597
 1713TIP3   OH229117   5.595   2.158   9.201
 1713TIP3    H129118   5.502   2.186   9.196
 1713TIP3    H229119   5.598   2.103   9.121
 1714TIP3   OH229120   5.606   2.147   7.677
 1714TIP3    H129121   5.636   2.081   7.613
 1714TIP3    H229122   5.667   2.220   7.667
 1715TIP3   OH229123   3.822   2.145   7.967
 1715TIP3    H129124   3.729   2.173   7.971
 1715TIP3    H229125   3.867   2.208   7.911
 1716TIP3   OH229126   5.298   3.644   8.174
 1716TIP3    H129127   5.370   3.616   8.114
 1716TIP3    H229128   5.349   3.695   8.241
 1717TIP3   OH229129   3.820   2.016   8.809
 1717TIP3    H129130   3.754   1.996   8.878
 1717TIP3    H229131   3.775   2.083   8.755
 1718TIP3   OH229132   4.047   3.335   9.226
 1718TIP3    H129133   3.963   3.353   9.179
 1718TIP3    H229134   4.018   3.327   9.317
 1719TIP3   OH229135   4.336   3.437   8.856
 1719TIP3    H129136   4.303   3.523   8.826
 1719TIP3    H229137   4.427   3.443   8.821
 1720TIP3   OH229138   4.767   3.578   9.143
 1720TIP3    H129139   4.779   3.543   9.234
 1720TIP3    H229140   4.857   3.609   9.120
 1721TIP3   OH229141   4.995   3.706   9.075
 1721TIP3    H129142   5.068   3.647   9.052
 1721TIP3    H229143   5.032   3.750   9.155
 1722TIP3   OH229144   5.498   1.967   8.987
 1722TIP3    H129145   5.415   1.997   8.945
 1722TIP3    H229146   5.514   1.884   8.935
 1723TIP3   OH229147   4.077   3.764   8.852
 1723TIP3    H129148   4.002   3.811   8.813
 1723TIP3    H229149   4.045   3.740   8.940
 1724TIP3   OH229150   4.324   3.716   8.763
 1724TIP3    H129151   4.233   3.730   8.798
 1724TIP3    H229152   4.322   3.776   8.686
 1725TIP3   OH229153   4.795   3.709   8.677
 1725TIP3    H129154   4.748   3.763   8.612
 1725TIP3    H229155   4.808   3.772   8.751
 1726TIP3   OH229156   5.022   3.588   8.782
 1726TIP3    H129157   4.938   3.617   8.743
 1726TIP3    H229158   5.072   3.671   8.773
 1727TIP3   OH229159   5.281   3.746   8.802
 1727TIP3    H129160   5.277   3.842   8.779
 1727TIP3    H229161   5.302   3.709   8.714
 1728TIP3   OH229162   4.026   3.631   8.552
 1728TIP3    H129163   4.013   3.579   8.634
 1728TIP3    H229164   4.101   3.586   8.508
 1729TIP3   OH229165   4.230   3.495   8.413
 1729TIP3    H129166   4.216   3.402   8.433
 1729TIP3    H229167   4.316   3.513   8.455
 1730TIP3   OH229168   4.494   3.546   8.502
 1730TIP3    H129169   4.506   3.453   8.474
 1730TIP3    H229170   4.493   3.535   8.598
 1731TIP3   OH229171   4.836   2.110   8.414
 1731TIP3    H129172   4.769   2.046   8.443
 1731TIP3    H229173   4.891   2.056   8.356
 1732TIP3   OH229174   5.350   1.913   8.419
 1732TIP3    H129175   5.411   1.973   8.370
 1732TIP3    H229176   5.261   1.950   8.396
 1733TIP3   OH229177   5.517   2.039   8.249
 1733TIP3    H129178   5.584   1.981   8.206
 1733TIP3    H229179   5.568   2.123   8.259
 1734TIP3   OH229180   4.074   1.973   8.200
 1734TIP3    H129181   3.994   1.953   8.148
 1734TIP3    H229182   4.119   1.886   8.194
 1735TIP3   OH229183   3.943   1.952   7.761
 1735TIP3    H129184   4.001   2.016   7.717
 1735TIP3    H229185   3.900   2.002   7.833
 1736TIP3   OH229186   4.520   1.962   8.177
 1736TIP3    H129187   4.609   2.000   8.169
 1736TIP3    H229188   4.517   1.943   8.271
 1737TIP3   OH229189   5.092   1.966   8.340
 1737TIP3    H129190   5.085   1.978   8.244
 1737TIP3    H229191   5.053   1.876   8.353
 1738TIP3   OH229192   5.219   1.971   7.911
 1738TIP3    H129193   5.145   2.028   7.888
 1738TIP3    H229194   5.176   1.884   7.928
 1739TIP3   OH229195   4.135   2.138   7.629
 1739TIP3    H129196   4.185   2.085   7.565
 1739TIP3    H229197   4.206   2.174   7.685
 1740TIP3   OH229198   4.629   2.168   7.864
 1740TIP3    H129199   4.662   2.110   7.934
 1740TIP3    H229200   4.643   2.254   7.911
 1741TIP3   OH229201   5.493   3.625   7.979
 1741TIP3    H129202   5.479   3.547   7.921
 1741TIP3    H229203   5.492   3.698   7.913
 1742TIP3   OH229204   4.061   2.027   9.144
 1742TIP3    H129205   4.022   1.947   9.183
 1742TIP3    H229206   4.152   2.021   9.183
 1743TIP3   OH229207   4.261   1.965   9.310
 1743TIP3    H129208   4.350   1.931   9.288
 1743TIP3    H229209   4.224   1.884   9.349
 1744TIP3   OH229210   5.102   1.892   9.324
 1744TIP3    H129211   5.112   1.845   9.410
 1744TIP3    H229212   5.193   1.891   9.288
 1745TIP3   OH229213   5.423   3.498   9.186
 1745TIP3    H129214   5.343   3.485   9.131
 1745TIP3    H229215   5.411   3.593   9.208
 1746TIP3   OH229216   6.869   2.887   8.183
 1746TIP3    H129217   6.866   2.985   8.182
 1746TIP3    H229218   6.795   2.863   8.125
 1747TIP3   OH229219   6.754   2.811   8.535
 1747TIP3    H129220   6.753   2.746   8.607
 1747TIP3    H229221   6.716   2.761   8.461
 1748TIP3   OH229222   5.990   2.762   8.696
 1748TIP3    H129223   5.994   2.691   8.766
 1748TIP3    H229224   6.074   2.802   8.720
 1749TIP3   OH229225   7.120   3.107   8.364
 1749TIP3    H129226   7.080   3.034   8.412
 1749TIP3    H229227   7.123   3.177   8.432
 1750TIP3   OH229228   6.079   3.214   8.551
 1750TIP3    H129229   6.055   3.141   8.492
 1750TIP3    H229230   6.177   3.211   8.542
 1751TIP3   OH229231   5.744   2.578   8.090
 1751TIP3    H129232   5.703   2.666   8.083
 1751TIP3    H229233   5.687   2.525   8.032
 1752TIP3   OH229234   5.821   2.804   8.310
 1752TIP3    H129235   5.844   2.716   8.346
 1752TIP3    H229236   5.881   2.812   8.235
 1753TIP3   OH229237   6.835   3.623   8.388
 1753TIP3    H129238   6.899   3.554   8.358
 1753TIP3    H229239   6.813   3.587   8.475
 1754TIP3   OH229240   6.591   3.051   8.583
 1754TIP3    H129241   6.625   2.989   8.517
 1754TIP3    H229242   6.673   3.067   8.634
 1755TIP3   OH229243   7.452   2.217   8.655
 1755TIP3    H129244   7.467   2.278   8.730
 1755TIP3    H229245   7.509   2.258   8.589
 1756TIP3   OH229246   6.907   2.498   8.614
 1756TIP3    H129247   6.925   2.402   8.615
 1756TIP3    H229248   6.897   2.512   8.518
 1757TIP3   OH229249   6.217   2.307   8.335
 1757TIP3    H129250   6.229   2.391   8.286
 1757TIP3    H229251   6.179   2.250   8.264
 1758TIP3   OH229252   6.998   2.308   8.164
 1758TIP3    H129253   7.055   2.284   8.241
 1758TIP3    H229254   7.049   2.380   8.125
 1759TIP3   OH229255   5.883   2.553   8.408
 1759TIP3    H129256   5.946   2.494   8.454
 1759TIP3    H229257   5.891   2.517   8.318
 1760TIP3   OH229258   6.393   2.704   8.345
 1760TIP3    H129259   6.463   2.647   8.379
 1760TIP3    H229260   6.346   2.640   8.288
 1761TIP3   OH229261   7.494   2.358   8.882
 1761TIP3    H129262   7.434   2.435   8.867
 1761TIP3    H229263   7.496   2.354   8.978
 1762TIP3   OH229264   6.110   2.197   8.738
 1762TIP3    H129265   6.081   2.254   8.664
 1762TIP3    H229266   6.043   2.219   8.807
 1763TIP3   OH229267   6.837   3.145   8.093
 1763TIP3    H129268   6.809   3.119   8.004
 1763TIP3    H229269   6.807   3.239   8.098
 1764TIP3   OH229270   6.358   2.963   8.757
 1764TIP3    H129271   6.293   3.030   8.788
 1764TIP3    H229272   6.434   3.019   8.735
 1765TIP3   OH229273   7.175   2.251   8.370
 1765TIP3    H129274   7.151   2.174   8.424
 1765TIP3    H229275   7.240   2.293   8.428
 1766TIP3   OH229276   6.067   2.383   8.542
 1766TIP3    H129277   6.131   2.450   8.573
 1766TIP3    H229278   6.118   2.343   8.467
 1767TIP3   OH229279   6.203   3.159   8.839
 1767TIP3    H129280   6.203   3.254   8.813
 1767TIP3    H229281   6.120   3.156   8.894
 1768TIP3   OH229282   5.809   3.120   7.925
 1768TIP3    H129283   5.791   3.155   7.836
 1768TIP3    H229284   5.821   3.204   7.975
 1769TIP3   OH229285   7.173   3.289   8.594
 1769TIP3    H129286   7.077   3.302   8.614
 1769TIP3    H229287   7.201   3.382   8.581
 1770TIP3   OH229288   7.205   2.119   8.738
 1770TIP3    H129289   7.133   2.183   8.728
 1770TIP3    H229290   7.277   2.160   8.686
 1771TIP3   OH229291   6.502   1.931   8.485
 1771TIP3    H129292   6.487   1.834   8.477
 1771TIP3    H229293   6.414   1.961   8.516
 1772TIP3   OH229294   7.001   3.468   8.259
 1772TIP3    H129295   7.043   3.397   8.208
 1772TIP3    H229296   7.045   3.547   8.220
 1773TIP3   OH229297   7.127   3.261   8.106
 1773TIP3    H129298   7.090   3.192   8.048
 1773TIP3    H229299   7.125   3.213   8.192
 1774TIP3   OH229300   7.299   3.109   8.956
 1774TIP3    H129301   7.297   3.053   8.878
 1774TIP3    H229302   7.296   3.201   8.922
 1775TIP3   OH229303   6.733   2.807   7.935
 1775TIP3    H129304   6.663   2.867   7.901
 1775TIP3    H229305   6.803   2.820   7.869
 1776TIP3   OH229306   6.741   2.663   7.641
 1776TIP3    H129307   6.816   2.668   7.703
 1776TIP3    H229308   6.767   2.594   7.580
 1777TIP3   OH229309   7.473   2.753   8.764
 1777TIP3    H129310   7.406   2.824   8.767
 1777TIP3    H229311   7.521   2.778   8.683
 1778TIP3   OH229312   7.077   2.823   8.029
 1778TIP3    H129313   7.005   2.854   8.089
 1778TIP3    H229314   7.128   2.765   8.087
 1779TIP3   OH229315   7.072   2.647   8.942
 1779TIP3    H129316   7.072   2.730   8.992
 1779TIP3    H229317   7.009   2.675   8.872
 1780TIP3   OH229318   6.235   2.896   8.222
 1780TIP3    H129319   6.208   2.860   8.134
 1780TIP3    H229320   6.302   2.828   8.251
 1781TIP3   OH229321   6.367   3.230   8.490
 1781TIP3    H129322   6.374   3.185   8.404
 1781TIP3    H229323   6.450   3.201   8.532
 1782TIP3   OH229324   6.267   2.777   8.587
 1782TIP3    H129325   6.325   2.777   8.508
 1782TIP3    H229326   6.317   2.837   8.648
 1783TIP3   OH229327   6.913   3.329   8.658
 1783TIP3    H129328   6.887   3.392   8.726
 1783TIP3    H229329   6.892   3.244   8.702
 1784TIP3   OH229330   6.368   3.215   9.056
 1784TIP3    H129331   6.326   3.289   9.106
 1784TIP3    H229332   6.303   3.197   8.986
 1785TIP3   OH229333   6.970   2.744   7.794
 1785TIP3    H129334   7.019   2.773   7.875
 1785TIP3    H229335   7.005   2.802   7.724
 1786TIP3   OH229336   6.060   2.840   8.961
 1786TIP3    H129337   6.069   2.896   9.041
 1786TIP3    H229338   5.964   2.835   8.956
 1787TIP3   OH229339   6.738   3.422   8.143
 1787TIP3    H129340   6.780   3.454   8.223
 1787TIP3    H229341   6.682   3.496   8.118
 1788TIP3   OH229342   6.193   3.417   9.130
 1788TIP3    H129343   6.185   3.408   9.033
 1788TIP3    H229344   6.100   3.403   9.157
 1789TIP3   OH229345   7.335   1.920   7.785
 1789TIP3    H129346   7.240   1.935   7.808
 1789TIP3    H229347   7.359   2.003   7.741
 1790TIP3   OH229348   6.136   2.799   7.983
 1790TIP3    H129349   6.108   2.877   7.929
 1790TIP3    H229350   6.071   2.734   7.957
 1791TIP3   OH229351   5.753   3.040   8.867
 1791TIP3    H129352   5.696   3.035   8.788
 1791TIP3    H229353   5.750   2.946   8.896
 1792TIP3   OH229354   5.724   3.313   8.551
 1792TIP3    H129355   5.820   3.309   8.544
 1792TIP3    H229356   5.711   3.397   8.597
 1793TIP3   OH229357   7.549   3.385   9.120
 1793TIP3    H129358   7.530   3.290   9.114
 1793TIP3    H229359   7.460   3.412   9.155
 1794TIP3   OH229360   6.634   3.345   9.000
 1794TIP3    H129361   6.646   3.424   9.058
 1794TIP3    H229362   6.552   3.303   9.032
 1795TIP3   OH229363   6.683   3.715   7.985
 1795TIP3    H129364   6.676   3.706   7.887
 1795TIP3    H229365   6.689   3.811   8.000
 1796TIP3   OH229366   6.048   3.604   8.167
 1796TIP3    H129367   6.064   3.561   8.254
 1796TIP3    H229368   5.965   3.560   8.141
 1797TIP3   OH229369   7.002   3.640   7.684
 1797TIP3    H129370   7.024   3.560   7.633
 1797TIP3    H229371   6.992   3.608   7.775
 1798TIP3   OH229372   6.960   3.632   7.967
 1798TIP3    H129373   6.862   3.635   7.975
 1798TIP3    H229374   6.982   3.553   8.018
 1799TIP3   OH229375   7.263   2.530   9.164
 1799TIP3    H129376   7.213   2.577   9.095
 1799TIP3    H229377   7.254   2.439   9.133
 1800TIP3   OH229378   5.975   3.169   8.961
 1800TIP3    H129379   5.995   3.139   9.053
 1800TIP3    H229380   5.885   3.135   8.947
 1801TIP3   OH229381   6.243   2.021   8.560
 1801TIP3    H129382   6.152   2.008   8.523
 1801TIP3    H229383   6.228   2.103   8.610
 1802TIP3   OH229384   6.707   1.987   8.896
 1802TIP3    H129385   6.746   1.944   8.975
 1802TIP3    H229386   6.610   1.976   8.911
 1803TIP3   OH229387   7.035   2.372   8.987
 1803TIP3    H129388   6.978   2.350   9.064
 1803TIP3    H229389   7.017   2.465   8.965
 1804TIP3   OH229390   6.253   2.520   8.688
 1804TIP3    H129391   6.178   2.517   8.751
 1804TIP3    H229392   6.247   2.609   8.649
 1805TIP3   OH229393   6.249   2.528   8.171
 1805TIP3    H129394   6.154   2.505   8.158
 1805TIP3    H229395   6.285   2.500   8.084
 1806TIP3   OH229396   6.802   2.578   8.047
 1806TIP3    H129397   6.760   2.662   8.015
 1806TIP3    H229398   6.868   2.563   7.979
 1807TIP3   OH229399   6.705   2.601   9.192
 1807TIP3    H129400   6.653   2.523   9.223
 1807TIP3    H229401   6.789   2.590   9.240
 1808TIP3   OH229402   6.907   2.530   8.333
 1808TIP3    H129403   6.874   2.587   8.262
 1808TIP3    H229404   6.911   2.444   8.288
 1809TIP3   OH229405   6.013   2.543   8.855
 1809TIP3    H129406   6.025   2.579   8.944
 1809TIP3    H229407   5.971   2.457   8.875
 1810TIP3   OH229408   5.680   2.253   8.255
 1810TIP3    H129409   5.750   2.249   8.324
 1810TIP3    H229410   5.724   2.218   8.175
 1811TIP3   OH229411   5.811   2.332   7.796
 1811TIP3    H129412   5.854   2.384   7.727
 1811TIP3    H229413   5.737   2.391   7.819
 1812TIP3   OH229414   6.823   2.687   8.788
 1812TIP3    H129415   6.861   2.618   8.730
 1812TIP3    H229416   6.776   2.635   8.855
 1813TIP3   OH229417   6.502   2.287   8.274
 1813TIP3    H129418   6.408   2.286   8.304
 1813TIP3    H229419   6.551   2.267   8.355
 1814TIP3   OH229420   5.984   2.440   8.160
 1814TIP3    H129421   5.896   2.455   8.119
 1814TIP3    H229422   6.014   2.357   8.118
 1815TIP3   OH229423   6.346   2.451   7.928
 1815TIP3    H129424   6.443   2.451   7.935
 1815TIP3    H229425   6.327   2.509   7.852
 1816TIP3   OH229426   6.945   2.209   8.595
 1816TIP3    H129427   6.876   2.213   8.665
 1816TIP3    H229428   6.894   2.182   8.518
 1817TIP3   OH229429   6.210   2.576   7.673
 1817TIP3    H129430   6.165   2.518   7.611
 1817TIP3    H229431   6.301   2.575   7.639
 1818TIP3   OH229432   7.263   3.780   9.232
 1818TIP3    H129433   7.291   3.808   9.143
 1818TIP3    H229434   7.340   3.806   9.285
 1819TIP3   OH229435   6.031   3.021   9.184
 1819TIP3    H129436   6.104   3.044   9.244
 1819TIP3    H229437   5.955   3.026   9.247
 1820TIP3   OH229438   6.631   2.561   8.462
 1820TIP3    H129439   6.691   2.508   8.409
 1820TIP3    H229440   6.616   2.506   8.540
 1821TIP3   OH229441   6.134   2.174   8.107
 1821TIP3    H129442   6.103   2.082   8.103
 1821TIP3    H229443   6.210   2.170   8.048
 1822TIP3   OH229444   6.495   2.394   8.703
 1822TIP3    H129445   6.413   2.447   8.712
 1822TIP3    H229446   6.551   2.429   8.775
 1823TIP3   OH229447   6.557   3.009   7.874
 1823TIP3    H129448   6.472   2.972   7.839
 1823TIP3    H229449   6.530   3.034   7.964
 1824TIP3   OH229450   7.275   2.933   8.751
 1824TIP3    H129451   7.328   2.987   8.690
 1824TIP3    H229452   7.187   2.942   8.709
 1825TIP3   OH229453   6.943   2.301   7.694
 1825TIP3    H129454   6.849   2.310   7.670
 1825TIP3    H229455   6.964   2.394   7.715
 1826TIP3   OH229456   6.696   3.041   8.995
 1826TIP3    H129457   6.671   3.002   9.079
 1826TIP3    H229458   6.685   3.135   9.009
 1827TIP3   OH229459   7.017   2.487   7.861
 1827TIP3    H129460   7.104   2.497   7.903
 1827TIP3    H229461   7.011   2.570   7.808
 1828TIP3   OH229462   6.071   2.952   8.449
 1828TIP3    H129463   6.135   2.950   8.373
 1828TIP3    H229464   6.081   2.859   8.478
 1829TIP3   OH229465   6.772   3.158   7.790
 1829TIP3    H129466   6.731   3.247   7.804
 1829TIP3    H229467   6.692   3.101   7.793
 1830TIP3   OH229468   5.766   2.795   8.978
 1830TIP3    H129469   5.779   2.752   9.065
 1830TIP3    H229470   5.701   2.735   8.936
 1831TIP3   OH229471   6.466   2.753   9.195
 1831TIP3    H129472   6.433   2.719   9.111
 1831TIP3    H229473   6.557   2.719   9.196
 1832TIP3   OH229474   6.891   3.263   8.971
 1832TIP3    H129475   6.812   3.318   8.968
 1832TIP3    H229476   6.932   3.294   9.055
 1833TIP3   OH229477   7.489   2.504   7.837
 1833TIP3    H129478   7.453   2.470   7.753
 1833TIP3    H229479   7.512   2.594   7.805
 1834TIP3   OH229480   7.502   3.089   9.114
 1834TIP3    H129481   7.412   3.112   9.078
 1834TIP3    H229482   7.553   3.088   9.030
 1835TIP3   OH229483   7.339   3.384   7.866
 1835TIP3    H129484   7.292   3.309   7.910
 1835TIP3    H229485   7.350   3.356   7.777
 1836TIP3   OH229486   7.052   2.868   8.581
 1836TIP3    H129487   6.957   2.848   8.572
 1836TIP3    H229488   7.094   2.792   8.537
 1837TIP3   OH229489   6.302   3.302   8.195
 1837TIP3    H129490   6.352   3.382   8.171
 1837TIP3    H229491   6.215   3.324   8.158
 1838TIP3   OH229492   6.445   3.067   8.145
 1838TIP3    H129493   6.412   3.159   8.152
 1838TIP3    H229494   6.372   3.018   8.187
 1839TIP3   OH229495   6.489   3.487   8.786
 1839TIP3    H129496   6.536   3.566   8.756
 1839TIP3    H229497   6.551   3.451   8.852
 1840TIP3   OH229498   6.311   3.564   8.104
 1840TIP3    H129499   6.215   3.581   8.112
 1840TIP3    H229500   6.349   3.650   8.131
 1841TIP3   OH229501   6.837   3.083   8.743
 1841TIP3    H129502   6.811   3.070   8.837
 1841TIP3    H229503   6.907   3.017   8.731
 1842TIP3   OH229504   7.081   3.198   7.666
 1842TIP3    H129505   7.098   3.138   7.741
 1842TIP3    H229506   6.984   3.179   7.657
 1843TIP3   OH229507   7.113   3.572   8.994
 1843TIP3    H129508   7.063   3.500   8.953
 1843TIP3    H229509   7.142   3.622   8.915
 1844TIP3   OH229510   5.930   2.269   8.934
 1844TIP3    H129511   5.839   2.304   8.933
 1844TIP3    H229512   5.919   2.185   8.981
 1845TIP3   OH229513   7.154   3.056   7.882
 1845TIP3    H129514   7.127   2.976   7.932
 1845TIP3    H229515   7.249   3.059   7.902
 1846TIP3   OH229516   5.890   3.446   8.776
 1846TIP3    H129517   5.924   3.356   8.779
 1846TIP3    H229518   5.916   3.479   8.864
 1847TIP3   OH229519   6.021   2.976   7.809
 1847TIP3    H129520   5.946   3.018   7.854
 1847TIP3    H229521   6.066   3.054   7.771
 1848TIP3   OH229522   6.803   2.247   8.832
 1848TIP3    H129523   6.875   2.253   8.895
 1848TIP3    H229524   6.765   2.159   8.853
 1849TIP3   OH229525   6.901   2.195   7.938
 1849TIP3    H129526   6.887   2.254   7.862
 1849TIP3    H229527   6.924   2.255   8.012
 1850TIP3   OH229528   6.650   3.421   7.822
 1850TIP3    H129529   6.562   3.465   7.824
 1850TIP3    H229530   6.696   3.472   7.754
 1851TIP3   OH229531   6.604   2.375   8.019
 1851TIP3    H129532   6.676   2.440   8.026
 1851TIP3    H229533   6.572   2.364   8.111
 1852TIP3   OH229534   6.655   2.483   8.939
 1852TIP3    H129535   6.662   2.537   9.021
 1852TIP3    H229536   6.721   2.413   8.949
 1853TIP3   OH229537   6.687   2.085   8.112
 1853TIP3    H129538   6.651   2.149   8.176
 1853TIP3    H229539   6.753   2.140   8.066
 1854TIP3   OH229540   6.385   3.529   7.828
 1854TIP3    H129541   6.396   3.604   7.768
 1854TIP3    H229542   6.357   3.563   7.915
 1855TIP3   OH229543   6.247   2.189   7.795
 1855TIP3    H129544   6.246   2.284   7.811
 1855TIP3    H229545   6.342   2.170   7.800
 1856TIP3   OH229546   7.274   2.268   9.024
 1856TIP3    H129547   7.180   2.300   9.012
 1856TIP3    H229548   7.301   2.266   8.930
 1857TIP3   OH229549   7.135   2.647   8.427
 1857TIP3    H129550   7.053   2.602   8.398
 1857TIP3    H229551   7.184   2.578   8.477
 1858TIP3   OH229552   6.083   3.232   7.697
 1858TIP3    H129553   6.142   3.307   7.715
 1858TIP3    H229554   6.122   3.201   7.614
 1859TIP3   OH229555   7.239   3.573   8.592
 1859TIP3    H129556   7.233   3.641   8.522
 1859TIP3    H229557   7.336   3.578   8.610
 1860TIP3   OH229558   5.990   1.985   8.475
 1860TIP3    H129559   5.972   1.986   8.378
 1860TIP3    H229560   5.949   1.899   8.499
 1861TIP3   OH229561   5.883   3.378   8.089
 1861TIP3    H129562   5.798   3.424   8.083
 1861TIP3    H229563   5.931   3.422   8.018
 1862TIP3   OH229564   5.804   3.641   9.215
 1862TIP3    H129565   5.866   3.623   9.289
 1862TIP3    H229566   5.766   3.554   9.198
 1863TIP3   OH229567   6.275   3.534   9.377
 1863TIP3    H129568   6.352   3.484   9.409
 1863TIP3    H229569   6.272   3.506   9.283
 1864TIP3   OH229570   6.900   3.381   9.276
 1864TIP3    H129571   6.891   3.284   9.276
 1864TIP3    H229572   6.995   3.386   9.299
 1865TIP3   OH229573   7.149   3.467   7.541
 1865TIP3    H129574   7.158   3.379   7.582
 1865TIP3    H229575   7.216   3.491   7.477
 1866TIP3   OH229576   5.796   3.019   9.316
 1866TIP3    H129577   5.813   2.928   9.286
 1866TIP3    H229578   5.723   3.045   9.258
 1867TIP3   OH229579   6.469   3.019   9.254
 1867TIP3    H129580   6.435   3.051   9.168
 1867TIP3    H229581   6.475   2.921   9.243
 1868TIP3   OH229582   7.039   3.005   8.990
 1868TIP3    H129583   7.117   3.065   8.994
 1868TIP3    H229584   6.970   3.073   8.997
 1869TIP3   OH229585   5.890   2.742   9.254
 1869TIP3    H129586   5.931   2.656   9.245
 1869TIP3    H229587   5.867   2.743   9.349
 1870TIP3   OH229588   6.356   2.857   7.760
 1870TIP3    H129589   6.303   2.806   7.823
 1870TIP3    H229590   6.384   2.786   7.698
 1871TIP3   OH229591   6.276   2.635   8.987
 1871TIP3    H129592   6.221   2.709   9.016
 1871TIP3    H229593   6.322   2.673   8.910
 1872TIP3   OH229594   6.458   2.686   7.574
 1872TIP3    H129595   6.453   2.650   7.486
 1872TIP3    H229596   6.555   2.682   7.593
 1873TIP3   OH229597   6.787   2.892   9.324
 1873TIP3    H129598   6.883   2.891   9.312
 1873TIP3    H229599   6.770   2.816   9.381
 1874TIP3   OH229600   6.320   2.374   9.094
 1874TIP3    H129601   6.332   2.302   9.028
 1874TIP3    H229602   6.315   2.455   9.039
 1875TIP3   OH229603   6.360   2.212   8.850
 1875TIP3    H129604   6.411   2.259   8.780
 1875TIP3    H229605   6.271   2.205   8.811
 1876TIP3   OH229606   6.513   2.762   8.874
 1876TIP3    H129607   6.589   2.745   8.818
 1876TIP3    H229608   6.479   2.846   8.841
 1877TIP3   OH229609   6.954   2.535   9.369
 1877TIP3    H129610   6.981   2.443   9.359
 1877TIP3    H229611   7.039   2.582   9.374
 1878TIP3   OH229612   7.088   2.816   9.188
 1878TIP3    H129613   7.062   2.890   9.128
 1878TIP3    H229614   7.183   2.817   9.170
 1879TIP3   OH229615   6.166   2.499   9.287
 1879TIP3    H129616   6.089   2.441   9.271
 1879TIP3    H229617   6.231   2.462   9.224
 1880TIP3   OH229618   6.438   1.955   8.890
 1880TIP3    H129619   6.420   2.052   8.879
 1880TIP3    H229620   6.364   1.918   8.838
 1881TIP3   OH229621   6.566   2.389   9.253
 1881TIP3    H129622   6.534   2.365   9.342
 1881TIP3    H229623   6.488   2.368   9.198
 1882TIP3   OH229624   6.839   2.303   9.163
 1882TIP3    H129625   6.743   2.309   9.173
 1882TIP3    H229626   6.866   2.239   9.231
 1883TIP3   OH229627   6.997   2.165   9.351
 1883TIP3    H129628   6.992   2.067   9.354
 1883TIP3    H229629   6.971   2.194   9.440
 1884TIP3   OH229630   5.974   2.293   9.263
 1884TIP3    H129631   5.998   2.219   9.205
 1884TIP3    H229632   5.963   2.249   9.349
 1885TIP3   OH229633   6.460   1.896   9.159
 1885TIP3    H129634   6.528   1.826   9.158
 1885TIP3    H229635   6.449   1.909   9.063
 1886TIP3   OH229636   6.495   2.056   9.373
 1886TIP3    H129637   6.480   2.006   9.288
 1886TIP3    H229638   6.438   2.134   9.361
 1887TIP3   OH229639   5.676   3.742   8.134
 1887TIP3    H129640   5.605   3.694   8.086
 1887TIP3    H229641   5.705   3.677   8.200
 1888TIP3   OH229642   5.759   3.557   8.320
 1888TIP3    H129643   5.723   3.470   8.340
 1888TIP3    H229644   5.782   3.591   8.408
 1889TIP3   OH229645   7.506   3.640   8.613
 1889TIP3    H129646   7.517   3.651   8.709
 1889TIP3    H229647   7.581   3.692   8.582
 1890TIP3   OH229648   7.476   3.596   8.904
 1890TIP3    H129649   7.422   3.521   8.870
 1890TIP3    H229650   7.516   3.552   8.980
 1891TIP3   OH229651   7.318   3.163   9.385
 1891TIP3    H129652   7.222   3.169   9.404
 1891TIP3    H229653   7.351   3.250   9.413
 1892TIP3   OH229654   7.449   3.000   7.913
 1892TIP3    H129655   7.534   3.038   7.938
 1892TIP3    H229656   7.443   2.931   7.983
 1893TIP3   OH229657   7.480   2.810   8.103
 1893TIP3    H129658   7.406   2.760   8.142
 1893TIP3    H229659   7.540   2.821   8.179
 1894TIP3   OH229660   7.456   3.077   8.604
 1894TIP3    H129661   7.537   3.039   8.566
 1894TIP3    H229662   7.472   3.172   8.588
 1895TIP3   OH229663   7.313   3.370   8.831
 1895TIP3    H129664   7.246   3.397   8.896
 1895TIP3    H229665   7.259   3.329   8.761
 1896TIP3   OH229666   7.516   2.797   7.736
 1896TIP3    H129667   7.446   2.822   7.675
 1896TIP3    H229668   7.504   2.859   7.811
 1897TIP3   OH229669   7.264   2.655   8.161
 1897TIP3    H129670   7.250   2.560   8.165
 1897TIP3    H229671   7.235   2.679   8.251
 1898TIP3   OH229672   5.773   2.877   8.569
 1898TIP3    H129673   5.777   2.855   8.472
 1898TIP3    H229674   5.847   2.824   8.602
 1899TIP3   OH229675   7.351   2.852   9.133
 1899TIP3    H129676   7.414   2.779   9.145
 1899TIP3    H229677   7.408   2.932   9.132
 1900TIP3   OH229678   7.502   2.640   9.197
 1900TIP3    H129679   7.412   2.602   9.181
 1900TIP3    H229680   7.559   2.563   9.187
 1901TIP3   OH229681   7.231   2.411   7.998
 1901TIP3    H129682   7.269   2.327   8.033
 1901TIP3    H229683   7.314   2.459   7.976
 1902TIP3   OH229684   7.295   2.469   8.553
 1902TIP3    H129685   7.391   2.492   8.552
 1902TIP3    H229686   7.277   2.483   8.648
 1903TIP3   OH229687   7.301   2.542   8.831
 1903TIP3    H129688   7.212   2.570   8.862
 1903TIP3    H229689   7.345   2.627   8.809
 1904TIP3   OH229690   5.727   2.396   9.186
 1904TIP3    H129691   5.821   2.373   9.204
 1904TIP3    H229692   5.681   2.313   9.211
 1905TIP3   OH229693   7.542   1.949   9.370
 1905TIP3    H129694   7.561   1.877   9.305
 1905TIP3    H229695   7.518   2.023   9.313
 1906TIP3   OH229696   7.286   2.147   8.012
 1906TIP3    H129697   7.322   2.105   8.095
 1906TIP3    H229698   7.241   2.071   7.971
 1907TIP3   OH229699   5.847   2.223   8.469
 1907TIP3    H129700   5.892   2.140   8.494
 1907TIP3    H229701   5.903   2.291   8.507
 1908TIP3   OH229702   5.675   2.524   8.571
 1908TIP3    H129703   5.731   2.497   8.496
 1908TIP3    H229704   5.722   2.603   8.599
 1909TIP3   OH229705   7.430   2.137   9.200
 1909TIP3    H129706   7.353   2.195   9.178
 1909TIP3    H229707   7.441   2.102   9.110
 1910TIP3   OH229708   5.708   2.158   7.983
 1910TIP3    H129709   5.614   2.168   7.963
 1910TIP3    H229710   5.752   2.198   7.905
 1911TIP3   OH229711   7.184   3.645   8.175
 1911TIP3    H129712   7.253   3.616   8.114
 1911TIP3    H229713   7.235   3.695   8.241
 1912TIP3   OH229714   5.706   2.015   8.809
 1912TIP3    H129715   5.639   1.996   8.878
 1912TIP3    H229716   5.660   2.083   8.755
 1913TIP3   OH229717   5.931   3.334   9.225
 1913TIP3    H129718   5.847   3.358   9.182
 1913TIP3    H229719   5.904   3.327   9.317
 1914TIP3   OH229720   6.218   3.433   8.850
 1914TIP3    H129721   6.188   3.523   8.827
 1914TIP3    H229722   6.313   3.444   8.824
 1915TIP3   OH229723   6.651   3.580   9.145
 1915TIP3    H129724   6.668   3.542   9.235
 1915TIP3    H229725   6.742   3.608   9.119
 1916TIP3   OH229726   6.880   3.707   9.075
 1916TIP3    H129727   6.954   3.648   9.051
 1916TIP3    H229728   6.918   3.748   9.155
 1917TIP3   OH229729   7.386   1.968   8.985
 1917TIP3    H129730   7.301   1.995   8.945
 1917TIP3    H229731   7.399   1.884   8.935
 1918TIP3   OH229732   5.962   3.759   8.852
 1918TIP3    H129733   5.889   3.810   8.813
 1918TIP3    H229734   5.932   3.742   8.943
 1919TIP3   OH229735   6.209   3.718   8.760
 1919TIP3    H129736   6.120   3.735   8.799
 1919TIP3    H229737   6.205   3.778   8.683
 1920TIP3   OH229738   6.678   3.708   8.677
 1920TIP3    H129739   6.634   3.765   8.612
 1920TIP3    H229740   6.693   3.771   8.751
 1921TIP3   OH229741   6.908   3.588   8.777
 1921TIP3    H129742   6.823   3.619   8.743
 1921TIP3    H229743   6.958   3.671   8.774
 1922TIP3   OH229744   7.168   3.748   8.798
 1922TIP3    H129745   7.163   3.844   8.776
 1922TIP3    H229746   7.189   3.708   8.712
 1923TIP3   OH229747   5.910   3.625   8.548
 1923TIP3    H129748   5.901   3.578   8.633
 1923TIP3    H229749   5.991   3.586   8.509
 1924TIP3   OH229750   6.116   3.496   8.413
 1924TIP3    H129751   6.101   3.403   8.435
 1924TIP3    H229752   6.202   3.513   8.457
 1925TIP3   OH229753   6.376   3.545   8.500
 1925TIP3    H129754   6.392   3.453   8.474
 1925TIP3    H229755   6.381   3.539   8.597
 1926TIP3   OH229756   6.722   2.109   8.414
 1926TIP3    H129757   6.655   2.046   8.443
 1926TIP3    H229758   6.777   2.055   8.356
 1927TIP3   OH229759   7.236   1.910   8.414
 1927TIP3    H129760   7.296   1.975   8.370
 1927TIP3    H229761   7.148   1.949   8.396
 1928TIP3   OH229762   7.401   2.041   8.240
 1928TIP3    H129763   7.473   1.982   8.209
 1928TIP3    H229764   7.453   2.121   8.263
 1929TIP3   OH229765   5.958   1.971   8.203
 1929TIP3    H129766   5.881   1.954   8.147
 1929TIP3    H229767   6.005   1.886   8.191
 1930TIP3   OH229768   5.836   1.947   7.781
 1930TIP3    H129769   5.879   2.002   7.713
 1930TIP3    H229770   5.777   2.010   7.825
 1931TIP3   OH229771   6.404   1.963   8.179
 1931TIP3    H129772   6.494   2.000   8.169
 1931TIP3    H229773   6.403   1.942   8.272
 1932TIP3   OH229774   6.979   1.967   8.337
 1932TIP3    H129775   6.971   1.977   8.242
 1932TIP3    H229776   6.940   1.878   8.352
 1933TIP3   OH229777   7.102   1.969   7.902
 1933TIP3    H129778   7.025   2.027   7.895
 1933TIP3    H229779   7.060   1.885   7.932
 1934TIP3   OH229780   5.825   3.544   7.874
 1934TIP3    H129781   5.763   3.543   7.798
 1934TIP3    H229782   5.831   3.640   7.884
 1935TIP3   OH229783   6.516   2.162   7.866
 1935TIP3    H129784   6.546   2.107   7.940
 1935TIP3    H229785   6.528   2.251   7.904
 1936TIP3   OH229786   6.716   3.667   7.705
 1936TIP3    H129787   6.805   3.697   7.683
 1936TIP3    H229788   6.692   3.625   7.621
 1937TIP3   OH229789   7.393   3.623   7.971
 1937TIP3    H129790   7.356   3.545   7.924
 1937TIP3    H229791   7.369   3.700   7.916
 1938TIP3   OH229792   5.948   2.027   9.143
 1938TIP3    H129793   5.906   1.948   9.182
 1938TIP3    H229794   6.038   2.022   9.183
 1939TIP3   OH229795   6.146   1.965   9.311
 1939TIP3    H129796   6.236   1.934   9.286
 1939TIP3    H229797   6.111   1.883   9.347
 1940TIP3   OH229798   6.011   3.634   7.574
 1940TIP3    H129799   5.985   3.666   7.660
 1940TIP3    H229800   6.091   3.583   7.587
 1941TIP3   OH229801   6.987   1.893   9.324
 1941TIP3    H129802   6.998   1.846   9.409
 1941TIP3    H229803   7.078   1.891   9.289
 1942TIP3   OH229804   7.325   3.514   9.182
 1942TIP3    H129805   7.242   3.475   9.143
 1942TIP3    H229806   7.290   3.601   9.208
 1943TIP3   OH229807   7.871   2.781   8.692
 1943TIP3    H129808   7.885   2.709   8.757
 1943TIP3    H229809   7.951   2.833   8.710
 1944TIP3   OH229810   7.948   3.210   8.555
 1944TIP3    H129811   7.931   3.127   8.507
 1944TIP3    H229812   8.046   3.213   8.547
 1945TIP3   OH229813   7.627   2.579   8.091
 1945TIP3    H129814   7.587   2.668   8.083
 1945TIP3    H229815   7.573   2.527   8.030
 1946TIP3   OH229816   7.702   2.803   8.303
 1946TIP3    H129817   7.729   2.720   8.348
 1946TIP3    H229818   7.772   2.813   8.237
 1947TIP3   OH229819   7.762   2.545   8.409
 1947TIP3    H129820   7.833   2.495   8.454
 1947TIP3    H229821   7.781   2.517   8.318
 1948TIP3   OH229822   7.974   2.194   8.736
 1948TIP3    H129823   7.964   2.258   8.662
 1948TIP3    H229824   7.917   2.231   8.805
 1949TIP3   OH229825   7.939   2.367   8.533
 1949TIP3    H129826   7.993   2.440   8.573
 1949TIP3    H229827   7.999   2.339   8.461
 1950TIP3   OH229828   8.072   3.198   8.845
 1950TIP3    H129829   8.063   3.283   8.804
 1950TIP3    H229830   7.986   3.178   8.888
 1951TIP3   OH229831   7.699   3.124   7.924
 1951TIP3    H129832   7.680   3.157   7.836
 1951TIP3    H229833   7.705   3.206   7.978
 1952TIP3   OH229834   7.936   2.829   8.973
 1952TIP3    H129835   7.946   2.894   9.044
 1952TIP3    H229836   7.843   2.839   8.950
 1953TIP3   OH229837   8.076   3.416   9.133
 1953TIP3    H129838   8.072   3.404   9.038
 1953TIP3    H229839   7.981   3.404   9.157
 1954TIP3   OH229840   8.013   2.803   7.989
 1954TIP3    H129841   7.995   2.878   7.930
 1954TIP3    H229842   7.950   2.738   7.957
 1955TIP3   OH229843   7.630   3.041   8.872
 1955TIP3    H129844   7.586   3.033   8.786
 1955TIP3    H229845   7.642   2.947   8.894
 1956TIP3   OH229846   7.607   3.316   8.551
 1956TIP3    H129847   7.703   3.304   8.547
 1956TIP3    H229848   7.601   3.399   8.599
 1957TIP3   OH229849   7.924   3.589   8.168
 1957TIP3    H129850   7.941   3.554   8.258
 1957TIP3    H229851   7.836   3.553   8.152
 1958TIP3   OH229852   7.848   3.178   8.972
 1958TIP3    H129853   7.876   3.133   9.055
 1958TIP3    H229854   7.767   3.130   8.944
 1959TIP3   OH229855   7.899   2.547   8.855
 1959TIP3    H129856   7.904   2.585   8.944
 1959TIP3    H229857   7.863   2.459   8.871
 1960TIP3   OH229858   7.562   2.251   8.251
 1960TIP3    H129859   7.629   2.250   8.323
 1960TIP3    H229860   7.613   2.218   8.175
 1961TIP3   OH229861   7.696   2.333   7.800
 1961TIP3    H129862   7.734   2.383   7.727
 1961TIP3    H229863   7.620   2.390   7.817
 1962TIP3   OH229864   7.866   2.445   8.155
 1962TIP3    H129865   7.776   2.453   8.119
 1962TIP3    H229866   7.899   2.357   8.127
 1963TIP3   OH229867   7.915   3.028   9.184
 1963TIP3    H129868   7.985   3.046   9.246
 1963TIP3    H229869   7.836   3.030   9.244
 1964TIP3   OH229870   7.967   2.169   8.086
 1964TIP3    H129871   7.966   2.075   8.113
 1964TIP3    H229872   8.063   2.179   8.081
 1965TIP3   OH229873   7.946   2.956   8.445
 1965TIP3    H129874   8.023   2.950   8.387
 1965TIP3    H229875   7.955   2.874   8.498
 1966TIP3   OH229876   7.650   2.796   8.981
 1966TIP3    H129877   7.666   2.750   9.065
 1966TIP3    H229878   7.588   2.736   8.935
 1967TIP3   OH229879   7.812   2.272   8.944
 1967TIP3    H129880   7.723   2.304   8.923
 1967TIP3    H229881   7.801   2.180   8.972
 1968TIP3   OH229882   7.784   3.446   8.774
 1968TIP3    H129883   7.799   3.352   8.781
 1968TIP3    H229884   7.800   3.478   8.864
 1969TIP3   OH229885   7.900   2.981   7.791
 1969TIP3    H129886   7.837   3.016   7.857
 1969TIP3    H229887   7.958   3.057   7.773
 1970TIP3   OH229888   7.958   3.237   7.680
 1970TIP3    H129889   8.018   3.306   7.711
 1970TIP3    H229890   8.021   3.200   7.615
 1971TIP3   OH229891   7.873   1.986   8.476
 1971TIP3    H129892   7.862   1.989   8.379
 1971TIP3    H229893   7.836   1.898   8.499
 1972TIP3   OH229894   7.760   3.373   8.077
 1972TIP3    H129895   7.682   3.428   8.088
 1972TIP3    H229896   7.823   3.424   8.025
 1973TIP3   OH229897   7.688   3.641   9.213
 1973TIP3    H129898   7.748   3.623   9.288
 1973TIP3    H229899   7.647   3.554   9.198
 1974TIP3   OH229900   7.682   3.020   9.315
 1974TIP3    H129901   7.697   2.927   9.287
 1974TIP3    H229902   7.606   3.045   9.259
 1975TIP3   OH229903   7.776   2.744   9.255
 1975TIP3    H129904   7.819   2.659   9.243
 1975TIP3    H229905   7.755   2.743   9.350
 1976TIP3   OH229906   8.038   2.515   9.300
 1976TIP3    H129907   7.969   2.450   9.278
 1976TIP3    H229908   8.109   2.486   9.240
 1977TIP3   OH229909   7.846   2.283   9.262
 1977TIP3    H129910   7.896   2.220   9.205
 1977TIP3    H229911   7.865   2.253   9.354
 1978TIP3   OH229912   7.561   3.742   8.132
 1978TIP3    H129913   7.488   3.694   8.089
 1978TIP3    H229914   7.590   3.680   8.201
 1979TIP3   OH229915   7.644   3.555   8.319
 1979TIP3    H129916   7.607   3.468   8.342
 1979TIP3    H229917   7.670   3.589   8.407
 1980TIP3   OH229918   7.652   2.869   8.565
 1980TIP3    H129919   7.674   2.855   8.471
 1980TIP3    H229920   7.739   2.847   8.605
 1981TIP3   OH229921   7.610   2.379   9.170
 1981TIP3    H129922   7.703   2.380   9.204
 1981TIP3    H229923   7.555   2.327   9.229
 1982TIP3   OH229924   7.728   2.224   8.470
 1982TIP3    H129925   7.780   2.143   8.490
 1982TIP3    H229926   7.790   2.292   8.503
 1983TIP3   OH229927   7.557   2.525   8.571
 1983TIP3    H129928   7.617   2.499   8.497
 1983TIP3    H229929   7.605   2.604   8.600
 1984TIP3   OH229930   7.593   2.149   7.977
 1984TIP3    H129931   7.501   2.170   7.965
 1984TIP3    H229932   7.639   2.201   7.908
 1985TIP3   OH229933   7.591   2.017   8.813
 1985TIP3    H129934   7.519   1.993   8.873
 1985TIP3    H229935   7.548   2.080   8.752
 1986TIP3   OH229936   7.812   3.337   9.225
 1986TIP3    H129937   7.728   3.358   9.181
 1986TIP3    H229938   7.785   3.326   9.317
 1987TIP3   OH229939   7.848   3.762   8.857
 1987TIP3    H129940   7.774   3.809   8.812
 1987TIP3    H229941   7.810   3.742   8.943
 1988TIP3   OH229942   8.073   3.683   8.730
 1988TIP3    H129943   8.008   3.720   8.794
 1988TIP3    H229944   8.095   3.766   8.686
 1989TIP3   OH229945   7.784   3.625   8.550
 1989TIP3    H129946   7.789   3.581   8.637
 1989TIP3    H229947   7.867   3.591   8.510
 1990TIP3   OH229948   7.983   3.495   8.429
 1990TIP3    H129949   7.977   3.399   8.442
 1990TIP3    H229950   8.073   3.508   8.463
 1991TIP3   OH229951   7.835   1.966   8.205
 1991TIP3    H129952   7.761   1.951   8.144
 1991TIP3    H229953   7.889   1.886   8.197
 1992TIP3   OH229954   7.712   1.949   7.767
 1992TIP3    H129955   7.766   2.014   7.719
 1992TIP3    H229956   7.663   2.006   7.828
 1993TIP3   OH229957   7.904   2.134   7.627
 1993TIP3    H129958   7.961   2.079   7.572
 1993TIP3    H229959   7.968   2.178   7.685
 1994TIP3   OH229960   7.834   2.028   9.149
 1994TIP3    H129961   7.807   1.939   9.180
 1994TIP3    H229962   7.928   2.022   9.178
 1995TIP3   OH229963   8.028   1.961   9.307
 1995TIP3    H129964   8.118   1.931   9.283
 1995TIP3    H229965   7.996   1.880   9.351
 1996TIP3   OH229966   1.211   4.774   8.186
 1996TIP3    H129967   1.211   4.871   8.181
 1996TIP3    H229968   1.140   4.751   8.124
 1997TIP3   OH229969   1.097   4.696   8.534
 1997TIP3    H129970   1.096   4.632   8.607
 1997TIP3    H229971   1.061   4.645   8.460
 1998TIP3   OH229972   0.345   4.655   8.680
 1998TIP3    H129973   0.340   4.596   8.758
 1998TIP3    H229974   0.409   4.721   8.712
 1999TIP3   OH229975   1.463   4.995   8.365
 1999TIP3    H129976   1.425   4.919   8.411
 1999TIP3    H229977   1.465   5.061   8.437
 2000TIP3   OH229978   0.420   5.109   8.541
 2000TIP3    H129979   0.392   5.020   8.510
 2000TIP3    H229980   0.517   5.093   8.543
 2001TIP3   OH229981   0.095   4.466   8.074
 2001TIP3    H129982   0.051   4.553   8.087
 2001TIP3    H229983   0.024   4.411   8.041
 2002TIP3   OH229984   0.158   4.684   8.303
 2002TIP3    H129985   0.185   4.603   8.349
 2002TIP3    H229986   0.228   4.695   8.236
 2003TIP3   OH229987   1.181   5.507   8.387
 2003TIP3    H129988   1.241   5.436   8.359
 2003TIP3    H229989   1.152   5.474   8.472
 2004TIP3   OH229990   0.933   4.937   8.583
 2004TIP3    H129991   0.966   4.875   8.517
 2004TIP3    H229992   1.015   4.953   8.634
 2005TIP3   OH229993   1.792   4.104   8.653
 2005TIP3    H129994   1.811   4.161   8.730
 2005TIP3    H229995   1.851   4.145   8.588
 2006TIP3   OH229996   1.251   4.384   8.614
 2006TIP3    H129997   1.268   4.288   8.615
 2006TIP3    H229998   1.240   4.397   8.518
 2007TIP3   OH229999   0.561   4.193   8.335
 2007TIP3    H130000   0.572   4.277   8.285
 2007TIP3    H230001   0.523   4.136   8.265
 2008TIP3   OH230002   1.336   4.202   8.173
 2008TIP3    H130003   1.401   4.169   8.239
 2008TIP3    H230004   1.391   4.259   8.118
 2009TIP3   OH230005   0.236   4.435   8.407
 2009TIP3    H130006   0.297   4.375   8.452
 2009TIP3    H230007   0.237   4.401   8.316
 2010TIP3   OH230008   0.739   4.589   8.341
 2010TIP3    H130009   0.807   4.531   8.379
 2010TIP3    H230010   0.689   4.524   8.289
 2011TIP3   OH230011   1.836   4.243   8.882
 2011TIP3    H130012   1.777   4.320   8.870
 2011TIP3    H230013   1.840   4.237   8.978
 2012TIP3   OH230014   0.457   4.080   8.738
 2012TIP3    H130015   0.427   4.139   8.665
 2012TIP3    H230016   0.388   4.103   8.806
 2013TIP3   OH230017   1.184   5.033   8.093
 2013TIP3    H130018   1.156   5.006   8.004
 2013TIP3    H230019   1.148   5.125   8.097
 2014TIP3   OH230020   0.707   4.846   8.761
 2014TIP3    H130021   0.636   4.910   8.784
 2014TIP3    H230022   0.777   4.907   8.732
 2015TIP3   OH230023   1.518   4.135   8.371
 2015TIP3    H130024   1.495   4.059   8.424
 2015TIP3    H230025   1.585   4.179   8.427
 2016TIP3   OH230026   0.413   4.265   8.544
 2016TIP3    H130027   0.473   4.337   8.574
 2016TIP3    H230028   0.464   4.228   8.468
 2017TIP3   OH230029   0.553   5.048   8.841
 2017TIP3    H130030   0.546   5.140   8.808
 2017TIP3    H230031   0.465   5.037   8.884
 2018TIP3   OH230032   0.166   5.015   7.918
 2018TIP3    H130033   0.115   5.049   7.847
 2018TIP3    H230034   0.167   5.089   7.983
 2019TIP3   OH230035   1.515   5.177   8.588
 2019TIP3    H130036   1.420   5.186   8.614
 2019TIP3    H230037   1.543   5.270   8.587
 2020TIP3   OH230038   1.550   4.003   8.738
 2020TIP3    H130039   1.478   4.067   8.728
 2020TIP3    H230040   1.622   4.045   8.687
 2021TIP3   OH230041   0.847   3.815   8.485
 2021TIP3    H130042   0.828   3.720   8.476
 2021TIP3    H230043   0.759   3.849   8.513
 2022TIP3   OH230044   1.357   5.352   8.265
 2022TIP3    H130045   1.373   5.279   8.201
 2022TIP3    H230046   1.375   5.433   8.212
 2023TIP3   OH230047   1.469   5.149   8.122
 2023TIP3    H130048   1.437   5.087   8.052
 2023TIP3    H230049   1.465   5.087   8.197
 2024TIP3   OH230050   1.625   5.008   8.960
 2024TIP3    H130051   1.641   4.940   8.889
 2024TIP3    H230052   1.648   5.090   8.914
 2025TIP3   OH230053   1.076   4.696   7.938
 2025TIP3    H130054   1.005   4.752   7.900
 2025TIP3    H230055   1.142   4.702   7.866
 2026TIP3   OH230056   1.816   4.638   8.764
 2026TIP3    H130057   1.750   4.711   8.767
 2026TIP3    H230058   1.866   4.661   8.683
 2027TIP3   OH230059   1.420   4.711   8.030
 2027TIP3    H130060   1.348   4.741   8.090
 2027TIP3    H230061   1.471   4.651   8.087
 2028TIP3   OH230062   1.415   4.533   8.941
 2028TIP3    H130063   1.415   4.615   8.993
 2028TIP3    H230064   1.352   4.561   8.872
 2029TIP3   OH230065   0.583   4.782   8.221
 2029TIP3    H130066   0.549   4.743   8.137
 2029TIP3    H230067   0.645   4.713   8.253
 2030TIP3   OH230068   0.713   5.119   8.487
 2030TIP3    H130069   0.714   5.069   8.405
 2030TIP3    H230070   0.793   5.085   8.533
 2031TIP3   OH230071   0.617   4.655   8.586
 2031TIP3    H130072   0.670   4.666   8.505
 2031TIP3    H230073   0.653   4.724   8.647
 2032TIP3   OH230074   1.258   5.215   8.657
 2032TIP3    H130075   1.227   5.278   8.723
 2032TIP3    H230076   1.233   5.129   8.699
 2033TIP3   OH230077   0.710   5.099   9.057
 2033TIP3    H130078   0.669   5.174   9.105
 2033TIP3    H230079   0.646   5.081   8.985
 2034TIP3   OH230080   1.300   4.632   7.803
 2034TIP3    H130081   1.357   4.653   7.881
 2034TIP3    H230082   1.337   4.689   7.734
 2035TIP3   OH230083   0.403   4.714   8.971
 2035TIP3    H130084   0.410   4.783   9.040
 2035TIP3    H230085   0.308   4.722   8.949
 2036TIP3   OH230086   1.088   5.313   8.141
 2036TIP3    H130087   1.121   5.343   8.226
 2036TIP3    H230088   1.023   5.381   8.117
 2037TIP3   OH230089   0.536   5.300   9.131
 2037TIP3    H130090   0.529   5.294   9.034
 2037TIP3    H230091   0.443   5.291   9.159
 2038TIP3   OH230092   1.683   3.809   7.792
 2038TIP3    H130093   1.586   3.819   7.806
 2038TIP3    H230094   1.703   3.889   7.741
 2039TIP3   OH230095   0.484   4.685   7.979
 2039TIP3    H130096   0.450   4.762   7.931
 2039TIP3    H230097   0.417   4.618   7.963
 2040TIP3   OH230098   0.138   4.893   8.856
 2040TIP3    H130099   0.065   4.914   8.795
 2040TIP3    H230100   0.097   4.814   8.898
 2041TIP3   OH230101   0.088   5.220   8.536
 2041TIP3    H130102   0.180   5.194   8.549
 2041TIP3    H230103   0.072   5.285   8.606
 2042TIP3   OH230104   1.888   5.272   9.119
 2042TIP3    H130105   1.876   5.176   9.115
 2042TIP3    H230106   1.801   5.297   9.157
 2043TIP3   OH230107   0.983   5.225   9.004
 2043TIP3    H130108   0.989   5.309   9.055
 2043TIP3    H230109   0.895   5.190   9.028
 2044TIP3   OH230110   1.024   5.601   7.983
 2044TIP3    H130111   1.024   5.592   7.887
 2044TIP3    H230112   1.033   5.696   8.000
 2045TIP3   OH230113   0.396   5.486   8.166
 2045TIP3    H130114   0.406   5.446   8.254
 2045TIP3    H230115   0.311   5.447   8.141
 2046TIP3   OH230116   1.301   5.522   7.973
 2046TIP3    H130117   1.204   5.521   7.979
 2046TIP3    H230118   1.324   5.436   8.008
 2047TIP3   OH230119   1.603   4.418   9.165
 2047TIP3    H130120   1.554   4.462   9.093
 2047TIP3    H230121   1.601   4.326   9.135
 2048TIP3   OH230122   0.324   5.055   8.964
 2048TIP3    H130123   0.345   5.010   9.049
 2048TIP3    H230124   0.252   4.997   8.925
 2049TIP3   OH230125   0.585   3.905   8.564
 2049TIP3    H130126   0.496   3.896   8.523
 2049TIP3    H230127   0.572   3.991   8.607
 2050TIP3   OH230128   1.049   3.870   8.894
 2050TIP3    H130129   1.090   3.831   8.974
 2050TIP3    H230130   0.953   3.863   8.912
 2051TIP3   OH230131   1.378   4.258   8.987
 2051TIP3    H130132   1.321   4.236   9.064
 2051TIP3    H230133   1.359   4.351   8.964
 2052TIP3   OH230134   0.596   4.405   8.688
 2052TIP3    H130135   0.521   4.404   8.751
 2052TIP3    H230136   0.590   4.495   8.648
 2053TIP3   OH230137   0.593   4.416   8.174
 2053TIP3    H130138   0.498   4.394   8.159
 2053TIP3    H230139   0.630   4.386   8.088
 2054TIP3   OH230140   1.142   4.465   8.048
 2054TIP3    H130141   1.104   4.549   8.013
 2054TIP3    H230142   1.211   4.448   7.982
 2055TIP3   OH230143   1.048   4.487   9.192
 2055TIP3    H130144   0.996   4.409   9.223
 2055TIP3    H230145   1.132   4.476   9.240
 2056TIP3   OH230146   1.247   4.416   8.334
 2056TIP3    H130147   1.218   4.472   8.260
 2056TIP3    H230148   1.256   4.331   8.288
 2057TIP3   OH230149   0.357   4.432   8.854
 2057TIP3    H130150   0.362   4.471   8.942
 2057TIP3    H230151   0.313   4.347   8.873
 2058TIP3   OH230152   0.054   4.172   8.260
 2058TIP3    H130153   0.103   4.136   8.337
 2058TIP3    H230154   0.064   4.103   8.196
 2059TIP3   OH230155   1.166   4.573   8.788
 2059TIP3    H130156   1.205   4.504   8.730
 2059TIP3    H230157   1.119   4.520   8.855
 2060TIP3   OH230158   0.845   4.172   8.274
 2060TIP3    H130159   0.751   4.172   8.304
 2060TIP3    H230160   0.894   4.153   8.355
 2061TIP3   OH230161   0.332   4.325   8.156
 2061TIP3    H130162   0.242   4.342   8.123
 2061TIP3    H230163   0.354   4.239   8.117
 2062TIP3   OH230164   0.689   4.333   7.921
 2062TIP3    H130165   0.785   4.340   7.938
 2062TIP3    H230166   0.668   4.398   7.852
 2063TIP3   OH230167   1.288   4.096   8.596
 2063TIP3    H130168   1.219   4.099   8.666
 2063TIP3    H230169   1.237   4.070   8.519
 2064TIP3   OH230170   0.567   4.447   7.681
 2064TIP3    H130171   0.509   4.415   7.608
 2064TIP3    H230172   0.646   4.468   7.630
 2065TIP3   OH230173   1.607   5.658   9.229
 2065TIP3    H130174   1.633   5.696   9.144
 2065TIP3    H230175   1.679   5.690   9.285
 2066TIP3   OH230176   0.377   4.914   9.186
 2066TIP3    H130177   0.452   4.928   9.247
 2066TIP3    H230178   0.303   4.910   9.250
 2067TIP3   OH230179   0.975   4.447   8.462
 2067TIP3    H130180   1.035   4.394   8.409
 2067TIP3    H230181   0.960   4.391   8.540
 2068TIP3   OH230182   0.479   4.062   8.108
 2068TIP3    H130183   0.442   3.972   8.106
 2068TIP3    H230184   0.556   4.052   8.050
 2069TIP3   OH230185   0.838   4.278   8.705
 2069TIP3    H130186   0.756   4.332   8.712
 2069TIP3    H230187   0.895   4.316   8.775
 2070TIP3   OH230188   0.899   4.900   7.875
 2070TIP3    H130189   0.819   4.856   7.838
 2070TIP3    H230190   0.874   4.918   7.968
 2071TIP3   OH230191   1.618   4.823   8.753
 2071TIP3    H130192   1.673   4.872   8.689
 2071TIP3    H230193   1.531   4.826   8.708
 2072TIP3   OH230194   1.278   4.188   7.685
 2072TIP3    H130195   1.184   4.203   7.678
 2072TIP3    H230196   1.313   4.269   7.728
 2073TIP3   OH230197   1.047   4.930   8.998
 2073TIP3    H130198   1.013   4.886   9.076
 2073TIP3    H230199   1.020   5.021   9.010
 2074TIP3   OH230200   1.361   4.373   7.859
 2074TIP3    H130201   1.450   4.363   7.899
 2074TIP3    H230202   1.363   4.457   7.808
 2075TIP3   OH230203   0.408   4.843   8.453
 2075TIP3    H130204   0.475   4.834   8.383
 2075TIP3    H230205   0.416   4.757   8.499
 2076TIP3   OH230206   1.109   5.047   7.793
 2076TIP3    H130207   1.071   5.135   7.809
 2076TIP3    H230208   1.030   4.990   7.792
 2077TIP3   OH230209   0.116   4.668   8.977
 2077TIP3    H130210   0.127   4.630   9.065
 2077TIP3    H230211   0.042   4.619   8.938
 2078TIP3   OH230212   0.809   4.638   9.196
 2078TIP3    H130213   0.777   4.605   9.111
 2078TIP3    H230214   0.901   4.604   9.196
 2079TIP3   OH230215   1.279   5.172   8.993
 2079TIP3    H130216   1.186   5.189   8.969
 2079TIP3    H230217   1.275   5.201   9.086
 2080TIP3   OH230218   1.840   4.390   7.835
 2080TIP3    H130219   1.788   4.355   7.762
 2080TIP3    H230220   1.853   4.483   7.809
 2081TIP3   OH230221   1.843   4.975   9.111
 2081TIP3    H130222   1.753   4.996   9.077
 2081TIP3    H230223   1.897   4.970   9.029
 2082TIP3   OH230224   1.394   4.753   8.582
 2082TIP3    H130225   1.300   4.733   8.569
 2082TIP3    H230226   1.438   4.678   8.537
 2083TIP3   OH230227   0.646   5.184   8.190
 2083TIP3    H130228   0.696   5.266   8.174
 2083TIP3    H230229   0.559   5.210   8.158
 2084TIP3   OH230230   0.217   4.669   7.654
 2084TIP3    H130231   0.285   4.731   7.687
 2084TIP3    H230232   0.133   4.704   7.679
 2085TIP3   OH230233   0.789   4.952   8.147
 2085TIP3    H130234   0.757   5.044   8.153
 2085TIP3    H230235   0.715   4.903   8.188
 2086TIP3   OH230236   0.830   5.373   8.786
 2086TIP3    H130237   0.878   5.451   8.756
 2086TIP3    H230238   0.893   5.337   8.851
 2087TIP3   OH230239   0.656   5.447   8.104
 2087TIP3    H130240   0.560   5.465   8.111
 2087TIP3    H230241   0.693   5.534   8.129
 2088TIP3   OH230242   1.183   4.970   8.746
 2088TIP3    H130243   1.153   4.952   8.837
 2088TIP3    H230244   1.248   4.900   8.729
 2089TIP3   OH230245   1.468   5.429   8.994
 2089TIP3    H130246   1.397   5.380   8.948
 2089TIP3    H230247   1.485   5.499   8.928
 2090TIP3   OH230248   0.273   4.155   8.932
 2090TIP3    H130249   0.183   4.190   8.936
 2090TIP3    H230250   0.259   4.070   8.978
 2091TIP3   OH230251   1.497   4.938   7.881
 2091TIP3    H130252   1.473   4.862   7.935
 2091TIP3    H230253   1.593   4.946   7.895
 2092TIP3   OH230254   0.231   5.328   8.776
 2092TIP3    H130255   0.272   5.240   8.774
 2092TIP3    H230256   0.263   5.366   8.858
 2093TIP3   OH230257   0.350   4.872   7.784
 2093TIP3    H130258   0.298   4.902   7.862
 2093TIP3    H230259   0.424   4.935   7.778
 2094TIP3   OH230260   1.146   4.132   8.832
 2094TIP3    H130261   1.218   4.139   8.896
 2094TIP3    H230262   1.108   4.045   8.853
 2095TIP3   OH230263   1.225   4.084   7.942
 2095TIP3    H130264   1.242   4.135   7.861
 2095TIP3    H230265   1.279   4.135   8.005
 2096TIP3   OH230266   0.991   5.307   7.824
 2096TIP3    H130267   0.905   5.355   7.829
 2096TIP3    H230268   1.042   5.356   7.758
 2097TIP3   OH230269   0.941   4.263   8.023
 2097TIP3    H130270   1.019   4.323   8.024
 2097TIP3    H230271   0.916   4.250   8.116
 2098TIP3   OH230272   0.999   4.367   8.941
 2098TIP3    H130273   1.006   4.422   9.022
 2098TIP3    H230274   1.065   4.297   8.950
 2099TIP3   OH230275   1.032   3.970   8.116
 2099TIP3    H130276   0.994   4.038   8.173
 2099TIP3    H230277   1.097   4.025   8.065
 2100TIP3   OH230278   0.735   5.411   7.830
 2100TIP3    H130279   0.740   5.487   7.769
 2100TIP3    H230280   0.700   5.447   7.913
 2101TIP3   OH230281   0.592   4.075   7.791
 2101TIP3    H130282   0.589   4.169   7.815
 2101TIP3    H230283   0.686   4.056   7.809
 2102TIP3   OH230284   1.616   4.154   9.025
 2102TIP3    H130285   1.523   4.186   9.012
 2102TIP3    H230286   1.646   4.151   8.933
 2103TIP3   OH230287   1.478   4.533   8.426
 2103TIP3    H130288   1.396   4.488   8.398
 2103TIP3    H230289   1.526   4.464   8.477
 2104TIP3   OH230290   1.586   5.453   8.577
 2104TIP3    H130291   1.576   5.536   8.527
 2104TIP3    H230292   1.678   5.464   8.612
 2105TIP3   OH230293   0.331   3.875   8.468
 2105TIP3    H130294   0.311   3.870   8.372
 2105TIP3    H230295   0.295   3.788   8.498
 2106TIP3   OH230296   0.226   5.255   8.081
 2106TIP3    H130297   0.147   5.310   8.086
 2106TIP3    H230298   0.279   5.310   8.021
 2107TIP3   OH230299   0.154   5.525   9.215
 2107TIP3    H130300   0.211   5.503   9.291
 2107TIP3    H230301   0.104   5.443   9.198
 2108TIP3   OH230302   0.619   5.420   9.377
 2108TIP3    H130303   0.694   5.368   9.410
 2108TIP3    H230304   0.618   5.392   9.283
 2109TIP3   OH230305   1.029   5.369   7.524
 2109TIP3    H130306   0.959   5.303   7.538
 2109TIP3    H230307   1.100   5.312   7.490
 2110TIP3   OH230308   1.267   5.258   9.252
 2110TIP3    H130309   1.235   5.170   9.280
 2110TIP3    H230310   1.344   5.270   9.311
 2111TIP3   OH230311   0.142   4.912   9.312
 2111TIP3    H130312   0.157   4.817   9.290
 2111TIP3    H230313   0.064   4.927   9.260
 2112TIP3   OH230314   0.812   4.904   9.254
 2112TIP3    H130315   0.778   4.936   9.168
 2112TIP3    H230316   0.818   4.806   9.243
 2113TIP3   OH230317   1.381   4.889   8.994
 2113TIP3    H130318   1.460   4.947   8.989
 2113TIP3    H230319   1.312   4.957   8.997
 2114TIP3   OH230320   0.217   4.627   9.255
 2114TIP3    H130321   0.274   4.549   9.245
 2114TIP3    H230322   0.204   4.628   9.351
 2115TIP3   OH230323   0.701   4.737   7.759
 2115TIP3    H130324   0.648   4.684   7.821
 2115TIP3    H230325   0.726   4.674   7.689
 2116TIP3   OH230326   0.621   4.522   8.989
 2116TIP3    H130327   0.561   4.593   9.014
 2116TIP3    H230328   0.662   4.559   8.909
 2117TIP3   OH230329   1.130   4.779   9.324
 2117TIP3    H130330   1.225   4.777   9.309
 2117TIP3    H230331   1.113   4.702   9.380
 2118TIP3   OH230332   0.667   4.261   9.094
 2118TIP3    H130333   0.675   4.191   9.028
 2118TIP3    H230334   0.656   4.342   9.040
 2119TIP3   OH230335   0.705   4.092   8.849
 2119TIP3    H130336   0.754   4.146   8.781
 2119TIP3    H230337   0.614   4.093   8.810
 2120TIP3   OH230338   0.858   4.648   8.875
 2120TIP3    H130339   0.933   4.631   8.817
 2120TIP3    H230340   0.821   4.731   8.839
 2121TIP3   OH230341   1.296   4.421   9.370
 2121TIP3    H130342   1.320   4.328   9.361
 2121TIP3    H230343   1.382   4.466   9.374
 2122TIP3   OH230344   1.431   4.702   9.188
 2122TIP3    H130345   1.406   4.773   9.126
 2122TIP3    H230346   1.527   4.698   9.169
 2123TIP3   OH230347   0.509   4.386   9.286
 2123TIP3    H130348   0.433   4.326   9.271
 2123TIP3    H230349   0.575   4.347   9.225
 2124TIP3   OH230350   0.775   3.837   8.892
 2124TIP3    H130351   0.769   3.936   8.883
 2124TIP3    H230352   0.707   3.815   8.825
 2125TIP3   OH230353   0.910   4.274   9.253
 2125TIP3    H130354   0.877   4.251   9.342
 2125TIP3    H230355   0.832   4.254   9.198
 2126TIP3   OH230356   1.181   4.188   9.162
 2126TIP3    H130357   1.085   4.195   9.173
 2126TIP3    H230358   1.207   4.125   9.232
 2127TIP3   OH230359   1.339   4.051   9.350
 2127TIP3    H130360   1.336   3.953   9.354
 2127TIP3    H230361   1.315   4.080   9.440
 2128TIP3   OH230362   0.323   4.178   9.264
 2128TIP3    H130363   0.346   4.105   9.203
 2128TIP3    H230364   0.311   4.132   9.350
 2129TIP3   OH230365   0.793   3.769   9.154
 2129TIP3    H130366   0.874   3.714   9.160
 2129TIP3    H230367   0.801   3.805   9.063
 2130TIP3   OH230368   0.839   3.940   9.370
 2130TIP3    H130369   0.821   3.891   9.288
 2130TIP3    H230370   0.781   4.019   9.363
 2131TIP3   OH230371   0.789   5.647   7.696
 2131TIP3    H130372   0.886   5.639   7.694
 2131TIP3    H230373   0.765   5.687   7.611
 2132TIP3   OH230374   0.266   5.175   7.589
 2132TIP3    H130375   0.293   5.126   7.667
 2132TIP3    H230376   0.202   5.124   7.538
 2133TIP3   OH230377   0.033   5.641   8.124
 2133TIP3    H130378  -0.044   5.591   8.091
 2133TIP3    H230379   0.054   5.578   8.197
 2134TIP3   OH230380   0.124   5.446   8.312
 2134TIP3    H130381   0.075   5.363   8.327
 2134TIP3    H230382   0.134   5.482   8.402
 2135TIP3   OH230383   1.852   5.525   8.611
 2135TIP3    H130384   1.860   5.537   8.708
 2135TIP3    H230385   1.926   5.580   8.582
 2136TIP3   OH230386   1.814   5.482   8.907
 2136TIP3    H130387   1.767   5.405   8.870
 2136TIP3    H230388   1.861   5.438   8.979
 2137TIP3   OH230389   1.658   5.054   9.375
 2137TIP3    H130390   1.567   5.052   9.410
 2137TIP3    H230391   1.695   5.135   9.416
 2138TIP3   OH230392   1.795   4.878   7.914
 2138TIP3    H130393   1.875   4.928   7.935
 2138TIP3    H230394   1.791   4.815   7.990
 2139TIP3   OH230395   1.827   4.693   8.105
 2139TIP3    H130396   1.750   4.646   8.145
 2139TIP3    H230397   1.885   4.708   8.182
 2140TIP3   OH230398   1.800   4.965   8.602
 2140TIP3    H130399   1.882   4.924   8.568
 2140TIP3    H230400   1.818   5.060   8.588
 2141TIP3   OH230401   1.656   5.256   8.828
 2141TIP3    H130402   1.590   5.288   8.891
 2141TIP3    H230403   1.601   5.213   8.761
 2142TIP3   OH230404   1.865   4.679   7.745
 2142TIP3    H130405   1.803   4.714   7.677
 2142TIP3    H230406   1.848   4.747   7.814
 2143TIP3   OH230407   1.607   4.542   8.161
 2143TIP3    H130408   1.593   4.446   8.160
 2143TIP3    H230409   1.576   4.563   8.251
 2144TIP3   OH230410   0.108   4.750   8.570
 2144TIP3    H130411   0.126   4.742   8.474
 2144TIP3    H230412   0.197   4.735   8.607
 2145TIP3   OH230413   1.694   4.740   9.132
 2145TIP3    H130414   1.755   4.663   9.145
 2145TIP3    H230415   1.755   4.816   9.133
 2146TIP3   OH230416   1.844   4.526   9.197
 2146TIP3    H130417   1.755   4.487   9.182
 2146TIP3    H230418   1.901   4.448   9.190
 2147TIP3   OH230419   1.607   4.156   7.514
 2147TIP3    H130420   1.674   4.106   7.565
 2147TIP3    H230421   1.528   4.104   7.526
 2148TIP3   OH230422   1.575   4.300   8.008
 2148TIP3    H130423   1.603   4.206   8.021
 2148TIP3    H230424   1.656   4.338   7.974
 2149TIP3   OH230425   1.638   4.355   8.554
 2149TIP3    H130426   1.734   4.378   8.552
 2149TIP3    H230427   1.620   4.369   8.648
 2150TIP3   OH230428   1.645   4.427   8.832
 2150TIP3    H130429   1.556   4.455   8.862
 2150TIP3    H230430   1.688   4.512   8.809
 2151TIP3   OH230431   0.089   4.240   9.148
 2151TIP3    H130432   0.173   4.252   9.198
 2151TIP3    H230433   0.031   4.197   9.211
 2152TIP3   OH230434   1.873   3.834   9.364
 2152TIP3    H130435   1.908   3.768   9.303
 2152TIP3    H230436   1.882   3.915   9.310
 2153TIP3   OH230437   1.642   4.030   8.013
 2153TIP3    H130438   1.663   3.986   8.098
 2153TIP3    H230439   1.582   3.965   7.969
 2154TIP3   OH230440   0.190   4.110   8.475
 2154TIP3    H130441   0.238   4.028   8.496
 2154TIP3    H230442   0.245   4.178   8.514
 2155TIP3   OH230443   0.040   4.418   8.582
 2155TIP3    H130444   0.086   4.395   8.499
 2155TIP3    H230445   0.074   4.506   8.599
 2156TIP3   OH230446   1.824   4.044   9.200
 2156TIP3    H130447   1.731   4.071   9.195
 2156TIP3    H230448   1.827   3.988   9.121
 2157TIP3   OH230449   1.826   4.033   7.668
 2157TIP3    H130450   1.870   3.966   7.613
 2157TIP3    H230451   1.895   4.100   7.669
 2158TIP3   OH230452   0.076   4.022   7.927
 2158TIP3    H130453  -0.018   4.039   7.948
 2158TIP3    H230454   0.110   4.104   7.894
 2159TIP3   OH230455   1.538   5.523   8.180
 2159TIP3    H130456   1.597   5.513   8.103
 2159TIP3    H230457   1.579   5.595   8.231
 2160TIP3   OH230458   0.067   3.914   8.823
 2160TIP3    H130459  -0.006   3.886   8.879
 2160TIP3    H230460   0.014   3.976   8.767
 2161TIP3   OH230461   0.266   5.222   9.226
 2161TIP3    H130462   0.185   5.267   9.201
 2161TIP3    H230463   0.256   5.215   9.322
 2162TIP3   OH230464   0.560   5.322   8.852
 2162TIP3    H130465   0.530   5.411   8.826
 2162TIP3    H230466   0.654   5.330   8.825
 2163TIP3   OH230467   0.996   5.464   9.144
 2163TIP3    H130468   1.010   5.429   9.235
 2163TIP3    H230469   1.086   5.495   9.120
 2164TIP3   OH230470   1.224   5.591   9.075
 2164TIP3    H130471   1.297   5.533   9.052
 2164TIP3    H230472   1.261   5.636   9.155
 2165TIP3   OH230473   1.726   3.852   8.987
 2165TIP3    H130474   1.644   3.883   8.945
 2165TIP3    H230475   1.743   3.770   8.935
 2166TIP3   OH230476   0.301   5.638   8.853
 2166TIP3    H130477   0.230   5.695   8.816
 2166TIP3    H230478   0.272   5.635   8.945
 2167TIP3   OH230479   0.555   5.604   8.761
 2167TIP3    H130480   0.466   5.620   8.800
 2167TIP3    H230481   0.549   5.661   8.683
 2168TIP3   OH230482   1.023   5.594   8.678
 2168TIP3    H130483   0.977   5.650   8.613
 2168TIP3    H230484   1.036   5.658   8.752
 2169TIP3   OH230485   1.254   5.473   8.777
 2169TIP3    H130486   1.168   5.503   8.742
 2169TIP3    H230487   1.300   5.558   8.774
 2170TIP3   OH230488   1.510   5.630   8.800
 2170TIP3    H130489   1.506   5.727   8.779
 2170TIP3    H230490   1.532   5.595   8.713
 2171TIP3   OH230491   0.255   5.514   8.543
 2171TIP3    H130492   0.241   5.471   8.630
 2171TIP3    H230493   0.335   5.472   8.506
 2172TIP3   OH230494   0.459   5.379   8.411
 2172TIP3    H130495   0.444   5.286   8.436
 2172TIP3    H230496   0.544   5.398   8.457
 2173TIP3   OH230497   0.720   5.429   8.502
 2173TIP3    H130498   0.735   5.337   8.475
 2173TIP3    H230499   0.726   5.424   8.598
 2174TIP3   OH230500   1.065   3.996   8.414
 2174TIP3    H130501   0.997   3.934   8.444
 2174TIP3    H230502   1.120   3.943   8.356
 2175TIP3   OH230503   1.578   3.796   8.415
 2175TIP3    H130504   1.641   3.859   8.371
 2175TIP3    H230505   1.491   3.838   8.398
 2176TIP3   OH230506   1.747   3.926   8.249
 2176TIP3    H130507   1.814   3.868   8.207
 2176TIP3    H230508   1.798   4.010   8.259
 2177TIP3   OH230509   0.306   3.858   8.198
 2177TIP3    H130510   0.225   3.837   8.146
 2177TIP3    H230511   0.351   3.771   8.192
 2178TIP3   OH230512   0.182   3.830   7.774
 2178TIP3    H130513   0.228   3.895   7.718
 2178TIP3    H230514   0.126   3.886   7.831
 2179TIP3   OH230515   0.752   3.840   8.177
 2179TIP3    H130516   0.836   3.889   8.168
 2179TIP3    H230517   0.744   3.831   8.272
 2180TIP3   OH230518   1.321   3.853   8.338
 2180TIP3    H130519   1.317   3.867   8.242
 2180TIP3    H230520   1.286   3.763   8.356
 2181TIP3   OH230521   1.444   3.855   7.909
 2181TIP3    H130522   1.371   3.916   7.891
 2181TIP3    H230523   1.400   3.769   7.929
 2182TIP3   OH230524   0.163   5.434   7.876
 2182TIP3    H130525   0.111   5.436   7.795
 2182TIP3    H230526   0.174   5.529   7.887
 2183TIP3   OH230527   0.360   4.027   7.630
 2183TIP3    H130528   0.409   3.971   7.568
 2183TIP3    H230529   0.435   4.057   7.684
 2184TIP3   OH230530   0.857   4.052   7.863
 2184TIP3    H130531   0.889   3.996   7.934
 2184TIP3    H230532   0.873   4.138   7.906
 2185TIP3   OH230533   1.057   5.568   7.703
 2185TIP3    H130534   1.151   5.585   7.687
 2185TIP3    H230535   1.038   5.507   7.628
 2186TIP3   OH230536   1.725   5.505   7.971
 2186TIP3    H130537   1.702   5.432   7.912
 2186TIP3    H230538   1.714   5.581   7.911
 2187TIP3   OH230539   0.290   3.913   9.148
 2187TIP3    H130540   0.249   3.832   9.183
 2187TIP3    H230541   0.381   3.906   9.185
 2188TIP3   OH230542   0.494   3.847   9.304
 2188TIP3    H130543   0.584   3.813   9.291
 2188TIP3    H230544   0.452   3.772   9.350
 2189TIP3   OH230545   1.331   3.778   9.324
 2189TIP3    H130546   1.341   3.731   9.409
 2189TIP3    H230547   1.422   3.775   9.290
 2190TIP3   OH230548   1.652   5.384   9.186
 2190TIP3    H130549   1.572   5.371   9.131
 2190TIP3    H230550   1.640   5.479   9.208
 2191TIP3   OH230551   3.097   4.773   8.185
 2191TIP3    H130552   3.094   4.870   8.180
 2191TIP3    H230553   3.024   4.749   8.126
 2192TIP3   OH230554   2.982   4.696   8.535
 2192TIP3    H130555   2.980   4.632   8.607
 2192TIP3    H230556   2.946   4.645   8.460
 2193TIP3   OH230557   2.217   4.665   8.690
 2193TIP3    H130558   2.225   4.596   8.758
 2193TIP3    H230559   2.292   4.722   8.712
 2194TIP3   OH230560   3.349   4.992   8.363
 2194TIP3    H130561   3.309   4.920   8.413
 2194TIP3    H230562   3.353   5.062   8.430
 2195TIP3   OH230563   2.309   5.110   8.539
 2195TIP3    H130564   2.279   5.022   8.508
 2195TIP3    H230565   2.405   5.092   8.543
 2196TIP3   OH230566   1.975   4.465   8.084
 2196TIP3    H130567   1.929   4.551   8.084
 2196TIP3    H230568   1.917   4.410   8.030
 2197TIP3   OH230569   2.045   4.688   8.304
 2197TIP3    H130570   2.074   4.605   8.348
 2197TIP3    H230571   2.114   4.699   8.236
 2198TIP3   OH230572   3.062   5.509   8.387
 2198TIP3    H130573   3.127   5.440   8.357
 2198TIP3    H230574   3.040   5.473   8.473
 2199TIP3   OH230575   2.819   4.936   8.583
 2199TIP3    H130576   2.853   4.874   8.516
 2199TIP3    H230577   2.901   4.952   8.633
 2200TIP3   OH230578   3.678   4.104   8.650
 2200TIP3    H130579   3.695   4.158   8.731
 2200TIP3    H230580   3.739   4.152   8.592
 2201TIP3   OH230581   3.136   4.383   8.614
 2201TIP3    H130582   3.154   4.287   8.614
 2201TIP3    H230583   3.126   4.397   8.518
 2202TIP3   OH230584   2.446   4.193   8.334
 2202TIP3    H130585   2.459   4.276   8.284
 2202TIP3    H230586   2.408   4.135   8.264
 2203TIP3   OH230587   3.223   4.200   8.174
 2203TIP3    H130588   3.290   4.170   8.238
 2203TIP3    H230589   3.277   4.257   8.115
 2204TIP3   OH230590   2.110   4.434   8.408
 2204TIP3    H130591   2.176   4.380   8.454
 2204TIP3    H230592   2.121   4.402   8.317
 2205TIP3   OH230593   2.625   4.590   8.342
 2205TIP3    H130594   2.693   4.531   8.380
 2205TIP3    H230595   2.575   4.524   8.289
 2206TIP3   OH230596   3.721   4.243   8.882
 2206TIP3    H130597   3.663   4.321   8.871
 2206TIP3    H230598   3.726   4.237   8.978
 2207TIP3   OH230599   2.339   4.083   8.738
 2207TIP3    H130600   2.311   4.140   8.664
 2207TIP3    H230601   2.272   4.105   8.807
 2208TIP3   OH230602   3.064   5.031   8.093
 2208TIP3    H130603   3.039   5.006   8.002
 2208TIP3    H230604   3.037   5.125   8.097
 2209TIP3   OH230605   2.589   4.848   8.761
 2209TIP3    H130606   2.519   4.912   8.785
 2209TIP3    H230607   2.660   4.907   8.732
 2210TIP3   OH230608   3.414   4.127   8.369
 2210TIP3    H130609   3.372   4.061   8.425
 2210TIP3    H230610   3.461   4.183   8.433
 2211TIP3   OH230611   2.296   4.268   8.543
 2211TIP3    H130612   2.359   4.337   8.574
 2211TIP3    H230613   2.347   4.228   8.468
 2212TIP3   OH230614   2.435   5.048   8.844
 2212TIP3    H130615   2.429   5.140   8.811
 2212TIP3    H230616   2.347   5.040   8.889
 2213TIP3   OH230617   2.039   5.007   7.920
 2213TIP3    H130618   2.013   5.044   7.834
 2213TIP3    H230619   2.050   5.088   7.975
 2214TIP3   OH230620   3.403   5.176   8.600
 2214TIP3    H130621   3.306   5.187   8.612
 2214TIP3    H230622   3.430   5.267   8.579
 2215TIP3   OH230623   3.434   4.002   8.734
 2215TIP3    H130624   3.362   4.067   8.732
 2215TIP3    H230625   3.507   4.049   8.690
 2216TIP3   OH230626   2.731   3.816   8.485
 2216TIP3    H130627   2.716   3.720   8.477
 2216TIP3    H230628   2.643   3.847   8.516
 2217TIP3   OH230629   3.230   5.354   8.260
 2217TIP3    H130630   3.271   5.282   8.208
 2217TIP3    H230631   3.273   5.432   8.220
 2218TIP3   OH230632   3.353   5.147   8.109
 2218TIP3    H130633   3.320   5.077   8.050
 2218TIP3    H230634   3.354   5.098   8.194
 2219TIP3   OH230635   3.511   5.007   8.960
 2219TIP3    H130636   3.526   4.941   8.889
 2219TIP3    H230637   3.533   5.091   8.914
 2220TIP3   OH230638   2.961   4.699   7.937
 2220TIP3    H130639   2.893   4.755   7.896
 2220TIP3    H230640   3.033   4.701   7.870
 2221TIP3   OH230641   3.701   4.638   8.763
 2221TIP3    H130642   3.636   4.711   8.767
 2221TIP3    H230643   3.751   4.662   8.683
 2222TIP3   OH230644   3.307   4.717   8.031
 2222TIP3    H130645   3.232   4.740   8.091
 2222TIP3    H230646   3.356   4.650   8.083
 2223TIP3   OH230647   3.300   4.533   8.941
 2223TIP3    H130648   3.300   4.615   8.993
 2223TIP3    H230649   3.237   4.561   8.872
 2224TIP3   OH230650   2.467   4.781   8.219
 2224TIP3    H130651   2.437   4.742   8.134
 2224TIP3    H230652   2.530   4.713   8.253
 2225TIP3   OH230653   2.598   5.119   8.488
 2225TIP3    H130654   2.600   5.069   8.406
 2225TIP3    H230655   2.678   5.085   8.533
 2226TIP3   OH230656   2.500   4.657   8.587
 2226TIP3    H130657   2.555   4.666   8.506
 2226TIP3    H230658   2.541   4.723   8.647
 2227TIP3   OH230659   3.145   5.214   8.658
 2227TIP3    H130660   3.115   5.278   8.724
 2227TIP3    H230661   3.118   5.129   8.699
 2228TIP3   OH230662   2.595   5.098   9.057
 2228TIP3    H130663   2.554   5.173   9.105
 2228TIP3    H230664   2.530   5.079   8.986
 2229TIP3   OH230665   3.189   4.646   7.797
 2229TIP3    H130666   3.249   4.654   7.875
 2229TIP3    H230667   3.236   4.686   7.724
 2230TIP3   OH230668   2.291   4.716   8.970
 2230TIP3    H130669   2.297   4.782   9.041
 2230TIP3    H230670   2.196   4.724   8.950
 2231TIP3   OH230671   2.968   5.309   8.140
 2231TIP3    H130672   3.010   5.340   8.222
 2231TIP3    H230673   2.910   5.383   8.119
 2232TIP3   OH230674   2.422   5.303   9.130
 2232TIP3    H130675   2.414   5.294   9.034
 2232TIP3    H230676   2.329   5.289   9.158
 2233TIP3   OH230677   2.366   4.683   7.976
 2233TIP3    H130678   2.333   4.765   7.938
 2233TIP3    H230679   2.297   4.617   7.962
 2234TIP3   OH230680   1.973   4.927   8.873
 2234TIP3    H130681   1.930   4.919   8.786
 2234TIP3    H230682   1.983   4.833   8.894
 2235TIP3   OH230683   1.948   5.205   8.545
 2235TIP3    H130684   2.044   5.188   8.548
 2235TIP3    H230685   1.943   5.283   8.601
 2236TIP3   OH230686   3.774   5.271   9.119
 2236TIP3    H130687   3.762   5.176   9.115
 2236TIP3    H230688   3.686   5.297   9.156
 2237TIP3   OH230689   2.869   5.225   9.004
 2237TIP3    H130690   2.874   5.310   9.054
 2237TIP3    H230691   2.781   5.190   9.028
 2238TIP3   OH230692   2.907   5.598   7.981
 2238TIP3    H130693   2.912   5.593   7.884
 2238TIP3    H230694   2.918   5.693   8.002
 2239TIP3   OH230695   2.279   5.484   8.166
 2239TIP3    H130696   2.294   5.449   8.256
 2239TIP3    H230697   2.193   5.445   8.145
 2240TIP3   OH230698   3.185   5.522   7.970
 2240TIP3    H130699   3.088   5.518   7.980
 2240TIP3    H230700   3.212   5.439   8.012
 2241TIP3   OH230701   3.489   4.417   9.164
 2241TIP3    H130702   3.440   4.462   9.093
 2241TIP3    H230703   3.486   4.325   9.135
 2242TIP3   OH230704   2.203   5.058   8.966
 2242TIP3    H130705   2.225   5.022   9.055
 2242TIP3    H230706   2.116   5.019   8.945
 2243TIP3   OH230707   2.471   3.907   8.560
 2243TIP3    H130708   2.381   3.893   8.523
 2243TIP3    H230709   2.457   3.989   8.609
 2244TIP3   OH230710   2.936   3.872   8.895
 2244TIP3    H130711   2.975   3.830   8.974
 2244TIP3    H230712   2.838   3.862   8.910
 2245TIP3   OH230713   3.263   4.258   8.985
 2245TIP3    H130714   3.207   4.236   9.064
 2245TIP3    H230715   3.245   4.352   8.965
 2246TIP3   OH230716   2.481   4.405   8.688
 2246TIP3    H130717   2.407   4.404   8.750
 2246TIP3    H230718   2.476   4.495   8.648
 2247TIP3   OH230719   2.477   4.413   8.172
 2247TIP3    H130720   2.382   4.390   8.159
 2247TIP3    H230721   2.514   4.385   8.086
 2248TIP3   OH230722   3.026   4.464   8.047
 2248TIP3    H130723   2.991   4.549   8.012
 2248TIP3    H230724   3.099   4.446   7.984
 2249TIP3   OH230725   2.934   4.487   9.192
 2249TIP3    H130726   2.882   4.409   9.223
 2249TIP3    H230727   3.018   4.476   9.240
 2250TIP3   OH230728   3.133   4.415   8.333
 2250TIP3    H130729   3.104   4.471   8.259
 2250TIP3    H230730   3.142   4.330   8.287
 2251TIP3   OH230731   2.243   4.428   8.853
 2251TIP3    H130732   2.253   4.469   8.940
 2251TIP3    H230733   2.199   4.344   8.875
 2252TIP3   OH230734   2.582   4.172   7.547
 2252TIP3    H130735   2.528   4.121   7.610
 2252TIP3    H230736   2.512   4.206   7.488
 2253TIP3   OH230737   1.910   4.138   8.253
 2253TIP3    H130738   1.979   4.134   8.322
 2253TIP3    H230739   1.954   4.102   8.174
 2254TIP3   OH230740   2.039   4.217   7.794
 2254TIP3    H130741   2.089   4.274   7.732
 2254TIP3    H230742   1.968   4.278   7.820
 2255TIP3   OH230743   3.051   4.573   8.788
 2255TIP3    H130744   3.090   4.504   8.730
 2255TIP3    H230745   3.004   4.520   8.855
 2256TIP3   OH230746   2.731   4.173   8.275
 2256TIP3    H130747   2.637   4.171   8.304
 2256TIP3    H230748   2.780   4.153   8.356
 2257TIP3   OH230749   2.212   4.326   8.161
 2257TIP3    H130750   2.125   4.341   8.119
 2257TIP3    H230751   2.242   4.243   8.119
 2258TIP3   OH230752   2.575   4.332   7.924
 2258TIP3    H130753   2.671   4.340   7.940
 2258TIP3    H230754   2.554   4.396   7.854
 2259TIP3   OH230755   3.173   4.097   8.595
 2259TIP3    H130756   3.106   4.099   8.667
 2259TIP3    H230757   3.120   4.068   8.519
 2260TIP3   OH230758   2.447   4.455   7.680
 2260TIP3    H130759   2.391   4.409   7.613
 2260TIP3    H230760   2.528   4.465   7.629
 2261TIP3   OH230761   3.492   5.658   9.229
 2261TIP3    H130762   3.519   5.696   9.144
 2261TIP3    H230763   3.565   5.690   9.285
 2262TIP3   OH230764   2.260   4.905   9.187
 2262TIP3    H130765   2.333   4.930   9.247
 2262TIP3    H230766   2.183   4.912   9.248
 2263TIP3   OH230767   2.860   4.447   8.462
 2263TIP3    H130768   2.920   4.394   8.409
 2263TIP3    H230769   2.845   4.392   8.540
 2264TIP3   OH230770   2.361   4.061   8.107
 2264TIP3    H130771   2.330   3.968   8.105
 2264TIP3    H230772   2.439   4.054   8.051
 2265TIP3   OH230773   2.724   4.278   8.703
 2265TIP3    H130774   2.642   4.331   8.712
 2265TIP3    H230775   2.780   4.315   8.775
 2266TIP3   OH230776   2.781   4.901   7.875
 2266TIP3    H130777   2.703   4.853   7.840
 2266TIP3    H230778   2.760   4.916   7.969
 2267TIP3   OH230779   3.503   4.823   8.754
 2267TIP3    H130780   3.558   4.871   8.689
 2267TIP3    H230781   3.417   4.826   8.708
 2268TIP3   OH230782   2.933   4.930   8.998
 2268TIP3    H130783   2.898   4.886   9.076
 2268TIP3    H230784   2.906   5.021   9.010
 2269TIP3   OH230785   3.239   4.375   7.864
 2269TIP3    H130786   3.332   4.361   7.890
 2269TIP3    H230787   3.244   4.445   7.797
 2270TIP3   OH230788   2.295   4.842   8.453
 2270TIP3    H130789   2.361   4.833   8.382
 2270TIP3    H230790   2.301   4.757   8.499
 2271TIP3   OH230791   2.999   5.046   7.792
 2271TIP3    H130792   2.958   5.133   7.809
 2271TIP3    H230793   2.922   4.988   7.796
 2272TIP3   OH230794   1.993   4.681   8.979
 2272TIP3    H130795   2.009   4.636   9.065
 2272TIP3    H230796   1.931   4.621   8.935
 2273TIP3   OH230797   2.695   4.638   9.196
 2273TIP3    H130798   2.662   4.605   9.111
 2273TIP3    H230799   2.786   4.604   9.196
 2274TIP3   OH230800   3.164   5.171   8.993
 2274TIP3    H130801   3.071   5.189   8.969
 2274TIP3    H230802   3.160   5.201   9.086
 2275TIP3   OH230803   3.729   4.975   9.111
 2275TIP3    H130804   3.639   4.997   9.075
 2275TIP3    H230805   3.783   4.969   9.029
 2276TIP3   OH230806   3.569   5.267   7.872
 2276TIP3    H130807   3.518   5.192   7.907
 2276TIP3    H230808   3.578   5.247   7.779
 2277TIP3   OH230809   3.280   4.754   8.582
 2277TIP3    H130810   3.186   4.733   8.570
 2277TIP3    H230811   3.323   4.678   8.537
 2278TIP3   OH230812   2.530   5.186   8.193
 2278TIP3    H130813   2.580   5.266   8.171
 2278TIP3    H230814   2.443   5.209   8.158
 2279TIP3   OH230815   2.106   4.673   7.648
 2279TIP3    H130816   2.157   4.734   7.698
 2279TIP3    H230817   2.015   4.695   7.678
 2280TIP3   OH230818   2.672   4.953   8.143
 2280TIP3    H130819   2.640   5.044   8.151
 2280TIP3    H230820   2.602   4.903   8.189
 2281TIP3   OH230821   2.717   5.373   8.785
 2281TIP3    H130822   2.764   5.452   8.755
 2281TIP3    H230823   2.779   5.338   8.851
 2282TIP3   OH230824   2.540   5.452   8.096
 2282TIP3    H130825   2.444   5.463   8.114
 2282TIP3    H230826   2.576   5.535   8.133
 2283TIP3   OH230827   3.068   4.970   8.746
 2283TIP3    H130828   3.038   4.952   8.837
 2283TIP3    H230829   3.134   4.900   8.729
 2284TIP3   OH230830   3.303   5.072   7.657
 2284TIP3    H130831   3.327   5.028   7.740
 2284TIP3    H230832   3.206   5.067   7.662
 2285TIP3   OH230833   3.353   5.429   8.995
 2285TIP3    H130834   3.283   5.380   8.948
 2285TIP3    H230835   3.370   5.499   8.928
 2286TIP3   OH230836   2.158   4.155   8.934
 2286TIP3    H130837   2.068   4.190   8.933
 2286TIP3    H230838   2.147   4.070   8.981
 2287TIP3   OH230839   3.383   4.940   7.888
 2287TIP3    H130840   3.359   4.858   7.936
 2287TIP3    H230841   3.480   4.941   7.900
 2288TIP3   OH230842   2.118   5.330   8.778
 2288TIP3    H130843   2.153   5.240   8.778
 2288TIP3    H230844   2.148   5.364   8.863
 2289TIP3   OH230845   2.584   5.141   7.750
 2289TIP3    H130846   2.626   5.088   7.820
 2289TIP3    H230847   2.606   5.231   7.782
 2290TIP3   OH230848   3.032   4.132   8.832
 2290TIP3    H130849   3.104   4.139   8.896
 2290TIP3    H230850   2.993   4.045   8.853
 2291TIP3   OH230851   3.112   4.089   7.933
 2291TIP3    H130852   3.133   4.147   7.859
 2291TIP3    H230853   3.166   4.130   8.002
 2292TIP3   OH230854   2.871   5.301   7.814
 2292TIP3    H130855   2.795   5.359   7.832
 2292TIP3    H230856   2.933   5.355   7.763
 2293TIP3   OH230857   2.826   4.264   8.022
 2293TIP3    H130858   2.905   4.322   8.024
 2293TIP3    H230859   2.802   4.251   8.116
 2294TIP3   OH230860   2.885   4.367   8.941
 2294TIP3    H130861   2.892   4.422   9.021
 2294TIP3    H230862   2.951   4.297   8.950
 2295TIP3   OH230863   2.910   3.971   8.105
 2295TIP3    H130864   2.881   4.032   8.175
 2295TIP3    H230865   2.983   4.026   8.066
 2296TIP3   OH230866   2.609   5.413   7.818
 2296TIP3    H130867   2.633   5.495   7.777
 2296TIP3    H230868   2.587   5.437   7.912
 2297TIP3   OH230869   2.482   4.082   7.782
 2297TIP3    H130870   2.472   4.172   7.818
 2297TIP3    H230871   2.571   4.057   7.811
 2298TIP3   OH230872   3.501   4.153   9.026
 2298TIP3    H130873   3.409   4.186   9.012
 2298TIP3    H230874   3.532   4.152   8.934
 2299TIP3   OH230875   3.362   4.533   8.429
 2299TIP3    H130876   3.281   4.487   8.398
 2299TIP3    H230877   3.411   4.464   8.477
 2300TIP3   OH230878   2.305   5.125   7.684
 2300TIP3    H130879   2.364   5.190   7.724
 2300TIP3    H230880   2.359   5.097   7.611
 2301TIP3   OH230881   2.140   4.388   7.609
 2301TIP3    H130882   2.138   4.484   7.614
 2301TIP3    H230883   2.058   4.366   7.561
 2302TIP3   OH230884   3.470   5.460   8.593
 2302TIP3    H130885   3.462   5.527   8.522
 2302TIP3    H230886   3.566   5.464   8.610
 2303TIP3   OH230887   2.219   3.870   8.474
 2303TIP3    H130888   2.200   3.872   8.378
 2303TIP3    H230889   2.178   3.785   8.499
 2304TIP3   OH230890   2.110   5.267   8.089
 2304TIP3    H130891   2.025   5.310   8.083
 2304TIP3    H230892   2.160   5.309   8.018
 2305TIP3   OH230893   2.034   5.528   9.216
 2305TIP3    H130894   2.095   5.509   9.290
 2305TIP3    H230895   1.995   5.441   9.198
 2306TIP3   OH230896   2.503   5.419   9.377
 2306TIP3    H130897   2.579   5.369   9.410
 2306TIP3    H230898   2.500   5.391   9.283
 2307TIP3   OH230899   3.152   5.258   9.252
 2307TIP3    H130900   3.121   5.170   9.280
 2307TIP3    H230901   3.230   5.270   9.311
 2308TIP3   OH230902   2.024   4.905   9.316
 2308TIP3    H130903   2.041   4.813   9.286
 2308TIP3    H230904   1.951   4.930   9.258
 2309TIP3   OH230905   2.697   4.904   9.254
 2309TIP3    H130906   2.664   4.936   9.168
 2309TIP3    H230907   2.703   4.806   9.243
 2310TIP3   OH230908   3.266   4.889   8.994
 2310TIP3    H130909   3.346   4.947   8.989
 2310TIP3    H230910   3.197   4.957   8.997
 2311TIP3   OH230911   2.118   4.628   9.254
 2311TIP3    H130912   2.160   4.541   9.245
 2311TIP3    H230913   2.095   4.629   9.348
 2312TIP3   OH230914   2.577   4.741   7.757
 2312TIP3    H130915   2.536   4.686   7.825
 2312TIP3    H230916   2.612   4.674   7.695
 2313TIP3   OH230917   2.507   4.521   8.989
 2313TIP3    H130918   2.448   4.594   9.014
 2313TIP3    H230919   2.548   4.559   8.909
 2314TIP3   OH230920   3.016   4.779   9.324
 2314TIP3    H130921   3.111   4.777   9.309
 2314TIP3    H230922   2.998   4.702   9.380
 2315TIP3   OH230923   3.612   4.793   7.523
 2315TIP3    H130924   3.605   4.753   7.436
 2315TIP3    H230925   3.633   4.885   7.503
 2316TIP3   OH230926   2.549   4.259   9.094
 2316TIP3    H130927   2.560   4.189   9.027
 2316TIP3    H230928   2.544   4.341   9.040
 2317TIP3   OH230929   2.589   4.098   8.851
 2317TIP3    H130930   2.640   4.144   8.780
 2317TIP3    H230931   2.500   4.090   8.811
 2318TIP3   OH230932   2.742   4.648   8.875
 2318TIP3    H130933   2.818   4.631   8.818
 2318TIP3    H230934   2.706   4.731   8.840
 2319TIP3   OH230935   3.182   4.421   9.370
 2319TIP3    H130936   3.206   4.328   9.361
 2319TIP3    H230937   3.268   4.466   9.374
 2320TIP3   OH230938   3.317   4.702   9.188
 2320TIP3    H130939   3.291   4.773   9.126
 2320TIP3    H230940   3.413   4.698   9.169
 2321TIP3   OH230941   2.395   4.385   9.287
 2321TIP3    H130942   2.318   4.327   9.270
 2321TIP3    H230943   2.460   4.348   9.224
 2322TIP3   OH230944   2.668   3.841   8.888
 2322TIP3    H130945   2.648   3.938   8.879
 2322TIP3    H230946   2.593   3.804   8.838
 2323TIP3   OH230947   2.795   4.274   9.253
 2323TIP3    H130948   2.762   4.251   9.342
 2323TIP3    H230949   2.717   4.254   9.198
 2324TIP3   OH230950   3.067   4.189   9.163
 2324TIP3    H130951   2.971   4.195   9.173
 2324TIP3    H230952   3.093   4.125   9.232
 2325TIP3   OH230953   3.224   4.051   9.350
 2325TIP3    H130954   3.221   3.953   9.354
 2325TIP3    H230955   3.201   4.080   9.440
 2326TIP3   OH230956   2.202   4.179   9.263
 2326TIP3    H130957   2.226   4.105   9.205
 2326TIP3    H230958   2.192   4.135   9.350
 2327TIP3   OH230959   2.689   3.782   9.159
 2327TIP3    H130960   2.757   3.711   9.158
 2327TIP3    H230961   2.677   3.794   9.063
 2328TIP3   OH230962   2.725   3.942   9.372
 2328TIP3    H130963   2.708   3.891   9.289
 2328TIP3    H230964   2.666   4.019   9.362
 2329TIP3   OH230965   2.032   5.082   7.640
 2329TIP3    H130966   2.125   5.106   7.655
 2329TIP3    H230967   2.030   5.032   7.558
 2330TIP3   OH230968   1.902   5.628   8.131
 2330TIP3    H130969   1.832   5.579   8.084
 2330TIP3    H230970   1.935   5.565   8.198
 2331TIP3   OH230971   1.982   5.443   8.320
 2331TIP3    H130972   1.957   5.352   8.343
 2331TIP3    H230973   2.014   5.476   8.407
 2332TIP3   OH230974   3.742   5.523   8.612
 2332TIP3    H130975   3.745   5.538   8.708
 2332TIP3    H230976   3.812   5.582   8.582
 2333TIP3   OH230977   3.699   5.482   8.907
 2333TIP3    H130978   3.652   5.405   8.868
 2333TIP3    H230979   3.746   5.437   8.978
 2334TIP3   OH230980   3.543   5.054   9.375
 2334TIP3    H130981   3.453   5.052   9.410
 2334TIP3    H230982   3.581   5.135   9.415
 2335TIP3   OH230983   3.676   4.883   7.917
 2335TIP3    H130984   3.762   4.925   7.938
 2335TIP3    H230985   3.675   4.813   7.985
 2336TIP3   OH230986   3.711   4.695   8.106
 2336TIP3    H130987   3.637   4.643   8.143
 2336TIP3    H230988   3.772   4.705   8.182
 2337TIP3   OH230989   3.687   4.964   8.605
 2337TIP3    H130990   3.767   4.926   8.566
 2337TIP3    H230991   3.701   5.059   8.588
 2338TIP3   OH230992   3.543   5.255   8.831
 2338TIP3    H130993   3.474   5.290   8.890
 2338TIP3    H230994   3.488   5.215   8.760
 2339TIP3   OH230995   3.748   4.685   7.742
 2339TIP3    H130996   3.685   4.712   7.672
 2339TIP3    H230997   3.728   4.748   7.813
 2340TIP3   OH230998   3.490   4.548   8.164
 2340TIP3    H130999   3.477   4.452   8.155
 2340TIP3    H231000   3.459   4.564   8.255
 2341TIP3   OH231001   1.994   4.751   8.569
 2341TIP3    H131002   2.011   4.743   8.473
 2341TIP3    H231003   2.083   4.732   8.604
 2342TIP3   OH231004   3.580   4.739   9.133
 2342TIP3    H131005   3.641   4.663   9.145
 2342TIP3    H231006   3.640   4.816   9.133
 2343TIP3   OH231007   3.729   4.526   9.197
 2343TIP3    H131008   3.641   4.487   9.182
 2343TIP3    H231009   3.786   4.448   9.190
 2344TIP3   OH231010   3.462   4.302   8.015
 2344TIP3    H131011   3.487   4.207   8.014
 2344TIP3    H231012   3.540   4.335   7.967
 2345TIP3   OH231013   3.526   4.349   8.552
 2345TIP3    H131014   3.619   4.380   8.552
 2345TIP3    H231015   3.504   4.367   8.645
 2346TIP3   OH231016   3.530   4.427   8.831
 2346TIP3    H131017   3.442   4.456   8.862
 2346TIP3    H231018   3.574   4.513   8.809
 2347TIP3   OH231019   1.956   4.282   9.186
 2347TIP3    H131020   2.050   4.259   9.204
 2347TIP3    H231021   1.910   4.199   9.211
 2348TIP3   OH231022   3.758   3.834   9.364
 2348TIP3    H131023   3.793   3.768   9.303
 2348TIP3    H231024   3.767   3.915   9.310
 2349TIP3   OH231025   3.515   4.033   8.022
 2349TIP3    H131026   3.540   3.977   8.095
 2349TIP3    H231027   3.467   3.969   7.963
 2350TIP3   OH231028   2.076   4.110   8.470
 2350TIP3    H131029   2.121   4.027   8.494
 2350TIP3    H231030   2.132   4.179   8.508
 2351TIP3   OH231031   1.904   4.411   8.573
 2351TIP3    H131032   1.960   4.385   8.497
 2351TIP3    H231033   1.952   4.491   8.600
 2352TIP3   OH231034   3.710   4.044   9.200
 2352TIP3    H131035   3.616   4.071   9.195
 2352TIP3    H231036   3.712   3.988   9.121
 2353TIP3   OH231037   1.939   4.041   7.984
 2353TIP3    H131038   1.845   4.054   7.966
 2353TIP3    H231039   1.981   4.080   7.906
 2354TIP3   OH231040   3.414   5.531   8.174
 2354TIP3    H131041   3.482   5.501   8.113
 2354TIP3    H231042   3.465   5.581   8.239
 2355TIP3   OH231043   1.935   3.901   8.809
 2355TIP3    H131044   1.868   3.882   8.877
 2355TIP3    H231045   1.889   3.968   8.755
 2356TIP3   OH231046   2.160   5.220   9.225
 2356TIP3    H131047   2.076   5.243   9.182
 2356TIP3    H231048   2.133   5.213   9.317
 2357TIP3   OH231049   2.448   5.323   8.853
 2357TIP3    H131050   2.418   5.411   8.827
 2357TIP3    H231051   2.541   5.331   8.823
 2358TIP3   OH231052   2.882   5.464   9.144
 2358TIP3    H131053   2.895   5.429   9.235
 2358TIP3    H231054   2.972   5.495   9.121
 2359TIP3   OH231055   3.109   5.591   9.075
 2359TIP3    H131056   3.183   5.534   9.052
 2359TIP3    H231057   3.146   5.635   9.155
 2360TIP3   OH231058   3.613   3.853   8.983
 2360TIP3    H131059   3.528   3.881   8.947
 2360TIP3    H231060   3.628   3.768   8.935
 2361TIP3   OH231061   2.189   5.642   8.854
 2361TIP3    H131062   2.120   5.697   8.813
 2361TIP3    H231063   2.159   5.628   8.944
 2362TIP3   OH231064   2.433   5.587   8.772
 2362TIP3    H131065   2.345   5.620   8.802
 2362TIP3    H231066   2.441   5.649   8.694
 2363TIP3   OH231067   2.909   5.595   8.677
 2363TIP3    H131068   2.861   5.651   8.613
 2363TIP3    H231069   2.923   5.658   8.752
 2364TIP3   OH231070   3.136   5.474   8.782
 2364TIP3    H131071   3.053   5.503   8.743
 2364TIP3    H231072   3.187   5.556   8.772
 2365TIP3   OH231073   3.395   5.631   8.802
 2365TIP3    H131074   3.392   5.727   8.779
 2365TIP3    H231075   3.418   5.594   8.714
 2366TIP3   OH231076   2.134   5.504   8.546
 2366TIP3    H131077   2.130   5.462   8.634
 2366TIP3    H231078   2.220   5.475   8.510
 2367TIP3   OH231079   2.346   5.381   8.411
 2367TIP3    H131080   2.330   5.288   8.437
 2367TIP3    H231081   2.430   5.400   8.458
 2368TIP3   OH231082   2.607   5.427   8.501
 2368TIP3    H131083   2.621   5.335   8.475
 2368TIP3    H231084   2.609   5.420   8.598
 2369TIP3   OH231085   2.949   3.996   8.415
 2369TIP3    H131086   2.882   3.931   8.443
 2369TIP3    H231087   3.005   3.942   8.357
 2370TIP3   OH231088   2.187   3.857   8.202
 2370TIP3    H131089   2.108   3.839   8.148
 2370TIP3    H231090   2.233   3.771   8.192
 2371TIP3   OH231091   2.633   3.849   8.178
 2371TIP3    H131092   2.723   3.885   8.169
 2371TIP3    H231093   2.632   3.827   8.271
 2372TIP3   OH231094   3.206   3.852   8.341
 2372TIP3    H131095   3.201   3.862   8.245
 2372TIP3    H231096   3.170   3.761   8.353
 2373TIP3   OH231097   3.331   3.856   7.918
 2373TIP3    H131098   3.260   3.915   7.891
 2373TIP3    H231099   3.288   3.767   7.928
 2374TIP3   OH231100   2.057   5.434   7.871
 2374TIP3    H131101   1.993   5.425   7.799
 2374TIP3    H231102   2.054   5.528   7.890
 2375TIP3   OH231103   2.749   4.053   7.861
 2375TIP3    H131104   2.774   3.994   7.934
 2375TIP3    H231105   2.761   4.139   7.908
 2376TIP3   OH231106   2.941   5.562   7.702
 2376TIP3    H131107   3.035   5.585   7.691
 2376TIP3    H231108   2.931   5.509   7.622
 2377TIP3   OH231109   3.621   5.512   7.968
 2377TIP3    H131110   3.587   5.432   7.921
 2377TIP3    H231111   3.595   5.587   7.914
 2378TIP3   OH231112   2.176   3.912   9.144
 2378TIP3    H131113   2.136   3.832   9.183
 2378TIP3    H231114   2.266   3.907   9.183
 2379TIP3   OH231115   2.376   3.851   9.310
 2379TIP3    H131116   2.465   3.817   9.288
 2379TIP3    H231117   2.339   3.770   9.349
 2380TIP3   OH231118   2.252   5.532   7.569
 2380TIP3    H131119   2.208   5.556   7.652
 2380TIP3    H231120   2.314   5.464   7.590
 2381TIP3   OH231121   3.216   3.778   9.324
 2381TIP3    H131122   3.226   3.731   9.409
 2381TIP3    H231123   3.308   3.775   9.290
 2382TIP3   OH231124   3.537   5.384   9.186
 2382TIP3    H131125   3.457   5.371   9.131
 2382TIP3    H231126   3.526   5.479   9.208
 2383TIP3   OH231127   4.984   4.773   8.182
 2383TIP3    H131128   4.980   4.871   8.181
 2383TIP3    H231129   4.909   4.749   8.125
 2384TIP3   OH231130   4.868   4.696   8.534
 2384TIP3    H131131   4.866   4.632   8.607
 2384TIP3    H231132   4.831   4.645   8.460
 2385TIP3   OH231133   4.102   4.665   8.690
 2385TIP3    H131134   4.111   4.596   8.758
 2385TIP3    H231135   4.178   4.722   8.713
 2386TIP3   OH231136   5.239   4.988   8.364
 2386TIP3    H131137   5.192   4.921   8.414
 2386TIP3    H231138   5.240   5.061   8.429
 2387TIP3   OH231139   4.195   5.110   8.538
 2387TIP3    H131140   4.165   5.022   8.508
 2387TIP3    H231141   4.290   5.092   8.543
 2388TIP3   OH231142   3.929   4.684   8.303
 2388TIP3    H131143   3.960   4.605   8.349
 2388TIP3    H231144   4.000   4.702   8.239
 2389TIP3   OH231145   4.947   5.508   8.387
 2389TIP3    H131146   5.013   5.440   8.358
 2389TIP3    H231147   4.925   5.473   8.473
 2390TIP3   OH231148   4.705   4.936   8.583
 2390TIP3    H131149   4.738   4.874   8.516
 2390TIP3    H231150   4.787   4.952   8.633
 2391TIP3   OH231151   5.562   4.106   8.652
 2391TIP3    H131152   5.582   4.160   8.732
 2391TIP3    H231153   5.624   4.143   8.588
 2392TIP3   OH231154   5.022   4.384   8.614
 2392TIP3    H131155   5.039   4.288   8.615
 2392TIP3    H231156   5.012   4.397   8.518
 2393TIP3   OH231157   4.332   4.194   8.334
 2393TIP3    H131158   4.349   4.276   8.285
 2393TIP3    H231159   4.299   4.135   8.263
 2394TIP3   OH231160   5.105   4.198   8.172
 2394TIP3    H131161   5.170   4.167   8.239
 2394TIP3    H231162   5.161   4.257   8.119
 2395TIP3   OH231163   3.994   4.437   8.410
 2395TIP3    H131164   4.061   4.384   8.458
 2395TIP3    H231165   4.008   4.403   8.321
 2396TIP3   OH231166   4.510   4.589   8.341
 2396TIP3    H131167   4.579   4.531   8.380
 2396TIP3    H231168   4.460   4.524   8.288
 2397TIP3   OH231169   5.608   4.242   8.882
 2397TIP3    H131170   5.549   4.320   8.870
 2397TIP3    H231171   5.611   4.237   8.978
 2398TIP3   OH231172   4.225   4.083   8.739
 2398TIP3    H131173   4.198   4.142   8.666
 2398TIP3    H231174   4.157   4.105   8.807
 2399TIP3   OH231175   4.952   5.030   8.093
 2399TIP3    H131176   4.922   5.003   8.005
 2399TIP3    H231177   4.923   5.124   8.099
 2400TIP3   OH231178   4.475   4.847   8.762
 2400TIP3    H131179   4.405   4.911   8.785
 2400TIP3    H231180   4.546   4.907   8.733
 2401TIP3   OH231181   5.290   4.138   8.371
 2401TIP3    H131182   5.266   4.060   8.422
 2401TIP3    H231183   5.356   4.178   8.429
 2402TIP3   OH231184   4.179   4.268   8.537
 2402TIP3    H131185   4.242   4.335   8.572
 2402TIP3    H231186   4.235   4.226   8.467
 2403TIP3   OH231187   4.320   5.048   8.844
 2403TIP3    H131188   4.315   5.139   8.811
 2403TIP3    H231189   4.232   5.040   8.888
 2404TIP3   OH231190   3.925   5.008   7.926
 2404TIP3    H131191   3.907   5.039   7.836
 2404TIP3    H231192   3.937   5.090   7.978
 2405TIP3   OH231193   5.289   5.176   8.600
 2405TIP3    H131194   5.192   5.187   8.612
 2405TIP3    H231195   5.315   5.267   8.579
 2406TIP3   OH231196   5.321   4.003   8.739
 2406TIP3    H131197   5.249   4.067   8.728
 2406TIP3    H231198   5.393   4.045   8.687
 2407TIP3   OH231199   4.618   3.816   8.485
 2407TIP3    H131200   4.601   3.720   8.477
 2407TIP3    H231201   4.531   3.848   8.518
 2408TIP3   OH231202   5.116   5.354   8.262
 2408TIP3    H131203   5.157   5.282   8.208
 2408TIP3    H231204   5.160   5.432   8.221
 2409TIP3   OH231205   5.238   5.146   8.110
 2409TIP3    H131206   5.207   5.076   8.050
 2409TIP3    H231207   5.241   5.098   8.194
 2410TIP3   OH231208   5.396   5.007   8.959
 2410TIP3    H131209   5.412   4.941   8.889
 2410TIP3    H231210   5.418   5.091   8.915
 2411TIP3   OH231211   4.849   4.697   7.938
 2411TIP3    H131212   4.777   4.751   7.898
 2411TIP3    H231213   4.918   4.705   7.869
 2412TIP3   OH231214   4.853   4.546   7.644
 2412TIP3    H131215   4.929   4.551   7.703
 2412TIP3    H231216   4.884   4.483   7.577
 2413TIP3   OH231217   5.585   4.636   8.759
 2413TIP3    H131218   5.521   4.711   8.768
 2413TIP3    H231219   5.639   4.665   8.685
 2414TIP3   OH231220   5.196   4.713   8.028
 2414TIP3    H131221   5.120   4.741   8.086
 2414TIP3    H231222   5.238   4.647   8.084
 2415TIP3   OH231223   5.186   4.533   8.941
 2415TIP3    H131224   5.186   4.615   8.993
 2415TIP3    H231225   5.123   4.561   8.872
 2416TIP3   OH231226   4.353   4.782   8.221
 2416TIP3    H131227   4.323   4.746   8.134
 2416TIP3    H231228   4.415   4.713   8.253
 2417TIP3   OH231229   4.485   5.119   8.488
 2417TIP3    H131230   4.485   5.068   8.406
 2417TIP3    H231231   4.564   5.085   8.533
 2418TIP3   OH231232   4.386   4.657   8.587
 2418TIP3    H131233   4.440   4.666   8.506
 2418TIP3    H231234   4.426   4.723   8.647
 2419TIP3   OH231235   5.030   5.215   8.658
 2419TIP3    H131236   4.999   5.279   8.722
 2419TIP3    H231237   5.003   5.130   8.699
 2420TIP3   OH231238   4.482   5.100   9.056
 2420TIP3    H131239   4.439   5.173   9.105
 2420TIP3    H231240   4.415   5.080   8.986
 2421TIP3   OH231241   5.084   4.632   7.796
 2421TIP3    H131242   5.134   4.658   7.877
 2421TIP3    H231243   5.120   4.689   7.726
 2422TIP3   OH231244   4.177   4.716   8.970
 2422TIP3    H131245   4.182   4.782   9.041
 2422TIP3    H231246   4.082   4.724   8.950
 2423TIP3   OH231247   4.853   5.308   8.141
 2423TIP3    H131248   4.895   5.339   8.223
 2423TIP3    H231249   4.796   5.383   8.119
 2424TIP3   OH231250   4.307   5.303   9.130
 2424TIP3    H131251   4.300   5.294   9.034
 2424TIP3    H231252   4.214   5.289   9.158
 2425TIP3   OH231253   5.450   3.807   7.787
 2425TIP3    H131254   5.357   3.825   7.810
 2425TIP3    H231255   5.469   3.890   7.739
 2426TIP3   OH231256   4.251   4.687   7.986
 2426TIP3    H131257   4.223   4.763   7.930
 2426TIP3    H231258   4.188   4.621   7.958
 2427TIP3   OH231259   3.859   4.927   8.873
 2427TIP3    H131260   3.815   4.919   8.786
 2427TIP3    H231261   3.869   4.833   8.894
 2428TIP3   OH231262   3.835   5.202   8.548
 2428TIP3    H131263   3.931   5.190   8.547
 2428TIP3    H231264   3.827   5.283   8.599
 2429TIP3   OH231265   5.659   5.271   9.119
 2429TIP3    H131266   5.647   5.176   9.116
 2429TIP3    H231267   5.572   5.297   9.156
 2430TIP3   OH231268   4.755   5.225   9.004
 2430TIP3    H131269   4.761   5.309   9.055
 2430TIP3    H231270   4.668   5.189   9.029
 2431TIP3   OH231271   4.800   5.600   7.982
 2431TIP3    H131272   4.788   5.598   7.888
 2431TIP3    H231273   4.802   5.695   8.004
 2432TIP3   OH231274   4.163   5.487   8.167
 2432TIP3    H131275   4.179   5.446   8.256
 2432TIP3    H231276   4.078   5.447   8.146
 2433TIP3   OH231277   5.090   5.500   7.689
 2433TIP3    H131278   5.162   5.453   7.643
 2433TIP3    H231279   5.117   5.496   7.782
 2434TIP3   OH231280   5.071   5.517   7.964
 2434TIP3    H131281   4.976   5.522   7.985
 2434TIP3    H231282   5.100   5.441   8.016
 2435TIP3   OH231283   5.374   4.418   9.165
 2435TIP3    H131284   5.326   4.462   9.093
 2435TIP3    H231285   5.372   4.325   9.136
 2436TIP3   OH231286   4.089   5.059   8.966
 2436TIP3    H131287   4.110   5.023   9.054
 2436TIP3    H231288   4.001   5.019   8.944
 2437TIP3   OH231289   4.357   3.907   8.558
 2437TIP3    H131290   4.266   3.893   8.524
 2437TIP3    H231291   4.343   3.988   8.609
 2438TIP3   OH231292   4.821   3.872   8.896
 2438TIP3    H131293   4.860   3.829   8.974
 2438TIP3    H231294   4.724   3.862   8.910
 2439TIP3   OH231295   5.149   4.259   8.987
 2439TIP3    H131296   5.092   4.236   9.064
 2439TIP3    H231297   5.131   4.351   8.964
 2440TIP3   OH231298   4.791   4.128   7.636
 2440TIP3    H131299   4.752   4.121   7.724
 2440TIP3    H231300   4.757   4.045   7.597
 2441TIP3   OH231301   4.367   4.404   8.687
 2441TIP3    H131302   4.292   4.404   8.751
 2441TIP3    H231303   4.362   4.494   8.649
 2442TIP3   OH231304   4.366   4.415   8.173
 2442TIP3    H131305   4.272   4.394   8.158
 2442TIP3    H231306   4.403   4.386   8.087
 2443TIP3   OH231307   4.915   4.465   8.048
 2443TIP3    H131308   4.875   4.548   8.014
 2443TIP3    H231309   4.983   4.447   7.981
 2444TIP3   OH231310   4.819   4.487   9.192
 2444TIP3    H131311   4.768   4.409   9.223
 2444TIP3    H231312   4.903   4.476   9.240
 2445TIP3   OH231313   5.024   4.417   8.334
 2445TIP3    H131314   4.990   4.472   8.261
 2445TIP3    H231315   5.028   4.331   8.288
 2446TIP3   OH231316   4.128   4.427   8.853
 2446TIP3    H131317   4.139   4.469   8.940
 2446TIP3    H231318   4.085   4.344   8.875
 2447TIP3   OH231319   4.937   4.573   8.788
 2447TIP3    H131320   4.976   4.504   8.730
 2447TIP3    H231321   4.890   4.520   8.855
 2448TIP3   OH231322   4.620   4.172   8.272
 2448TIP3    H131323   4.527   4.172   8.301
 2448TIP3    H231324   4.667   4.153   8.354
 2449TIP3   OH231325   4.096   4.328   8.157
 2449TIP3    H131326   4.008   4.334   8.118
 2449TIP3    H231327   4.128   4.243   8.122
 2450TIP3   OH231328   4.460   4.338   7.928
 2450TIP3    H131329   4.557   4.339   7.936
 2450TIP3    H231330   4.439   4.397   7.853
 2451TIP3   OH231331   5.059   4.095   8.596
 2451TIP3    H131332   4.991   4.099   8.667
 2451TIP3    H231333   5.008   4.068   8.519
 2452TIP3   OH231334   4.330   4.451   7.680
 2452TIP3    H131335   4.281   4.411   7.609
 2452TIP3    H231336   4.415   4.471   7.637
 2453TIP3   OH231337   5.378   5.658   9.229
 2453TIP3    H131338   5.405   5.697   9.144
 2453TIP3    H231339   5.450   5.691   9.285
 2454TIP3   OH231340   4.146   4.906   9.187
 2454TIP3    H131341   4.218   4.930   9.247
 2454TIP3    H231342   4.069   4.912   9.247
 2455TIP3   OH231343   4.746   4.447   8.462
 2455TIP3    H131344   4.805   4.393   8.409
 2455TIP3    H231345   4.731   4.392   8.540
 2456TIP3   OH231346   4.242   4.058   8.110
 2456TIP3    H131347   4.219   3.965   8.101
 2456TIP3    H231348   4.320   4.058   8.053
 2457TIP3   OH231349   4.610   4.279   8.703
 2457TIP3    H131350   4.528   4.331   8.712
 2457TIP3    H231351   4.666   4.315   8.775
 2458TIP3   OH231352   4.669   4.900   7.873
 2458TIP3    H131353   4.589   4.855   7.838
 2458TIP3    H231354   4.645   4.916   7.966
 2459TIP3   OH231355   5.391   4.819   8.751
 2459TIP3    H131356   5.444   4.873   8.689
 2459TIP3    H231357   5.302   4.827   8.710
 2460TIP3   OH231358   5.057   4.191   7.692
 2460TIP3    H131359   4.960   4.193   7.673
 2460TIP3    H231360   5.080   4.273   7.736
 2461TIP3   OH231361   4.818   4.930   8.998
 2461TIP3    H131362   4.783   4.886   9.076
 2461TIP3    H231363   4.791   5.022   9.009
 2462TIP3   OH231364   5.127   4.376   7.859
 2462TIP3    H131365   5.216   4.360   7.895
 2462TIP3    H231366   5.134   4.458   7.808
 2463TIP3   OH231367   4.182   4.843   8.454
 2463TIP3    H131368   4.246   4.832   8.381
 2463TIP3    H231369   4.187   4.757   8.500
 2464TIP3   OH231370   4.880   5.052   7.776
 2464TIP3    H131371   4.842   5.132   7.818
 2464TIP3    H231372   4.809   4.987   7.797
 2465TIP3   OH231373   3.879   4.681   8.979
 2465TIP3    H131374   3.895   4.636   9.065
 2465TIP3    H231375   3.816   4.621   8.935
 2466TIP3   OH231376   4.580   4.638   9.196
 2466TIP3    H131377   4.548   4.605   9.111
 2466TIP3    H231378   4.672   4.604   9.196
 2467TIP3   OH231379   5.050   5.171   8.993
 2467TIP3    H131380   4.957   5.189   8.969
 2467TIP3    H231381   5.046   5.201   9.086
 2468TIP3   OH231382   5.616   4.389   7.829
 2468TIP3    H131383   5.556   4.354   7.762
 2468TIP3    H231384   5.621   4.484   7.809
 2469TIP3   OH231385   5.614   4.975   9.111
 2469TIP3    H131386   5.525   4.997   9.075
 2469TIP3    H231387   5.668   4.970   9.030
 2470TIP3   OH231388   5.448   5.273   7.870
 2470TIP3    H131389   5.407   5.192   7.902
 2470TIP3    H231390   5.470   5.255   7.778
 2471TIP3   OH231391   5.166   4.753   8.580
 2471TIP3    H131392   5.071   4.734   8.571
 2471TIP3    H231393   5.207   4.676   8.538
 2472TIP3   OH231394   4.418   5.187   8.192
 2472TIP3    H131395   4.467   5.268   8.171
 2472TIP3    H231396   4.330   5.209   8.159
 2473TIP3   OH231397   4.000   4.669   7.648
 2473TIP3    H131398   4.053   4.741   7.684
 2473TIP3    H231399   3.909   4.696   7.672
 2474TIP3   OH231400   4.558   4.953   8.143
 2474TIP3    H131401   4.526   5.045   8.152
 2474TIP3    H231402   4.487   4.903   8.188
 2475TIP3   OH231403   4.603   5.372   8.786
 2475TIP3    H131404   4.650   5.451   8.756
 2475TIP3    H231405   4.665   5.337   8.852
 2476TIP3   OH231406   4.427   5.453   8.092
 2476TIP3    H131407   4.331   5.464   8.111
 2476TIP3    H231408   4.463   5.535   8.132
 2477TIP3   OH231409   4.954   4.970   8.746
 2477TIP3    H131410   4.924   4.952   8.837
 2477TIP3    H231411   5.019   4.900   8.729
 2478TIP3   OH231412   5.177   5.077   7.653
 2478TIP3    H131413   5.221   5.035   7.730
 2478TIP3    H231414   5.088   5.055   7.677
 2479TIP3   OH231415   5.239   5.429   8.995
 2479TIP3    H131416   5.169   5.380   8.948
 2479TIP3    H231417   5.256   5.499   8.928
 2480TIP3   OH231418   4.044   4.154   8.934
 2480TIP3    H131419   3.954   4.190   8.933
 2480TIP3    H231420   4.033   4.070   8.980
 2481TIP3   OH231421   5.267   4.945   7.885
 2481TIP3    H131422   5.241   4.862   7.930
 2481TIP3    H231423   5.364   4.943   7.896
 2482TIP3   OH231424   4.005   5.332   8.776
 2482TIP3    H131425   4.037   5.241   8.777
 2482TIP3    H231426   4.031   5.362   8.864
 2483TIP3   OH231427   4.482   5.142   7.748
 2483TIP3    H131428   4.504   5.086   7.824
 2483TIP3    H231429   4.487   5.233   7.783
 2484TIP3   OH231430   4.138   4.861   7.807
 2484TIP3    H131431   4.062   4.902   7.852
 2484TIP3    H231432   4.183   4.939   7.768
 2485TIP3   OH231433   4.917   4.132   8.832
 2485TIP3    H131434   4.989   4.138   8.896
 2485TIP3    H231435   4.879   4.045   8.853
 2486TIP3   OH231436   4.989   4.095   7.946
 2486TIP3    H131437   5.012   4.131   7.858
 2486TIP3    H231438   5.053   4.138   8.004
 2487TIP3   OH231439   4.762   5.306   7.814
 2487TIP3    H131440   4.678   5.354   7.830
 2487TIP3    H231441   4.815   5.363   7.761
 2488TIP3   OH231442   4.713   4.264   8.020
 2488TIP3    H131443   4.791   4.323   8.025
 2488TIP3    H231444   4.687   4.250   8.113
 2489TIP3   OH231445   4.770   4.367   8.941
 2489TIP3    H131446   4.777   4.422   9.021
 2489TIP3    H231447   4.837   4.297   8.950
 2490TIP3   OH231448   4.798   3.969   8.109
 2490TIP3    H131449   4.766   4.034   8.174
 2490TIP3    H231450   4.868   4.025   8.064
 2491TIP3   OH231451   4.502   5.414   7.826
 2491TIP3    H131452   4.509   5.492   7.769
 2491TIP3    H231453   4.471   5.446   7.914
 2492TIP3   OH231454   5.388   4.154   9.024
 2492TIP3    H131455   5.295   4.185   9.012
 2492TIP3    H231456   5.418   4.151   8.932
 2493TIP3   OH231457   5.251   4.532   8.424
 2493TIP3    H131458   5.165   4.489   8.400
 2493TIP3    H231459   5.294   4.462   8.479
 2494TIP3   OH231460   4.193   5.120   7.694
 2494TIP3    H131461   4.257   5.189   7.713
 2494TIP3    H231462   4.237   5.082   7.614
 2495TIP3   OH231463   5.355   5.459   8.592
 2495TIP3    H131464   5.347   5.527   8.522
 2495TIP3    H231465   5.452   5.464   8.610
 2496TIP3   OH231466   4.100   3.876   8.468
 2496TIP3    H131467   4.083   3.864   8.374
 2496TIP3    H231468   4.066   3.789   8.502
 2497TIP3   OH231469   3.996   5.260   8.079
 2497TIP3    H131470   3.914   5.310   8.087
 2497TIP3    H231471   4.053   5.310   8.021
 2498TIP3   OH231472   3.919   5.528   9.216
 2498TIP3    H131473   3.980   5.509   9.290
 2498TIP3    H231474   3.881   5.440   9.198
 2499TIP3   OH231475   4.389   5.420   9.376
 2499TIP3    H131476   4.464   5.370   9.410
 2499TIP3    H231477   4.386   5.391   9.283
 2500TIP3   OH231478   5.038   5.258   9.252
 2500TIP3    H131479   5.007   5.170   9.280
 2500TIP3    H231480   5.115   5.270   9.311
 2501TIP3   OH231481   3.910   4.905   9.316
 2501TIP3    H131482   3.927   4.813   9.286
 2501TIP3    H231483   3.837   4.930   9.258
 2502TIP3   OH231484   4.351   4.935   7.522
 2502TIP3    H131485   4.363   4.858   7.579
 2502TIP3    H231486   4.416   4.926   7.453
 2503TIP3   OH231487   4.583   4.904   9.254
 2503TIP3    H131488   4.550   4.936   9.168
 2503TIP3    H231489   4.589   4.806   9.243
 2504TIP3   OH231490   5.152   4.889   8.994
 2504TIP3    H131491   5.232   4.947   8.989
 2504TIP3    H231492   5.083   4.957   8.997
 2505TIP3   OH231493   4.004   4.628   9.254
 2505TIP3    H131494   4.046   4.541   9.245
 2505TIP3    H231495   3.981   4.629   9.348
 2506TIP3   OH231496   4.472   4.743   7.761
 2506TIP3    H131497   4.419   4.691   7.824
 2506TIP3    H231498   4.498   4.674   7.695
 2507TIP3   OH231499   4.393   4.522   8.989
 2507TIP3    H131500   4.335   4.595   9.016
 2507TIP3    H231501   4.433   4.559   8.909
 2508TIP3   OH231502   4.577   4.566   7.581
 2508TIP3    H131503   4.557   4.550   7.488
 2508TIP3    H231504   4.675   4.567   7.587
 2509TIP3   OH231505   4.901   4.779   9.324
 2509TIP3    H131506   4.997   4.777   9.309
 2509TIP3    H231507   4.884   4.702   9.380
 2510TIP3   OH231508   4.434   4.259   9.094
 2510TIP3    H131509   4.446   4.189   9.027
 2510TIP3    H231510   4.429   4.341   9.040
 2511TIP3   OH231511   4.475   4.098   8.850
 2511TIP3    H131512   4.526   4.144   8.779
 2511TIP3    H231513   4.385   4.090   8.810
 2512TIP3   OH231514   4.628   4.648   8.874
 2512TIP3    H131515   4.703   4.631   8.817
 2512TIP3    H231516   4.591   4.731   8.840
 2513TIP3   OH231517   5.067   4.421   9.370
 2513TIP3    H131518   5.091   4.328   9.361
 2513TIP3    H231519   5.154   4.466   9.374
 2514TIP3   OH231520   5.202   4.702   9.188
 2514TIP3    H131521   5.177   4.773   9.126
 2514TIP3    H231522   5.298   4.698   9.169
 2515TIP3   OH231523   4.280   4.385   9.287
 2515TIP3    H131524   4.203   4.327   9.270
 2515TIP3    H231525   4.345   4.348   9.224
 2516TIP3   OH231526   4.554   3.841   8.888
 2516TIP3    H131527   4.535   3.938   8.880
 2516TIP3    H231528   4.479   3.803   8.839
 2517TIP3   OH231529   4.680   4.274   9.253
 2517TIP3    H131530   4.648   4.251   9.342
 2517TIP3    H231531   4.603   4.254   9.198
 2518TIP3   OH231532   4.953   4.189   9.163
 2518TIP3    H131533   4.856   4.195   9.173
 2518TIP3    H231534   4.978   4.125   9.232
 2519TIP3   OH231535   5.110   4.051   9.350
 2519TIP3    H131536   5.106   3.953   9.354
 2519TIP3    H231537   5.087   4.080   9.440
 2520TIP3   OH231538   4.088   4.179   9.263
 2520TIP3    H131539   4.112   4.105   9.205
 2520TIP3    H231540   4.078   4.135   9.350
 2521TIP3   OH231541   4.575   3.782   9.159
 2521TIP3    H131542   4.642   3.711   9.158
 2521TIP3    H231543   4.563   3.794   9.063
 2522TIP3   OH231544   4.611   3.942   9.372
 2522TIP3    H131545   4.593   3.891   9.289
 2522TIP3    H231546   4.551   4.019   9.362
 2523TIP3   OH231547   3.793   5.630   8.129
 2523TIP3    H131548   3.718   5.581   8.087
 2523TIP3    H231549   3.818   5.567   8.200
 2524TIP3   OH231550   3.874   5.443   8.319
 2524TIP3    H131551   3.837   5.356   8.340
 2524TIP3    H231552   3.896   5.477   8.408
 2525TIP3   OH231553   5.628   5.523   8.612
 2525TIP3    H131554   5.631   5.538   8.708
 2525TIP3    H231555   5.698   5.581   8.582
 2526TIP3   OH231556   5.585   5.481   8.905
 2526TIP3    H131557   5.537   5.404   8.868
 2526TIP3    H231558   5.632   5.437   8.978
 2527TIP3   OH231559   5.429   5.054   9.375
 2527TIP3    H131560   5.338   5.052   9.410
 2527TIP3    H231561   5.466   5.135   9.415
 2528TIP3   OH231562   5.559   4.889   7.919
 2528TIP3    H131563   5.648   4.927   7.930
 2528TIP3    H231564   5.563   4.815   7.982
 2529TIP3   OH231565   5.598   4.690   8.100
 2529TIP3    H131566   5.514   4.653   8.136
 2529TIP3    H231567   5.657   4.717   8.173
 2530TIP3   OH231568   5.572   4.964   8.602
 2530TIP3    H131569   5.655   4.929   8.567
 2530TIP3    H231570   5.586   5.060   8.589
 2531TIP3   OH231571   5.428   5.255   8.831
 2531TIP3    H131572   5.359   5.290   8.890
 2531TIP3    H231573   5.374   5.216   8.760
 2532TIP3   OH231574   5.391   4.538   8.174
 2532TIP3    H131575   5.359   4.448   8.154
 2532TIP3    H231576   5.332   4.561   8.248
 2533TIP3   OH231577   3.879   4.750   8.569
 2533TIP3    H131578   3.897   4.743   8.472
 2533TIP3    H231579   3.969   4.733   8.604
 2534TIP3   OH231580   5.465   4.739   9.133
 2534TIP3    H131581   5.526   4.663   9.145
 2534TIP3    H231582   5.526   4.816   9.133
 2535TIP3   OH231583   5.615   4.526   9.197
 2535TIP3    H131584   5.527   4.487   9.182
 2535TIP3    H231585   5.672   4.448   9.190
 2536TIP3   OH231586   5.346   4.303   8.009
 2536TIP3    H131587   5.372   4.208   8.021
 2536TIP3    H231588   5.428   4.337   7.971
 2537TIP3   OH231589   5.411   4.358   8.552
 2537TIP3    H131590   5.508   4.374   8.557
 2537TIP3    H231591   5.390   4.367   8.647
 2538TIP3   OH231592   5.416   4.427   8.828
 2538TIP3    H131593   5.328   4.455   8.861
 2538TIP3    H231594   5.460   4.514   8.811
 2539TIP3   OH231595   3.842   4.281   9.186
 2539TIP3    H131596   3.935   4.259   9.204
 2539TIP3    H231597   3.796   4.198   9.211
 2540TIP3   OH231598   5.644   3.834   9.364
 2540TIP3    H131599   5.679   3.768   9.303
 2540TIP3    H231600   5.653   3.915   9.310
 2541TIP3   OH231601   5.409   4.031   8.012
 2541TIP3    H131602   5.435   3.988   8.097
 2541TIP3    H231603   5.351   3.964   7.971
 2542TIP3   OH231604   3.954   4.111   8.487
 2542TIP3    H131605   4.010   4.031   8.500
 2542TIP3    H231606   4.018   4.181   8.511
 2543TIP3   OH231607   3.789   4.412   8.573
 2543TIP3    H131608   3.848   4.388   8.500
 2543TIP3    H231609   3.836   4.492   8.602
 2544TIP3   OH231610   5.595   4.044   9.200
 2544TIP3    H131611   5.502   4.071   9.195
 2544TIP3    H231612   5.598   3.988   9.121
 2545TIP3   OH231613   5.595   4.035   7.668
 2545TIP3    H131614   5.633   3.962   7.616
 2545TIP3    H231615   5.669   4.095   7.675
 2546TIP3   OH231616   5.300   5.531   8.173
 2546TIP3    H131617   5.368   5.502   8.110
 2546TIP3    H231618   5.351   5.581   8.239
 2547TIP3   OH231619   3.820   3.900   8.808
 2547TIP3    H131620   3.755   3.881   8.879
 2547TIP3    H231621   3.775   3.968   8.756
 2548TIP3   OH231622   4.045   5.220   9.225
 2548TIP3    H131623   3.962   5.243   9.182
 2548TIP3    H231624   4.019   5.213   9.317
 2549TIP3   OH231625   4.334   5.322   8.854
 2549TIP3    H131626   4.303   5.410   8.827
 2549TIP3    H231627   4.427   5.330   8.823
 2550TIP3   OH231628   4.766   5.464   9.143
 2550TIP3    H131629   4.779   5.429   9.234
 2550TIP3    H231630   4.857   5.495   9.120
 2551TIP3   OH231631   4.995   5.591   9.075
 2551TIP3    H131632   5.069   5.534   9.051
 2551TIP3    H231633   5.032   5.636   9.155
 2552TIP3   OH231634   5.498   3.852   8.987
 2552TIP3    H131635   5.415   3.882   8.946
 2552TIP3    H231636   5.514   3.770   8.935
 2553TIP3   OH231637   4.077   5.646   8.852
 2553TIP3    H131638   4.003   5.696   8.813
 2553TIP3    H231639   4.047   5.627   8.942
 2554TIP3   OH231640   4.323   5.603   8.760
 2554TIP3    H131641   4.234   5.619   8.799
 2554TIP3    H231642   4.319   5.662   8.683
 2555TIP3   OH231643   4.794   5.594   8.677
 2555TIP3    H131644   4.748   5.650   8.613
 2555TIP3    H231645   4.808   5.657   8.751
 2556TIP3   OH231646   5.022   5.474   8.782
 2556TIP3    H131647   4.938   5.503   8.743
 2556TIP3    H231648   5.073   5.556   8.772
 2557TIP3   OH231649   5.281   5.631   8.802
 2557TIP3    H131650   5.277   5.727   8.779
 2557TIP3    H231651   5.303   5.594   8.714
 2558TIP3   OH231652   4.024   5.511   8.547
 2558TIP3    H131653   4.015   5.464   8.633
 2558TIP3    H231654   4.105   5.472   8.509
 2559TIP3   OH231655   4.231   5.381   8.411
 2559TIP3    H131656   4.215   5.288   8.437
 2559TIP3    H231657   4.316   5.398   8.457
 2560TIP3   OH231658   4.492   5.430   8.501
 2560TIP3    H131659   4.507   5.337   8.475
 2560TIP3    H231660   4.496   5.425   8.597
 2561TIP3   OH231661   4.837   3.996   8.413
 2561TIP3    H131662   4.769   3.932   8.443
 2561TIP3    H231663   4.892   3.941   8.356
 2562TIP3   OH231664   5.349   3.798   8.418
 2562TIP3    H131665   5.410   3.859   8.369
 2562TIP3    H231666   5.261   3.835   8.397
 2563TIP3   OH231667   5.516   3.925   8.246
 2563TIP3    H131668   5.585   3.867   8.207
 2563TIP3    H231669   5.567   4.007   8.259
 2564TIP3   OH231670   4.521   3.852   8.177
 2564TIP3    H131671   4.612   3.886   8.171
 2564TIP3    H231672   4.517   3.828   8.270
 2565TIP3   OH231673   5.093   3.852   8.340
 2565TIP3    H131674   5.088   3.865   8.245
 2565TIP3    H231675   5.055   3.762   8.352
 2566TIP3   OH231676   5.218   3.855   7.907
 2566TIP3    H131677   5.144   3.916   7.890
 2566TIP3    H231678   5.173   3.772   7.933
 2567TIP3   OH231679   4.641   4.049   7.863
 2567TIP3    H131680   4.661   3.993   7.938
 2567TIP3    H231681   4.642   4.137   7.906
 2568TIP3   OH231682   5.497   5.510   7.981
 2568TIP3    H131683   5.480   5.432   7.924
 2568TIP3    H231684   5.494   5.582   7.914
 2569TIP3   OH231685   4.062   3.912   9.144
 2569TIP3    H131686   4.022   3.832   9.183
 2569TIP3    H231687   4.152   3.907   9.183
 2570TIP3   OH231688   4.261   3.851   9.310
 2570TIP3    H131689   4.350   3.817   9.287
 2570TIP3    H231690   4.224   3.770   9.349
 2571TIP3   OH231691   4.113   5.514   7.579
 2571TIP3    H131692   4.107   5.560   7.662
 2571TIP3    H231693   4.202   5.474   7.579
 2572TIP3   OH231694   5.102   3.778   9.324
 2572TIP3    H131695   5.111   3.731   9.409
 2572TIP3    H231696   5.194   3.775   9.290
 2573TIP3   OH231697   5.423   5.384   9.186
 2573TIP3    H131698   5.343   5.371   9.131
 2573TIP3    H231699   5.411   5.479   9.208
 2574TIP3   OH231700   6.868   4.773   8.185
 2574TIP3    H131701   6.866   4.870   8.180
 2574TIP3    H231702   6.797   4.749   8.125
 2575TIP3   OH231703   6.753   4.696   8.532
 2575TIP3    H131704   6.752   4.633   8.606
 2575TIP3    H231705   6.717   4.644   8.459
 2576TIP3   OH231706   5.986   4.664   8.688
 2576TIP3    H131707   5.996   4.596   8.758
 2576TIP3    H231708   6.062   4.721   8.711
 2577TIP3   OH231709   7.120   4.991   8.363
 2577TIP3    H131710   7.080   4.920   8.414
 2577TIP3    H231711   7.124   5.062   8.430
 2578TIP3   OH231712   6.081   5.110   8.539
 2578TIP3    H131713   6.051   5.022   8.508
 2578TIP3    H231714   6.177   5.094   8.544
 2579TIP3   OH231715   5.739   4.463   8.093
 2579TIP3    H131716   5.707   4.554   8.076
 2579TIP3    H231717   5.689   4.409   8.030
 2580TIP3   OH231718   5.809   4.679   8.297
 2580TIP3    H131719   5.852   4.607   8.349
 2580TIP3    H231720   5.884   4.703   8.239
 2581TIP3   OH231721   6.834   5.509   8.388
 2581TIP3    H131722   6.899   5.440   8.358
 2581TIP3    H231723   6.811   5.473   8.473
 2582TIP3   OH231724   6.591   4.936   8.583
 2582TIP3    H131725   6.624   4.874   8.516
 2582TIP3    H231726   6.672   4.953   8.633
 2583TIP3   OH231727   7.450   4.104   8.653
 2583TIP3    H131728   7.468   4.162   8.731
 2583TIP3    H231729   7.509   4.144   8.588
 2584TIP3   OH231730   6.907   4.384   8.614
 2584TIP3    H131731   6.925   4.288   8.615
 2584TIP3    H231732   6.897   4.397   8.518
 2585TIP3   OH231733   6.217   4.193   8.334
 2585TIP3    H131734   6.230   4.276   8.284
 2585TIP3    H231735   6.179   4.135   8.264
 2586TIP3   OH231736   6.992   4.200   8.171
 2586TIP3    H131737   7.057   4.169   8.239
 2586TIP3    H231738   7.048   4.259   8.118
 2587TIP3   OH231739   5.877   4.434   8.406
 2587TIP3    H131740   5.945   4.383   8.454
 2587TIP3    H231741   5.897   4.400   8.316
 2588TIP3   OH231742   6.396   4.589   8.343
 2588TIP3    H131743   6.465   4.531   8.379
 2588TIP3    H231744   6.346   4.524   8.289
 2589TIP3   OH231745   7.496   4.244   8.882
 2589TIP3    H131746   7.434   4.320   8.870
 2589TIP3    H231747   7.498   4.236   8.978
 2590TIP3   OH231748   6.110   4.083   8.738
 2590TIP3    H131749   6.082   4.140   8.664
 2590TIP3    H231750   6.043   4.105   8.807
 2591TIP3   OH231751   6.836   5.031   8.095
 2591TIP3    H131752   6.815   5.007   8.003
 2591TIP3    H231753   6.809   5.125   8.097
 2592TIP3   OH231754   6.361   4.847   8.761
 2592TIP3    H131755   6.291   4.911   8.785
 2592TIP3    H231756   6.431   4.907   8.733
 2593TIP3   OH231757   7.174   4.136   8.371
 2593TIP3    H131758   7.151   4.059   8.425
 2593TIP3    H231759   7.241   4.179   8.427
 2594TIP3   OH231760   6.068   4.268   8.543
 2594TIP3    H131761   6.130   4.337   8.574
 2594TIP3    H231762   6.118   4.228   8.467
 2595TIP3   OH231763   6.205   5.047   8.843
 2595TIP3    H131764   6.201   5.139   8.810
 2595TIP3    H231765   6.117   5.039   8.888
 2596TIP3   OH231766   5.810   5.010   7.924
 2596TIP3    H131767   5.789   5.044   7.836
 2596TIP3    H231768   5.821   5.091   7.976
 2597TIP3   OH231769   7.174   5.176   8.600
 2597TIP3    H131770   7.077   5.187   8.612
 2597TIP3    H231771   7.201   5.267   8.579
 2598TIP3   OH231772   7.205   4.004   8.739
 2598TIP3    H131773   7.134   4.068   8.728
 2598TIP3    H231774   7.278   4.044   8.687
 2599TIP3   OH231775   6.502   3.816   8.485
 2599TIP3    H131776   6.487   3.719   8.477
 2599TIP3    H231777   6.414   3.847   8.516
 2600TIP3   OH231778   7.002   5.354   8.261
 2600TIP3    H131779   7.042   5.282   8.208
 2600TIP3    H231780   7.045   5.432   8.221
 2601TIP3   OH231781   7.122   5.147   8.111
 2601TIP3    H131782   7.094   5.078   8.049
 2601TIP3    H231783   7.125   5.096   8.195
 2602TIP3   OH231784   7.283   5.007   8.960
 2602TIP3    H131785   7.297   4.941   8.889
 2602TIP3    H231786   7.305   5.090   8.914
 2603TIP3   OH231787   6.730   4.695   7.932
 2603TIP3    H131788   6.666   4.759   7.898
 2603TIP3    H231789   6.805   4.702   7.869
 2604TIP3   OH231790   7.472   4.638   8.764
 2604TIP3    H131791   7.406   4.711   8.767
 2604TIP3    H231792   7.521   4.663   8.683
 2605TIP3   OH231793   7.080   4.714   8.029
 2605TIP3    H131794   7.007   4.741   8.089
 2605TIP3    H231795   7.128   4.650   8.084
 2606TIP3   OH231796   7.072   4.533   8.941
 2606TIP3    H131797   7.071   4.615   8.993
 2606TIP3    H231798   7.009   4.561   8.872
 2607TIP3   OH231799   6.237   4.781   8.220
 2607TIP3    H131800   6.207   4.742   8.134
 2607TIP3    H231801   6.300   4.713   8.253
 2608TIP3   OH231802   6.370   5.119   8.488
 2608TIP3    H131803   6.371   5.068   8.406
 2608TIP3    H231804   6.449   5.085   8.533
 2609TIP3   OH231805   6.271   4.657   8.587
 2609TIP3    H131806   6.326   4.665   8.506
 2609TIP3    H231807   6.312   4.723   8.647
 2610TIP3   OH231808   6.915   5.214   8.658
 2610TIP3    H131809   6.886   5.278   8.723
 2610TIP3    H231810   6.889   5.129   8.699
 2611TIP3   OH231811   6.367   5.100   9.056
 2611TIP3    H131812   6.325   5.173   9.105
 2611TIP3    H231813   6.300   5.079   8.986
 2612TIP3   OH231814   6.966   4.638   7.799
 2612TIP3    H131815   7.023   4.659   7.877
 2612TIP3    H231816   7.006   4.686   7.725
 2613TIP3   OH231817   6.062   4.716   8.969
 2613TIP3    H131818   6.068   4.782   9.041
 2613TIP3    H231819   5.967   4.724   8.950
 2614TIP3   OH231820   6.736   5.309   8.143
 2614TIP3    H131821   6.780   5.341   8.223
 2614TIP3    H231822   6.681   5.384   8.118
 2615TIP3   OH231823   6.193   5.303   9.130
 2615TIP3    H131824   6.186   5.294   9.034
 2615TIP3    H231825   6.100   5.289   9.158
 2616TIP3   OH231826   7.337   3.808   7.781
 2616TIP3    H131827   7.242   3.820   7.810
 2616TIP3    H231828   7.359   3.897   7.746
 2617TIP3   OH231829   6.132   4.684   7.983
 2617TIP3    H131830   6.105   4.762   7.929
 2617TIP3    H231831   6.067   4.618   7.960
 2618TIP3   OH231832   7.456   5.246   7.643
 2618TIP3    H131833   7.464   5.342   7.626
 2618TIP3    H231834   7.542   5.216   7.613
 2619TIP3   OH231835   5.745   4.928   8.873
 2619TIP3    H131836   5.700   4.920   8.787
 2619TIP3    H231837   5.754   4.832   8.894
 2620TIP3   OH231838   5.721   5.200   8.550
 2620TIP3    H131839   5.817   5.190   8.547
 2620TIP3    H231840   5.713   5.283   8.599
 2621TIP3   OH231841   7.546   5.272   9.119
 2621TIP3    H131842   7.533   5.176   9.115
 2621TIP3    H231843   7.458   5.296   9.157
 2622TIP3   OH231844   6.641   5.225   9.004
 2622TIP3    H131845   6.646   5.309   9.055
 2622TIP3    H231846   6.553   5.189   9.029
 2623TIP3   OH231847   6.685   5.600   7.985
 2623TIP3    H131848   6.674   5.593   7.888
 2623TIP3    H231849   6.686   5.696   8.002
 2624TIP3   OH231850   6.049   5.487   8.167
 2624TIP3    H131851   6.064   5.447   8.255
 2624TIP3    H231852   5.964   5.446   8.143
 2625TIP3   OH231853   6.983   5.514   7.684
 2625TIP3    H131854   7.035   5.447   7.638
 2625TIP3    H231855   6.995   5.490   7.777
 2626TIP3   OH231856   6.958   5.516   7.963
 2626TIP3    H131857   6.862   5.523   7.979
 2626TIP3    H231858   6.982   5.440   8.018
 2627TIP3   OH231859   7.260   4.418   9.165
 2627TIP3    H131860   7.212   4.463   9.093
 2627TIP3    H231861   7.258   4.326   9.135
 2628TIP3   OH231862   5.974   5.059   8.966
 2628TIP3    H131863   5.996   5.023   9.054
 2628TIP3    H231864   5.887   5.019   8.944
 2629TIP3   OH231865   6.243   3.907   8.560
 2629TIP3    H131866   6.152   3.893   8.523
 2629TIP3    H231867   6.229   3.989   8.610
 2630TIP3   OH231868   6.707   3.872   8.896
 2630TIP3    H131869   6.746   3.830   8.975
 2630TIP3    H231870   6.610   3.862   8.911
 2631TIP3   OH231871   7.035   4.258   8.986
 2631TIP3    H131872   6.978   4.236   9.064
 2631TIP3    H231873   7.016   4.351   8.964
 2632TIP3   OH231874   6.673   4.130   7.634
 2632TIP3    H131875   6.635   4.125   7.723
 2632TIP3    H231876   6.646   4.044   7.598
 2633TIP3   OH231877   6.253   4.405   8.688
 2633TIP3    H131878   6.178   4.404   8.751
 2633TIP3    H231879   6.247   4.495   8.649
 2634TIP3   OH231880   6.247   4.413   8.174
 2634TIP3    H131881   6.154   4.390   8.158
 2634TIP3    H231882   6.285   4.386   8.088
 2635TIP3   OH231883   6.802   4.465   8.048
 2635TIP3    H131884   6.763   4.548   8.013
 2635TIP3    H231885   6.870   4.447   7.980
 2636TIP3   OH231886   6.705   4.488   9.193
 2636TIP3    H131887   6.653   4.409   9.222
 2636TIP3    H231888   6.789   4.475   9.240
 2637TIP3   OH231889   6.904   4.416   8.334
 2637TIP3    H131890   6.875   4.471   8.260
 2637TIP3    H231891   6.913   4.330   8.288
 2638TIP3   OH231892   6.013   4.428   8.852
 2638TIP3    H131893   6.024   4.469   8.940
 2638TIP3    H231894   5.971   4.344   8.875
 2639TIP3   OH231895   5.681   4.144   8.253
 2639TIP3    H131896   5.749   4.133   8.323
 2639TIP3    H231897   5.724   4.102   8.176
 2640TIP3   OH231898   5.805   4.211   7.784
 2640TIP3    H131899   5.860   4.273   7.736
 2640TIP3    H231900   5.741   4.271   7.826
 2641TIP3   OH231901   6.823   4.573   8.788
 2641TIP3    H131902   6.861   4.504   8.730
 2641TIP3    H231903   6.776   4.520   8.855
 2642TIP3   OH231904   6.504   4.172   8.273
 2642TIP3    H131905   6.411   4.171   8.301
 2642TIP3    H231906   6.552   4.153   8.354
 2643TIP3   OH231907   5.980   4.325   8.163
 2643TIP3    H131908   5.895   4.339   8.118
 2643TIP3    H231909   6.015   4.245   8.119
 2644TIP3   OH231910   6.346   4.339   7.929
 2644TIP3    H131911   6.443   4.339   7.937
 2644TIP3    H231912   6.326   4.398   7.855
 2645TIP3   OH231913   6.944   4.095   8.596
 2645TIP3    H131914   6.876   4.099   8.667
 2645TIP3    H231915   6.893   4.068   8.519
 2646TIP3   OH231916   6.211   4.457   7.674
 2646TIP3    H131917   6.171   4.399   7.610
 2646TIP3    H231918   6.301   4.465   7.640
 2647TIP3   OH231919   7.264   5.659   9.228
 2647TIP3    H131920   7.291   5.695   9.142
 2647TIP3    H231921   7.336   5.690   9.286
 2648TIP3   OH231922   6.031   4.906   9.187
 2648TIP3    H131923   6.104   4.930   9.247
 2648TIP3    H231924   5.954   4.912   9.247
 2649TIP3   OH231925   6.631   4.447   8.462
 2649TIP3    H131926   6.692   4.394   8.409
 2649TIP3    H231927   6.617   4.391   8.540
 2650TIP3   OH231928   6.133   4.061   8.108
 2650TIP3    H131929   6.100   3.969   8.107
 2650TIP3    H231930   6.211   4.054   8.052
 2651TIP3   OH231931   6.496   4.279   8.704
 2651TIP3    H131932   6.413   4.331   8.712
 2651TIP3    H231933   6.551   4.315   8.775
 2652TIP3   OH231934   6.550   4.900   7.873
 2652TIP3    H131935   6.469   4.854   7.849
 2652TIP3    H231936   6.535   4.919   7.968
 2653TIP3   OH231937   7.274   4.823   8.754
 2653TIP3    H131938   7.329   4.871   8.689
 2653TIP3    H231939   7.188   4.826   8.708
 2654TIP3   OH231940   6.937   4.188   7.688
 2654TIP3    H131941   6.842   4.201   7.672
 2654TIP3    H231942   6.966   4.274   7.725
 2655TIP3   OH231943   6.704   4.930   8.998
 2655TIP3    H131944   6.668   4.886   9.076
 2655TIP3    H231945   6.677   5.022   9.009
 2656TIP3   OH231946   7.013   4.375   7.858
 2656TIP3    H131947   7.102   4.365   7.895
 2656TIP3    H231948   7.016   4.458   7.806
 2657TIP3   OH231949   6.061   4.838   8.451
 2657TIP3    H131950   6.131   4.833   8.383
 2657TIP3    H231951   6.075   4.756   8.502
 2658TIP3   OH231952   6.769   5.050   7.792
 2658TIP3    H131953   6.728   5.136   7.813
 2658TIP3    H231954   6.694   4.989   7.793
 2659TIP3   OH231955   5.764   4.681   8.979
 2659TIP3    H131956   5.780   4.637   9.065
 2659TIP3    H231957   5.702   4.620   8.935
 2660TIP3   OH231958   6.466   4.638   9.196
 2660TIP3    H131959   6.433   4.605   9.111
 2660TIP3    H231960   6.557   4.604   9.196
 2661TIP3   OH231961   6.935   5.171   8.994
 2661TIP3    H131962   6.843   5.189   8.969
 2661TIP3    H231963   6.931   5.200   9.087
 2662TIP3   OH231964   7.496   4.391   7.831
 2662TIP3    H131965   7.444   4.358   7.756
 2662TIP3    H231966   7.507   4.484   7.805
 2663TIP3   OH231967   7.500   4.975   9.111
 2663TIP3    H131968   7.410   4.997   9.075
 2663TIP3    H231969   7.554   4.970   9.030
 2664TIP3   OH231970   7.327   5.274   7.872
 2664TIP3    H131971   7.293   5.190   7.903
 2664TIP3    H231972   7.361   5.255   7.782
 2665TIP3   OH231973   7.052   4.753   8.582
 2665TIP3    H131974   6.958   4.733   8.570
 2665TIP3    H231975   7.095   4.678   8.537
 2666TIP3   OH231976   6.303   5.187   8.192
 2666TIP3    H131977   6.352   5.268   8.172
 2666TIP3    H231978   6.215   5.210   8.159
 2667TIP3   OH231979   6.442   4.954   8.141
 2667TIP3    H131980   6.411   5.045   8.152
 2667TIP3    H231981   6.373   4.903   8.188
 2668TIP3   OH231982   6.489   5.372   8.786
 2668TIP3    H131983   6.536   5.451   8.756
 2668TIP3    H231984   6.551   5.337   8.852
 2669TIP3   OH231985   6.313   5.450   8.101
 2669TIP3    H131986   6.216   5.464   8.113
 2669TIP3    H231987   6.349   5.536   8.130
 2670TIP3   OH231988   6.840   4.970   8.746
 2670TIP3    H131989   6.809   4.952   8.837
 2670TIP3    H231990   6.905   4.900   8.729
 2671TIP3   OH231991   7.124   5.428   8.995
 2671TIP3    H131992   7.054   5.380   8.948
 2671TIP3    H231993   7.141   5.499   8.929
 2672TIP3   OH231994   7.529   5.518   7.689
 2672TIP3    H131995   7.591   5.580   7.650
 2672TIP3    H231996   7.448   5.572   7.704
 2673TIP3   OH231997   5.930   4.154   8.934
 2673TIP3    H131998   5.839   4.190   8.933
 2673TIP3    H231999   5.919   4.070   8.981
 2674TIP3   OH232000   7.153   4.944   7.882
 2674TIP3    H132001   7.129   4.864   7.932
 2674TIP3    H232002   7.249   4.945   7.893
 2675TIP3   OH232003   5.890   5.333   8.777
 2675TIP3    H132004   5.923   5.241   8.778
 2675TIP3    H232005   5.917   5.363   8.864
 2676TIP3   OH232006   6.359   5.136   7.751
 2676TIP3    H132007   6.392   5.091   7.830
 2676TIP3    H232008   6.376   5.231   7.774
 2677TIP3   OH232009   6.025   4.864   7.802
 2677TIP3    H132010   5.949   4.900   7.853
 2677TIP3    H232011   6.066   4.946   7.772
 2678TIP3   OH232012   6.803   4.132   8.832
 2678TIP3    H132013   6.875   4.138   8.896
 2678TIP3    H232014   6.765   4.045   8.853
 2679TIP3   OH232015   6.879   4.091   7.940
 2679TIP3    H132016   6.897   4.138   7.857
 2679TIP3    H232017   6.936   4.135   8.005
 2680TIP3   OH232018   6.646   5.307   7.822
 2680TIP3    H132019   6.562   5.355   7.824
 2680TIP3    H232020   6.697   5.355   7.756
 2681TIP3   OH232021   6.598   4.264   8.019
 2681TIP3    H132022   6.677   4.322   8.025
 2681TIP3    H232023   6.571   4.251   8.113
 2682TIP3   OH232024   6.656   4.367   8.941
 2682TIP3    H132025   6.663   4.422   9.021
 2682TIP3    H232026   6.722   4.297   8.950
 2683TIP3   OH232027   6.684   3.969   8.106
 2683TIP3    H132028   6.651   4.034   8.171
 2683TIP3    H232029   6.754   4.023   8.064
 2684TIP3   OH232030   6.382   5.409   7.826
 2684TIP3    H132031   6.402   5.489   7.771
 2684TIP3    H232032   6.358   5.446   7.913
 2685TIP3   OH232033   7.273   4.153   9.025
 2685TIP3    H132034   7.180   4.186   9.012
 2685TIP3    H232035   7.303   4.151   8.933
 2686TIP3   OH232036   7.135   4.532   8.424
 2686TIP3    H132037   7.053   4.487   8.399
 2686TIP3    H232038   7.183   4.464   8.477
 2687TIP3   OH232039   6.077   5.135   7.676
 2687TIP3    H132040   6.147   5.186   7.722
 2687TIP3    H232041   6.128   5.079   7.617
 2688TIP3   OH232042   7.241   5.461   8.594
 2688TIP3    H132043   7.231   5.524   8.521
 2688TIP3    H232044   7.338   5.463   8.610
 2689TIP3   OH232045   5.989   3.871   8.474
 2689TIP3    H132046   5.972   3.872   8.378
 2689TIP3    H232047   5.949   3.785   8.499
 2690TIP3   OH232048   5.882   5.261   8.085
 2690TIP3    H132049   5.799   5.309   8.084
 2690TIP3    H232050   5.932   5.308   8.017
 2691TIP3   OH232051   5.805   5.528   9.216
 2691TIP3    H132052   5.866   5.509   9.290
 2691TIP3    H232053   5.766   5.440   9.198
 2692TIP3   OH232054   6.276   5.420   9.377
 2692TIP3    H132055   6.351   5.369   9.410
 2692TIP3    H232056   6.272   5.391   9.283
 2693TIP3   OH232057   6.924   5.258   9.253
 2693TIP3    H132058   6.893   5.170   9.280
 2693TIP3    H232059   7.002   5.270   9.311
 2694TIP3   OH232060   5.796   4.905   9.316
 2694TIP3    H132061   5.813   4.814   9.287
 2694TIP3    H232062   5.723   4.930   9.258
 2695TIP3   OH232063   6.469   4.904   9.254
 2695TIP3    H132064   6.435   4.936   9.168
 2695TIP3    H232065   6.475   4.806   9.243
 2696TIP3   OH232066   7.038   4.889   8.994
 2696TIP3    H132067   7.117   4.947   8.989
 2696TIP3    H232068   6.968   4.957   8.997
 2697TIP3   OH232069   5.890   4.627   9.254
 2697TIP3    H132070   5.932   4.541   9.246
 2697TIP3    H232071   5.867   4.629   9.349
 2698TIP3   OH232072   6.279   4.521   8.989
 2698TIP3    H132073   6.219   4.594   9.014
 2698TIP3    H232074   6.319   4.558   8.909
 2699TIP3   OH232075   6.788   4.782   9.329
 2699TIP3    H132076   6.881   4.776   9.306
 2699TIP3    H232077   6.769   4.701   9.378
 2700TIP3   OH232078   6.320   4.259   9.094
 2700TIP3    H132079   6.331   4.189   9.027
 2700TIP3    H232080   6.315   4.341   9.040
 2701TIP3   OH232081   6.360   4.098   8.850
 2701TIP3    H132082   6.411   4.145   8.780
 2701TIP3    H232083   6.271   4.091   8.811
 2702TIP3   OH232084   6.513   4.648   8.875
 2702TIP3    H132085   6.589   4.631   8.818
 2702TIP3    H232086   6.477   4.731   8.840
 2703TIP3   OH232087   6.952   4.422   9.370
 2703TIP3    H132088   6.976   4.328   9.361
 2703TIP3    H232089   7.039   4.466   9.373
 2704TIP3   OH232090   7.089   4.702   9.188
 2704TIP3    H132091   7.063   4.773   9.126
 2704TIP3    H232092   7.185   4.698   9.169
 2705TIP3   OH232093   6.166   4.385   9.287
 2705TIP3    H132094   6.089   4.327   9.270
 2705TIP3    H232095   6.231   4.348   9.224
 2706TIP3   OH232096   6.439   3.841   8.888
 2706TIP3    H132097   6.420   3.937   8.879
 2706TIP3    H232098   6.364   3.804   8.838
 2707TIP3   OH232099   6.566   4.274   9.253
 2707TIP3    H132100   6.534   4.251   9.342
 2707TIP3    H232101   6.488   4.254   9.198
 2708TIP3   OH232102   6.838   4.190   9.163
 2708TIP3    H132103   6.741   4.195   9.173
 2708TIP3    H232104   6.864   4.125   9.231
 2709TIP3   OH232105   6.995   4.051   9.350
 2709TIP3    H132106   6.992   3.953   9.354
 2709TIP3    H232107   6.972   4.080   9.441
 2710TIP3   OH232108   5.974   4.179   9.263
 2710TIP3    H132109   5.998   4.105   9.205
 2710TIP3    H232110   5.964   4.135   9.350
 2711TIP3   OH232111   6.460   3.782   9.159
 2711TIP3    H132112   6.528   3.711   9.158
 2711TIP3    H232113   6.449   3.794   9.063
 2712TIP3   OH232114   6.497   3.942   9.372
 2712TIP3    H132115   6.479   3.891   9.289
 2712TIP3    H232116   6.437   4.019   9.362
 2713TIP3   OH232117   6.442   5.641   7.693
 2713TIP3    H132118   6.539   5.638   7.693
 2713TIP3    H232119   6.425   5.695   7.616
 2714TIP3   OH232120   5.676   5.630   8.133
 2714TIP3    H132121   5.606   5.581   8.084
 2714TIP3    H232122   5.704   5.564   8.199
 2715TIP3   OH232123   5.759   5.443   8.320
 2715TIP3    H132124   5.723   5.356   8.341
 2715TIP3    H232125   5.782   5.477   8.408
 2716TIP3   OH232126   7.501   5.540   8.613
 2716TIP3    H132127   7.518   5.534   8.709
 2716TIP3    H232128   7.588   5.572   8.584
 2717TIP3   OH232129   7.471   5.483   8.903
 2717TIP3    H132130   7.422   5.404   8.869
 2717TIP3    H232131   7.518   5.440   8.977
 2718TIP3   OH232132   7.315   5.053   9.378
 2718TIP3    H132133   7.223   5.052   9.410
 2718TIP3    H232134   7.351   5.136   9.413
 2719TIP3   OH232135   7.445   4.889   7.919
 2719TIP3    H132136   7.533   4.924   7.935
 2719TIP3    H232137   7.446   4.815   7.983
 2720TIP3   OH232138   7.481   4.694   8.104
 2720TIP3    H132139   7.405   4.646   8.144
 2720TIP3    H232140   7.541   4.707   8.181
 2721TIP3   OH232141   7.457   4.963   8.604
 2721TIP3    H132142   7.538   4.924   8.566
 2721TIP3    H232143   7.472   5.058   8.587
 2722TIP3   OH232144   7.313   5.255   8.830
 2722TIP3    H132145   7.245   5.289   8.889
 2722TIP3    H232146   7.259   5.216   8.759
 2723TIP3   OH232147   7.264   4.542   8.163
 2723TIP3    H132148   7.249   4.446   8.160
 2723TIP3    H232149   7.233   4.562   8.253
 2724TIP3   OH232150   5.765   4.746   8.567
 2724TIP3    H132151   5.789   4.747   8.472
 2724TIP3    H232152   5.854   4.734   8.606
 2725TIP3   OH232153   7.351   4.739   9.134
 2725TIP3    H132154   7.412   4.663   9.145
 2725TIP3    H232155   7.411   4.816   9.132
 2726TIP3   OH232156   7.501   4.526   9.197
 2726TIP3    H132157   7.413   4.486   9.182
 2726TIP3    H232158   7.559   4.448   9.190
 2727TIP3   OH232159   7.232   4.299   8.007
 2727TIP3    H132160   7.261   4.206   8.021
 2727TIP3    H232161   7.312   4.338   7.971
 2728TIP3   OH232162   7.294   4.355   8.553
 2728TIP3    H132163   7.391   4.377   8.552
 2728TIP3    H232164   7.277   4.369   8.648
 2729TIP3   OH232165   7.301   4.426   8.831
 2729TIP3    H132166   7.213   4.455   8.862
 2729TIP3    H232167   7.345   4.512   8.809
 2730TIP3   OH232168   5.727   4.282   9.186
 2730TIP3    H132169   5.821   4.259   9.204
 2730TIP3    H232170   5.681   4.198   9.211
 2731TIP3   OH232171   7.530   3.834   9.364
 2731TIP3    H132172   7.565   3.768   9.302
 2731TIP3    H232173   7.539   3.915   9.310
 2732TIP3   OH232174   7.296   4.031   8.013
 2732TIP3    H132175   7.322   3.989   8.098
 2732TIP3    H232176   7.237   3.965   7.972
 2733TIP3   OH232177   5.846   4.111   8.470
 2733TIP3    H132178   5.892   4.028   8.494
 2733TIP3    H232179   5.905   4.178   8.508
 2734TIP3   OH232180   5.669   4.420   8.562
 2734TIP3    H132181   5.736   4.381   8.502
 2734TIP3    H232182   5.725   4.488   8.604
 2735TIP3   OH232183   7.481   4.044   9.200
 2735TIP3    H132184   7.388   4.071   9.195
 2735TIP3    H232185   7.483   3.988   9.121
 2736TIP3   OH232186   7.480   4.028   7.665
 2736TIP3    H132187   7.530   3.965   7.612
 2736TIP3    H232188   7.548   4.097   7.670
 2737TIP3   OH232189   5.710   4.037   7.980
 2737TIP3    H132190   5.616   4.053   7.967
 2737TIP3    H232191   5.752   4.086   7.908
 2738TIP3   OH232192   7.185   5.531   8.178
 2738TIP3    H132193   7.251   5.500   8.111
 2738TIP3    H232194   7.239   5.580   8.239
 2739TIP3   OH232195   5.705   3.902   8.808
 2739TIP3    H132196   5.639   3.882   8.877
 2739TIP3    H232197   5.659   3.969   8.755
 2740TIP3   OH232198   5.931   5.220   9.225
 2740TIP3    H132199   5.847   5.243   9.182
 2740TIP3    H232200   5.904   5.213   9.317
 2741TIP3   OH232201   6.220   5.322   8.854
 2741TIP3    H132202   6.189   5.410   8.827
 2741TIP3    H232203   6.313   5.330   8.823
 2742TIP3   OH232204   6.652   5.465   9.143
 2742TIP3    H132205   6.665   5.429   9.234
 2742TIP3    H232206   6.742   5.495   9.120
 2743TIP3   OH232207   6.881   5.591   9.075
 2743TIP3    H132208   6.955   5.534   9.052
 2743TIP3    H232209   6.918   5.636   9.155
 2744TIP3   OH232210   7.384   3.851   8.986
 2744TIP3    H132211   7.301   3.882   8.945
 2744TIP3    H232212   7.398   3.768   8.937
 2745TIP3   OH232213   5.962   5.646   8.852
 2745TIP3    H132214   5.889   5.696   8.813
 2745TIP3    H232215   5.933   5.627   8.942
 2746TIP3   OH232216   6.209   5.603   8.760
 2746TIP3    H132217   6.120   5.620   8.799
 2746TIP3    H232218   6.205   5.662   8.683
 2747TIP3   OH232219   6.680   5.594   8.677
 2747TIP3    H132220   6.634   5.650   8.613
 2747TIP3    H232221   6.693   5.657   8.751
 2748TIP3   OH232222   6.907   5.473   8.782
 2748TIP3    H132223   6.823   5.503   8.743
 2748TIP3    H232224   6.956   5.555   8.774
 2749TIP3   OH232225   7.170   5.632   8.802
 2749TIP3    H132226   7.159   5.727   8.779
 2749TIP3    H232227   7.187   5.591   8.714
 2750TIP3   OH232228   5.910   5.511   8.547
 2750TIP3    H132229   5.901   5.464   8.633
 2750TIP3    H232230   5.991   5.472   8.509
 2751TIP3   OH232231   6.117   5.382   8.413
 2751TIP3    H132232   6.101   5.288   8.436
 2751TIP3    H232233   6.202   5.398   8.457
 2752TIP3   OH232234   6.378   5.430   8.500
 2752TIP3    H132235   6.394   5.338   8.474
 2752TIP3    H232236   6.381   5.425   8.597
 2753TIP3   OH232237   6.722   3.995   8.414
 2753TIP3    H132238   6.654   3.931   8.443
 2753TIP3    H232239   6.777   3.941   8.356
 2754TIP3   OH232240   7.236   3.799   8.419
 2754TIP3    H132241   7.297   3.859   8.369
 2754TIP3    H232242   7.147   3.836   8.397
 2755TIP3   OH232243   7.402   3.926   8.247
 2755TIP3    H132244   7.471   3.869   8.207
 2755TIP3    H232245   7.454   4.009   8.259
 2756TIP3   OH232246   5.960   3.858   8.198
 2756TIP3    H132247   5.877   3.838   8.149
 2756TIP3    H232248   6.004   3.771   8.193
 2757TIP3   OH232249   5.837   3.834   7.775
 2757TIP3    H132250   5.881   3.894   7.714
 2757TIP3    H232251   5.778   3.890   7.827
 2758TIP3   OH232252   6.404   3.849   8.179
 2758TIP3    H132253   6.494   3.885   8.169
 2758TIP3    H232254   6.404   3.828   8.273
 2759TIP3   OH232255   6.980   3.851   8.339
 2759TIP3    H132256   6.972   3.863   8.244
 2759TIP3    H232257   6.939   3.762   8.353
 2760TIP3   OH232258   7.103   3.855   7.905
 2760TIP3    H132259   7.027   3.913   7.890
 2760TIP3    H232260   7.059   3.769   7.926
 2761TIP3   OH232261   5.831   5.429   7.864
 2761TIP3    H132262   5.755   5.428   7.804
 2761TIP3    H232263   5.829   5.523   7.887
 2762TIP3   OH232264   6.522   4.053   7.861
 2762TIP3    H132265   6.544   3.995   7.935
 2762TIP3    H232266   6.525   4.140   7.907
 2763TIP3   OH232267   6.713   5.564   7.706
 2763TIP3    H132268   6.808   5.583   7.689
 2763TIP3    H232269   6.691   5.511   7.627
 2764TIP3   OH232270   7.382   5.511   7.982
 2764TIP3    H132271   7.365   5.431   7.925
 2764TIP3    H232272   7.376   5.582   7.915
 2765TIP3   OH232273   5.947   3.912   9.144
 2765TIP3    H132274   5.907   3.832   9.183
 2765TIP3    H232275   6.038   3.907   9.183
 2766TIP3   OH232276   6.147   3.851   9.310
 2766TIP3    H132277   6.236   3.817   9.288
 2766TIP3    H232278   6.110   3.770   9.349
 2767TIP3   OH232279   6.986   3.779   9.324
 2767TIP3    H132280   6.997   3.729   9.407
 2767TIP3    H232281   7.078   3.776   9.289
 2768TIP3   OH232282   7.309   5.384   9.186
 2768TIP3    H132283   7.228   5.371   9.131
 2768TIP3    H232284   7.296   5.479   9.207
 2769TIP3   OH232285   7.871   4.666   8.691
 2769TIP3    H132286   7.884   4.594   8.757
 2769TIP3    H232287   7.951   4.718   8.711
 2770TIP3   OH232288   7.949   5.093   8.562
 2770TIP3    H132289   7.930   5.014   8.508
 2770TIP3    H232290   8.046   5.099   8.545
 2771TIP3   OH232291   7.628   4.464   8.085
 2771TIP3    H132292   7.585   4.552   8.084
 2771TIP3    H232293   7.567   4.410   8.033
 2772TIP3   OH232294   7.702   4.688   8.302
 2772TIP3    H132295   7.729   4.606   8.348
 2772TIP3    H232296   7.773   4.699   8.238
 2773TIP3   OH232297   7.762   4.431   8.408
 2773TIP3    H132298   7.832   4.380   8.455
 2773TIP3    H232299   7.781   4.403   8.317
 2774TIP3   OH232300   7.974   4.081   8.736
 2774TIP3    H132301   7.963   4.145   8.662
 2774TIP3    H232302   7.915   4.114   8.806
 2775TIP3   OH232303   7.940   4.254   8.532
 2775TIP3    H132304   7.994   4.327   8.574
 2775TIP3    H232305   7.999   4.225   8.461
 2776TIP3   OH232306   8.078   5.103   8.870
 2776TIP3    H132307   8.062   5.159   8.793
 2776TIP3    H232308   7.988   5.061   8.883
 2777TIP3   OH232309   7.707   5.010   7.919
 2777TIP3    H132310   7.671   5.041   7.834
 2777TIP3    H232311   7.701   5.091   7.975
 2778TIP3   OH232312   7.937   4.719   8.970
 2778TIP3    H132313   7.944   4.779   9.045
 2778TIP3    H232314   7.842   4.723   8.951
 2779TIP3   OH232315   8.081   5.289   9.128
 2779TIP3    H132316   8.062   5.303   9.034
 2779TIP3    H232317   7.987   5.291   9.161
 2780TIP3   OH232318   8.023   4.686   7.969
 2780TIP3    H132319   7.986   4.767   7.931
 2780TIP3    H232320   7.949   4.624   7.965
 2781TIP3   OH232321   7.628   4.927   8.873
 2781TIP3    H132322   7.586   4.919   8.785
 2781TIP3    H232323   7.642   4.833   8.894
 2782TIP3   OH232324   7.607   5.202   8.550
 2782TIP3    H132325   7.703   5.190   8.546
 2782TIP3    H232326   7.601   5.284   8.599
 2783TIP3   OH232327   7.923   5.477   8.169
 2783TIP3    H132328   7.939   5.439   8.257
 2783TIP3    H232329   7.837   5.439   8.148
 2784TIP3   OH232330   7.849   5.061   8.972
 2784TIP3    H132331   7.874   5.017   9.055
 2784TIP3    H232332   7.767   5.015   8.945
 2785TIP3   OH232333   7.899   4.431   8.856
 2785TIP3    H132334   7.903   4.469   8.945
 2785TIP3    H232335   7.861   4.343   8.873
 2786TIP3   OH232336   7.563   4.136   8.250
 2786TIP3    H132337   7.631   4.134   8.322
 2786TIP3    H232338   7.612   4.103   8.173
 2787TIP3   OH232339   7.693   4.217   7.794
 2787TIP3    H132340   7.741   4.275   7.731
 2787TIP3    H232341   7.622   4.277   7.823
 2788TIP3   OH232342   7.867   4.331   8.156
 2788TIP3    H132343   7.777   4.336   8.120
 2788TIP3    H232344   7.899   4.243   8.129
 2789TIP3   OH232345   7.917   4.917   9.185
 2789TIP3    H132346   7.984   4.928   9.251
 2789TIP3    H232347   7.837   4.916   9.243
 2790TIP3   OH232348   7.971   4.057   8.087
 2790TIP3    H132349   7.963   3.963   8.115
 2790TIP3    H232350   8.067   4.062   8.081
 2791TIP3   OH232351   7.946   4.842   8.445
 2791TIP3    H132352   8.023   4.836   8.386
 2791TIP3    H232353   7.956   4.760   8.499
 2792TIP3   OH232354   7.652   4.682   8.980
 2792TIP3    H132355   7.665   4.635   9.065
 2792TIP3    H232356   7.588   4.623   8.935
 2793TIP3   OH232357   7.766   4.668   7.654
 2793TIP3    H132358   7.822   4.738   7.690
 2793TIP3    H232359   7.678   4.704   7.669
 2794TIP3   OH232360   7.813   4.155   8.939
 2794TIP3    H132361   7.723   4.189   8.929
 2794TIP3    H232362   7.800   4.068   8.980
 2795TIP3   OH232363   7.787   5.333   8.773
 2795TIP3    H132364   7.797   5.237   8.781
 2795TIP3    H232365   7.798   5.364   8.864
 2796TIP3   OH232366   7.903   4.866   7.794
 2796TIP3    H132367   7.830   4.900   7.852
 2796TIP3    H232368   7.953   4.945   7.780
 2797TIP3   OH232369   7.780   4.393   7.622
 2797TIP3    H132370   7.785   4.490   7.611
 2797TIP3    H232371   7.708   4.370   7.561
 2798TIP3   OH232372   7.873   3.871   8.474
 2798TIP3    H132373   7.861   3.873   8.377
 2798TIP3    H232374   7.836   3.785   8.500
 2799TIP3   OH232375   7.765   5.261   8.086
 2799TIP3    H132376   7.682   5.310   8.081
 2799TIP3    H232377   7.817   5.308   8.020
 2800TIP3   OH232378   7.689   5.529   9.214
 2800TIP3    H132379   7.749   5.510   9.288
 2800TIP3    H232380   7.650   5.441   9.198
 2801TIP3   OH232381   7.684   4.905   9.315
 2801TIP3    H132382   7.697   4.812   9.287
 2801TIP3    H232383   7.608   4.930   9.259
 2802TIP3   OH232384   7.777   4.629   9.254
 2802TIP3    H132385   7.816   4.542   9.243
 2802TIP3    H232386   7.755   4.628   9.349
 2803TIP3   OH232387   8.038   4.401   9.299
 2803TIP3    H132388   7.968   4.335   9.280
 2803TIP3    H232389   8.108   4.370   9.239
 2804TIP3   OH232390   7.859   4.177   9.262
 2804TIP3    H132391   7.882   4.103   9.204
 2804TIP3    H232392   7.852   4.136   9.351
 2805TIP3   OH232393   7.692   5.078   7.647
 2805TIP3    H132394   7.783   5.107   7.648
 2805TIP3    H232395   7.685   5.037   7.559
 2806TIP3   OH232396   7.560   5.631   8.133
 2806TIP3    H132397   7.491   5.580   8.084
 2806TIP3    H232398   7.593   5.564   8.196
 2807TIP3   OH232399   7.640   5.443   8.320
 2807TIP3    H132400   7.610   5.353   8.339
 2807TIP3    H232401   7.673   5.472   8.407
 2808TIP3   OH232402   7.652   4.756   8.567
 2808TIP3    H132403   7.673   4.740   8.473
 2808TIP3    H232404   7.740   4.733   8.605
 2809TIP3   OH232405   7.610   4.281   9.184
 2809TIP3    H132406   7.704   4.260   9.201
 2809TIP3    H232407   7.565   4.198   9.211
 2810TIP3   OH232408   7.729   4.109   8.470
 2810TIP3    H132409   7.780   4.028   8.490
 2810TIP3    H232410   7.790   4.178   8.503
 2811TIP3   OH232411   7.557   4.411   8.571
 2811TIP3    H132412   7.617   4.385   8.497
 2811TIP3    H232413   7.605   4.489   8.600
 2812TIP3   OH232414   7.593   4.035   7.978
 2812TIP3    H132415   7.500   4.057   7.967
 2812TIP3    H232416   7.636   4.083   7.906
 2813TIP3   OH232417   7.591   3.901   8.810
 2813TIP3    H132418   7.522   3.882   8.877
 2813TIP3    H232419   7.546   3.968   8.754
 2814TIP3   OH232420   7.815   5.223   9.225
 2814TIP3    H132421   7.731   5.244   9.181
 2814TIP3    H232422   7.784   5.212   9.316
 2815TIP3   OH232423   7.847   5.648   8.855
 2815TIP3    H132424   7.773   5.695   8.813
 2815TIP3    H232425   7.813   5.626   8.942
 2816TIP3   OH232426   8.074   5.567   8.733
 2816TIP3    H132427   8.007   5.607   8.793
 2816TIP3    H232428   8.097   5.649   8.685
 2817TIP3   OH232429   7.783   5.509   8.551
 2817TIP3    H132430   7.791   5.465   8.638
 2817TIP3    H232431   7.867   5.476   8.511
 2818TIP3   OH232432   7.983   5.381   8.429
 2818TIP3    H132433   7.977   5.284   8.442
 2818TIP3    H232434   8.073   5.394   8.463
 2819TIP3   OH232435   7.838   3.852   8.203
 2819TIP3    H132436   7.760   3.835   8.147
 2819TIP3    H232437   7.891   3.771   8.197
 2820TIP3   OH232438   7.712   5.430   7.876
 2820TIP3    H132439   7.648   5.428   7.801
 2820TIP3    H232440   7.717   5.526   7.885
 2821TIP3   OH232441   7.906   4.022   7.633
 2821TIP3    H132442   7.952   3.969   7.565
 2821TIP3    H232443   7.973   4.058   7.688
 2822TIP3   OH232444   7.839   3.913   9.141
 2822TIP3    H132445   7.799   3.834   9.182
 2822TIP3    H232446   7.928   3.907   9.181
 2823TIP3   OH232447   8.032   3.846   9.309
 2823TIP3    H132448   8.120   3.815   9.283
 2823TIP3    H232449   7.996   3.766   9.350
 2824TIP3   OH232450   7.889   5.522   7.576
 2824TIP3    H132451   7.868   5.557   7.662
 2824TIP3    H232452   7.973   5.478   7.581
 2825TIP3   OH232453   1.210   6.658   8.185
 2825TIP3    H132454   1.209   6.755   8.181
 2825TIP3    H232455   1.140   6.635   8.122
 2826TIP3   OH232456   1.097   6.582   8.534
 2826TIP3    H132457   1.095   6.518   8.607
 2826TIP3    H232458   1.061   6.531   8.460
 2827TIP3   OH232459   0.346   6.542   8.680
 2827TIP3    H132460   0.339   6.482   8.758
 2827TIP3    H232461   0.407   6.609   8.714
 2828TIP3   OH232462   1.464   6.877   8.364
 2828TIP3    H132463   1.423   6.806   8.413
 2828TIP3    H232464   1.467   6.948   8.431
 2829TIP3   OH232465   0.422   6.995   8.536
 2829TIP3    H132466   0.393   6.905   8.509
 2829TIP3    H232467   0.517   6.978   8.543
 2830TIP3   OH232468   0.096   6.354   8.078
 2830TIP3    H132469   0.047   6.438   8.086
 2830TIP3    H232470   0.030   6.297   8.040
 2831TIP3   OH232471   0.161   6.570   8.301
 2831TIP3    H132472   0.186   6.488   8.347
 2831TIP3    H232473   0.230   6.581   8.234
 2832TIP3   OH232474   1.177   7.394   8.387
 2832TIP3    H132475   1.242   7.325   8.358
 2832TIP3    H232476   1.154   7.358   8.473
 2833TIP3   OH232477   0.934   6.821   8.583
 2833TIP3    H132478   0.967   6.760   8.517
 2833TIP3    H232479   1.016   6.838   8.633
 2834TIP3   OH232480   1.794   5.989   8.652
 2834TIP3    H132481   1.811   6.047   8.730
 2834TIP3    H232482   1.854   6.029   8.588
 2835TIP3   OH232483   1.251   6.269   8.614
 2835TIP3    H132484   1.268   6.173   8.615
 2835TIP3    H232485   1.240   6.283   8.518
 2836TIP3   OH232486   0.562   6.079   8.334
 2836TIP3    H132487   0.572   6.163   8.286
 2836TIP3    H232488   0.524   6.021   8.264
 2837TIP3   OH232489   1.334   6.087   8.173
 2837TIP3    H132490   1.400   6.055   8.238
 2837TIP3    H232491   1.390   6.144   8.118
 2838TIP3   OH232492   0.235   6.320   8.407
 2838TIP3    H132493   0.297   6.260   8.452
 2838TIP3    H232494   0.237   6.286   8.316
 2839TIP3   OH232495   0.738   6.474   8.343
 2839TIP3    H132496   0.808   6.417   8.380
 2839TIP3    H232497   0.689   6.409   8.289
 2840TIP3   OH232498   1.837   6.127   8.882
 2840TIP3    H132499   1.780   6.206   8.868
 2840TIP3    H232500   1.840   6.122   8.978
 2841TIP3   OH232501   0.456   5.967   8.737
 2841TIP3    H132502   0.426   6.026   8.664
 2841TIP3    H232503   0.389   5.989   8.806
 2842TIP3   OH232504   1.180   6.916   8.095
 2842TIP3    H132505   1.158   6.891   8.003
 2842TIP3    H232506   1.150   7.010   8.098
 2843TIP3   OH232507   0.707   6.732   8.762
 2843TIP3    H132508   0.635   6.796   8.785
 2843TIP3    H232509   0.776   6.793   8.732
 2844TIP3   OH232510   1.517   6.021   8.370
 2844TIP3    H132511   1.495   5.945   8.424
 2844TIP3    H232512   1.585   6.064   8.425
 2845TIP3   OH232513   0.413   6.150   8.544
 2845TIP3    H132514   0.473   6.223   8.574
 2845TIP3    H232515   0.465   6.113   8.468
 2846TIP3   OH232516   0.549   6.932   8.841
 2846TIP3    H132517   0.543   7.024   8.810
 2846TIP3    H232518   0.463   6.924   8.888
 2847TIP3   OH232519   0.156   6.899   7.927
 2847TIP3    H132520   0.130   6.926   7.838
 2847TIP3    H232521   0.167   6.982   7.976
 2848TIP3   OH232522   1.517   7.061   8.600
 2848TIP3    H132523   1.420   7.073   8.611
 2848TIP3    H232524   1.544   7.153   8.579
 2849TIP3   OH232525   1.549   5.889   8.739
 2849TIP3    H132526   1.477   5.953   8.728
 2849TIP3    H232527   1.621   5.930   8.687
 2850TIP3   OH232528   0.845   5.702   8.485
 2850TIP3    H132529   0.830   5.606   8.477
 2850TIP3    H232530   0.758   5.733   8.516
 2851TIP3   OH232531   1.344   7.240   8.258
 2851TIP3    H132532   1.386   7.167   8.207
 2851TIP3    H232533   1.389   7.318   8.220
 2852TIP3   OH232534   1.465   7.032   8.113
 2852TIP3    H132535   1.438   6.965   8.047
 2852TIP3    H232536   1.467   6.979   8.195
 2853TIP3   OH232537   1.626   6.893   8.959
 2853TIP3    H132538   1.641   6.826   8.889
 2853TIP3    H232539   1.648   6.976   8.914
 2854TIP3   OH232540   1.077   6.581   7.935
 2854TIP3    H132541   1.009   6.640   7.894
 2854TIP3    H232542   1.147   6.587   7.866
 2855TIP3   OH232543   1.815   6.525   8.763
 2855TIP3    H132544   1.750   6.597   8.767
 2855TIP3    H232545   1.865   6.548   8.683
 2856TIP3   OH232546   1.426   6.604   8.032
 2856TIP3    H132547   1.348   6.626   8.088
 2856TIP3    H232548   1.471   6.535   8.083
 2857TIP3   OH232549   1.415   6.420   8.943
 2857TIP3    H132550   1.412   6.502   8.993
 2857TIP3    H232551   1.352   6.446   8.872
 2858TIP3   OH232552   0.586   6.668   8.221
 2858TIP3    H132553   0.551   6.628   8.138
 2858TIP3    H232554   0.646   6.597   8.254
 2859TIP3   OH232555   0.714   7.005   8.488
 2859TIP3    H132556   0.715   6.954   8.406
 2859TIP3    H232557   0.792   6.970   8.534
 2860TIP3   OH232558   0.618   6.541   8.586
 2860TIP3    H132559   0.670   6.552   8.505
 2860TIP3    H232560   0.653   6.609   8.647
 2861TIP3   OH232561   1.257   7.100   8.657
 2861TIP3    H132562   1.229   7.164   8.723
 2861TIP3    H232563   1.231   7.015   8.699
 2862TIP3   OH232564   0.711   6.986   9.054
 2862TIP3    H132565   0.670   7.057   9.108
 2862TIP3    H232566   0.642   6.966   8.986
 2863TIP3   OH232567   1.311   6.521   7.796
 2863TIP3    H132568   1.366   6.543   7.875
 2863TIP3    H232569   1.348   6.574   7.722
 2864TIP3   OH232570   0.403   6.598   8.973
 2864TIP3    H132571   0.410   6.669   9.039
 2864TIP3    H232572   0.309   6.610   8.949
 2865TIP3   OH232573   1.081   7.194   8.144
 2865TIP3    H132574   1.124   7.226   8.224
 2865TIP3    H232575   1.025   7.269   8.119
 2866TIP3   OH232576   0.536   7.188   9.130
 2866TIP3    H132577   0.528   7.179   9.034
 2866TIP3    H232578   0.443   7.175   9.158
 2867TIP3   OH232579   0.482   6.571   7.976
 2867TIP3    H132580   0.448   6.652   7.936
 2867TIP3    H232581   0.412   6.506   7.967
 2868TIP3   OH232582   1.793   7.132   7.629
 2868TIP3    H132583   1.808   7.226   7.636
 2868TIP3    H232584   1.881   7.095   7.616
 2869TIP3   OH232585   0.141   6.769   8.847
 2869TIP3    H132586   0.065   6.806   8.799
 2869TIP3    H232587   0.095   6.701   8.899
 2870TIP3   OH232588   0.089   7.109   8.533
 2870TIP3    H132589   0.179   7.078   8.552
 2870TIP3    H232590   0.070   7.167   8.608
 2871TIP3   OH232591   1.889   7.158   9.119
 2871TIP3    H132592   1.876   7.063   9.113
 2871TIP3    H232593   1.801   7.183   9.156
 2872TIP3   OH232594   0.982   7.113   9.001
 2872TIP3    H132595   0.990   7.194   9.057
 2872TIP3    H232596   0.896   7.075   9.030
 2873TIP3   OH232597   1.026   7.485   7.982
 2873TIP3    H132598   1.020   7.479   7.885
 2873TIP3    H232599   1.031   7.581   7.998
 2874TIP3   OH232600   0.397   7.370   8.164
 2874TIP3    H132601   0.406   7.332   8.254
 2874TIP3    H232602   0.311   7.332   8.141
 2875TIP3   OH232603   1.336   7.407   7.681
 2875TIP3    H132604   1.370   7.326   7.638
 2875TIP3    H232605   1.336   7.380   7.774
 2876TIP3   OH232606   1.300   7.404   7.961
 2876TIP3    H132607   1.204   7.407   7.977
 2876TIP3    H232608   1.325   7.326   8.014
 2877TIP3   OH232609   1.600   6.305   9.168
 2877TIP3    H132610   1.554   6.347   9.093
 2877TIP3    H232611   1.601   6.213   9.136
 2878TIP3   OH232612   0.317   6.952   8.968
 2878TIP3    H132613   0.334   6.910   9.055
 2878TIP3    H232614   0.236   6.905   8.940
 2879TIP3   OH232615   0.586   5.794   8.558
 2879TIP3    H132616   0.495   5.780   8.524
 2879TIP3    H232617   0.572   5.875   8.609
 2880TIP3   OH232618   1.050   5.757   8.895
 2880TIP3    H132619   1.089   5.715   8.975
 2880TIP3    H232620   0.953   5.748   8.910
 2881TIP3   OH232621   1.377   6.145   8.984
 2881TIP3    H132622   1.321   6.123   9.064
 2881TIP3    H232623   1.359   6.238   8.965
 2882TIP3   OH232624   1.454   6.619   7.571
 2882TIP3    H132625   1.454   6.610   7.475
 2882TIP3    H232626   1.531   6.675   7.583
 2883TIP3   OH232627   1.000   6.016   7.628
 2883TIP3    H132628   0.987   6.010   7.725
 2883TIP3    H232629   0.995   5.923   7.601
 2884TIP3   OH232630   0.596   6.291   8.688
 2884TIP3    H132631   0.521   6.290   8.750
 2884TIP3    H232632   0.590   6.381   8.648
 2885TIP3   OH232633   0.592   6.301   8.172
 2885TIP3    H132634   0.498   6.277   8.160
 2885TIP3    H232635   0.628   6.272   8.087
 2886TIP3   OH232636   1.146   6.351   8.049
 2886TIP3    H132637   1.105   6.434   8.014
 2886TIP3    H232638   1.212   6.334   7.979
 2887TIP3   OH232639   1.049   6.370   9.188
 2887TIP3    H132640   0.996   6.295   9.225
 2887TIP3    H232641   1.130   6.363   9.242
 2888TIP3   OH232642   1.248   6.301   8.334
 2888TIP3    H132643   1.218   6.357   8.260
 2888TIP3    H232644   1.256   6.216   8.288
 2889TIP3   OH232645   0.358   6.316   8.854
 2889TIP3    H132646   0.361   6.357   8.941
 2889TIP3    H232647   0.312   6.232   8.873
 2890TIP3   OH232648   0.052   6.056   8.260
 2890TIP3    H132649   0.104   6.021   8.336
 2890TIP3    H232650   0.064   5.990   8.194
 2891TIP3   OH232651   0.147   6.110   7.791
 2891TIP3    H132652   0.201   6.162   7.727
 2891TIP3    H232653   0.081   6.172   7.819
 2892TIP3   OH232654   1.166   6.458   8.788
 2892TIP3    H132655   1.205   6.389   8.730
 2892TIP3    H232656   1.119   6.406   8.855
 2893TIP3   OH232657   0.847   6.058   8.273
 2893TIP3    H132658   0.754   6.057   8.301
 2893TIP3    H232659   0.895   6.038   8.355
 2894TIP3   OH232660   0.330   6.210   8.163
 2894TIP3    H132661   0.242   6.228   8.124
 2894TIP3    H232662   0.353   6.125   8.121
 2895TIP3   OH232663   0.692   6.213   7.920
 2895TIP3    H132664   0.786   6.224   7.944
 2895TIP3    H232665   0.672   6.287   7.860
 2896TIP3   OH232666   1.288   5.978   8.596
 2896TIP3    H132667   1.220   5.984   8.667
 2896TIP3    H232668   1.236   5.953   8.518
 2897TIP3   OH232669   0.561   6.337   7.676
 2897TIP3    H132670   0.506   6.295   7.608
 2897TIP3    H232671   0.646   6.359   7.634
 2898TIP3   OH232672   1.605   7.543   9.231
 2898TIP3    H132673   1.633   7.579   9.145
 2898TIP3    H232674   1.680   7.575   9.285
 2899TIP3   OH232675   0.379   6.789   9.188
 2899TIP3    H132676   0.453   6.814   9.247
 2899TIP3    H232677   0.304   6.800   9.249
 2900TIP3   OH232678   0.975   6.332   8.462
 2900TIP3    H132679   1.036   6.280   8.409
 2900TIP3    H232680   0.960   6.277   8.540
 2901TIP3   OH232681   0.477   5.947   8.105
 2901TIP3    H132682   0.444   5.855   8.105
 2901TIP3    H232683   0.558   5.938   8.053
 2902TIP3   OH232684   0.839   6.165   8.703
 2902TIP3    H132685   0.756   6.217   8.712
 2902TIP3    H232686   0.895   6.200   8.775
 2903TIP3   OH232687   0.896   6.788   7.878
 2903TIP3    H132688   0.820   6.742   7.841
 2903TIP3    H232689   0.874   6.802   7.972
 2904TIP3   OH232690   1.618   6.708   8.754
 2904TIP3    H132691   1.673   6.757   8.690
 2904TIP3    H232692   1.531   6.711   8.708
 2905TIP3   OH232693   1.281   6.065   7.701
 2905TIP3    H132694   1.191   6.080   7.669
 2905TIP3    H232695   1.313   6.154   7.721
 2906TIP3   OH232696   1.045   6.815   8.998
 2906TIP3    H132697   1.012   6.772   9.078
 2906TIP3    H232698   1.020   6.907   9.011
 2907TIP3   OH232699   1.358   6.260   7.862
 2907TIP3    H132700   1.448   6.247   7.897
 2907TIP3    H232701   1.361   6.340   7.806
 2908TIP3   OH232702   0.409   6.729   8.454
 2908TIP3    H132703   0.474   6.720   8.383
 2908TIP3    H232704   0.415   6.642   8.498
 2909TIP3   OH232705   1.114   6.938   7.794
 2909TIP3    H132706   1.065   7.021   7.811
 2909TIP3    H232707   1.042   6.872   7.786
 2910TIP3   OH232708   0.118   6.550   8.976
 2910TIP3    H132709   0.126   6.517   9.066
 2910TIP3    H232710   0.040   6.505   8.939
 2911TIP3   OH232711   0.809   6.524   9.196
 2911TIP3    H132712   0.777   6.491   9.110
 2911TIP3    H232713   0.901   6.489   9.198
 2912TIP3   OH232714   1.276   7.056   8.995
 2912TIP3    H132715   1.185   7.075   8.970
 2912TIP3    H232716   1.273   7.087   9.088
 2913TIP3   OH232717   1.846   6.275   7.832
 2913TIP3    H132718   1.785   6.244   7.762
 2913TIP3    H232719   1.844   6.369   7.812
 2914TIP3   OH232720   1.841   6.857   9.112
 2914TIP3    H132721   1.754   6.885   9.075
 2914TIP3    H232722   1.898   6.857   9.032
 2915TIP3   OH232723   1.675   7.157   7.872
 2915TIP3    H132724   1.634   7.074   7.902
 2915TIP3    H232725   1.699   7.137   7.779
 2916TIP3   OH232726   1.394   6.638   8.583
 2916TIP3    H132727   1.300   6.618   8.570
 2916TIP3    H232728   1.438   6.564   8.537
 2917TIP3   OH232729   0.646   7.071   8.193
 2917TIP3    H132730   0.695   7.152   8.171
 2917TIP3    H232731   0.559   7.094   8.159
 2918TIP3   OH232732   0.787   6.839   8.143
 2918TIP3    H132733   0.755   6.931   8.152
 2918TIP3    H232734   0.716   6.789   8.188
 2919TIP3   OH232735   0.832   7.257   8.786
 2919TIP3    H132736   0.879   7.337   8.756
 2919TIP3    H232737   0.894   7.222   8.852
 2920TIP3   OH232738   0.657   7.335   8.099
 2920TIP3    H132739   0.560   7.350   8.113
 2920TIP3    H232740   0.693   7.419   8.132
 2921TIP3   OH232741   1.183   6.856   8.745
 2921TIP3    H132742   1.153   6.838   8.836
 2921TIP3    H232743   1.248   6.786   8.729
 2922TIP3   OH232744   1.468   7.315   8.994
 2922TIP3    H132745   1.397   7.266   8.947
 2922TIP3    H232746   1.485   7.385   8.928
 2923TIP3   OH232747   1.855   7.406   7.669
 2923TIP3    H132748   1.936   7.460   7.669
 2923TIP3    H232749   1.791   7.461   7.719
 2924TIP3   OH232750   0.273   6.040   8.932
 2924TIP3    H132751   0.183   6.075   8.937
 2924TIP3    H232752   0.259   5.955   8.978
 2925TIP3   OH232753   1.499   6.833   7.886
 2925TIP3    H132754   1.471   6.750   7.930
 2925TIP3    H232755   1.596   6.830   7.896
 2926TIP3   OH232756   0.235   7.217   8.772
 2926TIP3    H132757   0.266   7.125   8.778
 2926TIP3    H232758   0.257   7.248   8.861
 2927TIP3   OH232759   0.703   7.024   7.753
 2927TIP3    H132760   0.740   6.973   7.826
 2927TIP3    H232761   0.721   7.116   7.779
 2928TIP3   OH232762   1.146   6.018   8.831
 2928TIP3    H132763   1.217   6.024   8.896
 2928TIP3    H232764   1.108   5.930   8.853
 2929TIP3   OH232765   1.222   5.974   7.941
 2929TIP3    H132766   1.244   6.021   7.858
 2929TIP3    H232767   1.279   6.019   8.004
 2930TIP3   OH232768   0.984   7.194   7.822
 2930TIP3    H132769   0.903   7.245   7.827
 2930TIP3    H232770   1.040   7.243   7.760
 2931TIP3   OH232771   0.942   6.148   8.021
 2931TIP3    H132772   1.020   6.208   8.024
 2931TIP3    H232773   0.916   6.136   8.114
 2932TIP3   OH232774   0.999   6.252   8.938
 2932TIP3    H132775   1.006   6.307   9.020
 2932TIP3    H232776   1.065   6.182   8.950
 2933TIP3   OH232777   1.030   5.854   8.109
 2933TIP3    H132778   0.995   5.920   8.171
 2933TIP3    H232779   1.098   5.910   8.064
 2934TIP3   OH232780   0.724   7.300   7.825
 2934TIP3    H132781   0.745   7.380   7.776
 2934TIP3    H232782   0.703   7.329   7.917
 2935TIP3   OH232783   1.616   6.041   9.027
 2935TIP3    H132784   1.523   6.071   9.013
 2935TIP3    H232785   1.646   6.037   8.935
 2936TIP3   OH232786   1.478   6.419   8.427
 2936TIP3    H132787   1.396   6.374   8.398
 2936TIP3    H232788   1.525   6.349   8.478
 2937TIP3   OH232789   0.420   7.011   7.685
 2937TIP3    H132790   0.485   7.073   7.719
 2937TIP3    H232791   0.475   6.968   7.618
 2938TIP3   OH232792   0.252   6.275   7.605
 2938TIP3    H132793   0.244   6.370   7.617
 2938TIP3    H232794   0.169   6.251   7.560
 2939TIP3   OH232795   1.584   7.343   8.591
 2939TIP3    H132796   1.577   7.413   8.524
 2939TIP3    H232797   1.681   7.348   8.610
 2940TIP3   OH232798   0.330   5.760   8.469
 2940TIP3    H132799   0.311   5.755   8.373
 2940TIP3    H232800   0.295   5.673   8.499
 2941TIP3   OH232801   0.229   7.146   8.088
 2941TIP3    H132802   0.145   7.193   8.082
 2941TIP3    H232803   0.278   7.193   8.018
 2942TIP3   OH232804   0.151   7.411   9.216
 2942TIP3    H132805   0.211   7.386   9.288
 2942TIP3    H232806   0.106   7.327   9.194
 2943TIP3   OH232807   0.619   7.307   9.374
 2943TIP3    H132808   0.691   7.253   9.410
 2943TIP3    H232809   0.616   7.274   9.283
 2944TIP3   OH232810   1.269   7.143   9.251
 2944TIP3    H132811   1.234   7.056   9.281
 2944TIP3    H232812   1.343   7.156   9.312
 2945TIP3   OH232813   0.141   6.794   9.319
 2945TIP3    H132814   0.158   6.703   9.287
 2945TIP3    H232815   0.071   6.820   9.258
 2946TIP3   OH232816   0.813   6.789   9.253
 2946TIP3    H132817   0.779   6.822   9.169
 2946TIP3    H232818   0.817   6.691   9.242
 2947TIP3   OH232819   1.383   6.774   8.997
 2947TIP3    H132820   1.460   6.833   8.988
 2947TIP3    H232821   1.312   6.841   8.998
 2948TIP3   OH232822   0.217   6.512   9.255
 2948TIP3    H132823   0.275   6.434   9.246
 2948TIP3    H232824   0.205   6.514   9.351
 2949TIP3   OH232825   0.622   6.407   8.989
 2949TIP3    H132826   0.561   6.479   9.014
 2949TIP3    H232827   0.662   6.444   8.909
 2950TIP3   OH232828   1.132   6.662   9.312
 2950TIP3    H132829   1.227   6.662   9.316
 2950TIP3    H232830   1.110   6.592   9.379
 2951TIP3   OH232831   0.666   6.146   9.094
 2951TIP3    H132832   0.675   6.075   9.028
 2951TIP3    H232833   0.656   6.226   9.039
 2952TIP3   OH232834   0.704   5.983   8.850
 2952TIP3    H132835   0.755   6.031   8.780
 2952TIP3    H232836   0.614   5.976   8.810
 2953TIP3   OH232837   0.857   6.534   8.875
 2953TIP3    H132838   0.933   6.517   8.818
 2953TIP3    H232839   0.820   6.616   8.840
 2954TIP3   OH232840   1.299   6.307   9.362
 2954TIP3    H132841   1.317   6.212   9.367
 2954TIP3    H232842   1.383   6.349   9.377
 2955TIP3   OH232843   1.435   6.590   9.193
 2955TIP3    H132844   1.403   6.657   9.128
 2955TIP3    H232845   1.528   6.586   9.164
 2956TIP3   OH232846   0.509   6.271   9.285
 2956TIP3    H132847   0.432   6.213   9.269
 2956TIP3    H232848   0.573   6.233   9.222
 2957TIP3   OH232849   0.783   5.727   8.888
 2957TIP3    H132850   0.764   5.824   8.880
 2957TIP3    H232851   0.708   5.690   8.838
 2958TIP3   OH232852   0.909   6.160   9.253
 2958TIP3    H132853   0.880   6.138   9.343
 2958TIP3    H232854   0.831   6.139   9.200
 2959TIP3   OH232855   1.181   6.070   9.157
 2959TIP3    H132856   1.086   6.083   9.175
 2959TIP3    H232857   1.208   6.013   9.232
 2960TIP3   OH232858   1.339   5.936   9.348
 2960TIP3    H132859   1.334   5.839   9.356
 2960TIP3    H232860   1.316   5.969   9.438
 2961TIP3   OH232861   0.323   6.064   9.264
 2961TIP3    H132862   0.345   5.991   9.203
 2961TIP3    H232863   0.311   6.017   9.350
 2962TIP3   OH232864   0.803   5.667   9.159
 2962TIP3    H132865   0.871   5.597   9.158
 2962TIP3    H232866   0.792   5.681   9.063
 2963TIP3   OH232867   0.837   5.825   9.372
 2963TIP3    H132868   0.821   5.776   9.287
 2963TIP3    H232869   0.782   5.905   9.362
 2964TIP3   OH232870   0.147   6.979   7.633
 2964TIP3    H132871   0.242   6.992   7.652
 2964TIP3    H232872   0.145   6.913   7.562
 2965TIP3   OH232873   0.035   7.525   8.125
 2965TIP3    H132874  -0.044   7.479   8.094
 2965TIP3    H232875   0.054   7.463   8.197
 2966TIP3   OH232876   0.123   7.331   8.312
 2966TIP3    H132877   0.075   7.248   8.329
 2966TIP3    H232878   0.134   7.367   8.402
 2967TIP3   OH232879   1.859   7.374   8.623
 2967TIP3    H132880   1.855   7.419   8.708
 2967TIP3    H232881   1.906   7.451   8.579
 2968TIP3   OH232882   1.811   7.367   8.911
 2968TIP3    H132883   1.768   7.291   8.867
 2968TIP3    H232884   1.863   7.320   8.978
 2969TIP3   OH232885   1.659   6.938   9.378
 2969TIP3    H132886   1.567   6.940   9.410
 2969TIP3    H232887   1.695   7.022   9.413
 2970TIP3   OH232888   1.792   6.769   7.915
 2970TIP3    H132889   1.877   6.812   7.936
 2970TIP3    H232890   1.789   6.701   7.984
 2971TIP3   OH232891   1.828   6.580   8.104
 2971TIP3    H132892   1.750   6.533   8.141
 2971TIP3    H232893   1.884   6.595   8.183
 2972TIP3   OH232894   1.801   6.850   8.605
 2972TIP3    H132895   1.881   6.812   8.566
 2972TIP3    H232896   1.816   6.945   8.587
 2973TIP3   OH232897   1.657   7.140   8.831
 2973TIP3    H132898   1.588   7.175   8.890
 2973TIP3    H232899   1.603   7.101   8.760
 2974TIP3   OH232900   1.698   6.289   7.601
 2974TIP3    H132901   1.694   6.355   7.530
 2974TIP3    H232902   1.672   6.209   7.555
 2975TIP3   OH232903   1.608   6.428   8.164
 2975TIP3    H132904   1.592   6.332   8.158
 2975TIP3    H232905   1.575   6.448   8.254
 2976TIP3   OH232906   0.107   6.632   8.568
 2976TIP3    H132907   0.126   6.627   8.473
 2976TIP3    H232908   0.196   6.621   8.606
 2977TIP3   OH232909   1.695   6.624   9.143
 2977TIP3    H132910   1.758   6.549   9.140
 2977TIP3    H232911   1.754   6.702   9.129
 2978TIP3   OH232912   1.838   6.410   9.207
 2978TIP3    H132913   1.756   6.370   9.174
 2978TIP3    H232914   1.902   6.338   9.189
 2979TIP3   OH232915   1.575   6.186   8.010
 2979TIP3    H132916   1.603   6.093   8.021
 2979TIP3    H232917   1.655   6.225   7.971
 2980TIP3   OH232918   1.638   6.241   8.554
 2980TIP3    H132919   1.734   6.264   8.552
 2980TIP3    H232920   1.620   6.255   8.648
 2981TIP3   OH232921   1.645   6.313   8.832
 2981TIP3    H132922   1.556   6.341   8.861
 2981TIP3    H232923   1.688   6.398   8.809
 2982TIP3   OH232924   0.090   6.126   9.148
 2982TIP3    H132925   0.173   6.138   9.198
 2982TIP3    H232926   0.031   6.083   9.211
 2983TIP3   OH232927   1.873   5.719   9.365
 2983TIP3    H132928   1.908   5.653   9.303
 2983TIP3    H232929   1.882   5.801   9.310
 2984TIP3   OH232930   1.642   5.916   8.010
 2984TIP3    H132931   1.663   5.874   8.096
 2984TIP3    H232932   1.580   5.853   7.968
 2985TIP3   OH232933   0.191   5.995   8.475
 2985TIP3    H132934   0.240   5.913   8.496
 2985TIP3    H232935   0.246   6.065   8.514
 2986TIP3   OH232936   0.040   6.304   8.581
 2986TIP3    H132937   0.086   6.281   8.499
 2986TIP3    H232938   0.074   6.392   8.599
 2987TIP3   OH232939   1.824   5.929   9.200
 2987TIP3    H132940   1.730   5.955   9.195
 2987TIP3    H232941   1.827   5.873   9.120
 2988TIP3   OH232942   0.076   5.903   7.935
 2988TIP3    H132943  -0.017   5.926   7.947
 2988TIP3    H232944   0.114   5.982   7.892
 2989TIP3   OH232945   1.530   7.415   8.176
 2989TIP3    H132946   1.598   7.386   8.112
 2989TIP3    H232947   1.581   7.466   8.241
 2990TIP3   OH232948   0.067   5.800   8.823
 2990TIP3    H132949  -0.007   5.772   8.879
 2990TIP3    H232950   0.013   5.862   8.768
 2991TIP3   OH232951   0.273   7.113   9.226
 2991TIP3    H132952   0.188   7.130   9.182
 2991TIP3    H232953   0.248   7.101   9.318
 2992TIP3   OH232954   0.558   7.207   8.849
 2992TIP3    H132955   0.529   7.296   8.825
 2992TIP3    H232956   0.654   7.215   8.826
 2993TIP3   OH232957   0.996   7.350   9.144
 2993TIP3    H132958   1.009   7.316   9.235
 2993TIP3    H232959   1.086   7.381   9.120
 2994TIP3   OH232960   1.224   7.477   9.075
 2994TIP3    H132961   1.298   7.420   9.051
 2994TIP3    H232962   1.260   7.522   9.154
 2995TIP3   OH232963   1.726   5.738   8.986
 2995TIP3    H132964   1.644   5.768   8.945
 2995TIP3    H232965   1.743   5.655   8.935
 2996TIP3   OH232966   0.302   7.526   8.854
 2996TIP3    H132967   0.230   7.582   8.816
 2996TIP3    H232968   0.271   7.515   8.945
 2997TIP3   OH232969   0.555   7.487   8.761
 2997TIP3    H132970   0.466   7.505   8.801
 2997TIP3    H232971   0.550   7.546   8.683
 2998TIP3   OH232972   1.024   7.480   8.678
 2998TIP3    H132973   0.978   7.535   8.613
 2998TIP3    H232974   1.038   7.544   8.751
 2999TIP3   OH232975   1.251   7.359   8.782
 2999TIP3    H132976   1.167   7.389   8.743
 2999TIP3    H232977   1.302   7.442   8.773
 3000TIP3   OH232978   1.503   7.516   8.800
 3000TIP3    H132979   1.505   7.613   8.780
 3000TIP3    H232980   1.533   7.479   8.715
 3001TIP3   OH232981   0.255   7.399   8.544
 3001TIP3    H132982   0.241   7.354   8.630
 3001TIP3    H232983   0.335   7.357   8.506
 3002TIP3   OH232984   0.459   7.265   8.411
 3002TIP3    H132985   0.444   7.172   8.436
 3002TIP3    H232986   0.544   7.283   8.457
 3003TIP3   OH232987   0.719   7.315   8.501
 3003TIP3    H132988   0.735   7.223   8.475
 3003TIP3    H232989   0.725   7.310   8.598
 3004TIP3   OH232990   1.065   5.880   8.415
 3004TIP3    H132991   0.998   5.817   8.443
 3004TIP3    H232992   1.120   5.827   8.356
 3005TIP3   OH232993   1.577   5.678   8.411
 3005TIP3    H132994   1.640   5.745   8.372
 3005TIP3    H232995   1.490   5.722   8.397
 3006TIP3   OH232996   1.746   5.810   8.246
 3006TIP3    H132997   1.817   5.756   8.205
 3006TIP3    H232998   1.795   5.895   8.262
 3007TIP3   OH232999   0.306   5.742   8.200
 3007TIP3    H133000   0.225   5.723   8.148
 3007TIP3    H233001   0.351   5.656   8.190
 3008TIP3   OH233002   0.187   5.719   7.782
 3008TIP3    H133003   0.221   5.777   7.713
 3008TIP3    H233004   0.122   5.777   7.827
 3009TIP3   OH233005   0.748   5.736   8.177
 3009TIP3    H133006   0.839   5.770   8.169
 3009TIP3    H233007   0.745   5.714   8.270
 3010TIP3   OH233008   1.325   5.734   8.339
 3010TIP3    H133009   1.313   5.751   8.244
 3010TIP3    H233010   1.279   5.648   8.353
 3011TIP3   OH233011   1.447   5.742   7.922
 3011TIP3    H133012   1.377   5.800   7.889
 3011TIP3    H233013   1.405   5.653   7.921
 3012TIP3   OH233014   0.176   7.322   7.870
 3012TIP3    H133015   0.107   7.311   7.804
 3012TIP3    H233016   0.169   7.416   7.888
 3013TIP3   OH233017   0.866   5.941   7.860
 3013TIP3    H133018   0.888   5.881   7.933
 3013TIP3    H233019   0.872   6.025   7.910
 3014TIP3   OH233020   1.058   7.435   7.702
 3014TIP3    H133021   1.146   7.474   7.685
 3014TIP3    H233022   1.036   7.398   7.616
 3015TIP3   OH233023   1.728   7.398   7.977
 3015TIP3    H133024   1.708   7.315   7.925
 3015TIP3    H233025   1.719   7.469   7.911
 3016TIP3   OH233026   0.288   5.801   9.151
 3016TIP3    H133027   0.250   5.717   9.183
 3016TIP3    H233028   0.381   5.792   9.183
 3017TIP3   OH233029   0.494   5.735   9.309
 3017TIP3    H133030   0.583   5.701   9.288
 3017TIP3    H233031   0.453   5.656   9.348
 3018TIP3   OH233032   1.331   5.664   9.324
 3018TIP3    H133033   1.340   5.616   9.409
 3018TIP3    H233034   1.423   5.661   9.290
 3019TIP3   OH233035   1.652   7.269   9.186
 3019TIP3    H133036   1.571   7.256   9.131
 3019TIP3    H233037   1.640   7.364   9.208
 3020TIP3   OH233038   3.084   6.666   8.188
 3020TIP3    H133039   3.085   6.765   8.180
 3020TIP3    H233040   3.013   6.645   8.123
 3021TIP3   OH233041   2.993   6.578   8.532
 3021TIP3    H133042   2.978   6.519   8.607
 3021TIP3    H233043   2.944   6.531   8.463
 3022TIP3   OH233044   2.218   6.550   8.688
 3022TIP3    H133045   2.225   6.481   8.757
 3022TIP3    H233046   2.292   6.607   8.712
 3023TIP3   OH233047   3.348   6.875   8.363
 3023TIP3    H133048   3.309   6.807   8.417
 3023TIP3    H233049   3.355   6.947   8.428
 3024TIP3   OH233050   2.310   6.995   8.538
 3024TIP3    H133051   2.279   6.907   8.508
 3024TIP3    H233052   2.406   6.977   8.543
 3025TIP3   OH233053   1.978   6.354   8.080
 3025TIP3    H133054   1.926   6.437   8.086
 3025TIP3    H233055   1.915   6.296   8.035
 3026TIP3   OH233056   2.045   6.574   8.300
 3026TIP3    H133057   2.072   6.492   8.346
 3026TIP3    H233058   2.116   6.586   8.236
 3027TIP3   OH233059   3.062   7.394   8.386
 3027TIP3    H133060   3.127   7.326   8.357
 3027TIP3    H233061   3.040   7.359   8.472
 3028TIP3   OH233062   2.819   6.821   8.585
 3028TIP3    H133063   2.851   6.761   8.516
 3028TIP3    H233064   2.902   6.839   8.633
 3029TIP3   OH233065   3.677   5.990   8.653
 3029TIP3    H133066   3.697   6.047   8.731
 3029TIP3    H233067   3.737   6.030   8.589
 3030TIP3   OH233068   3.141   6.271   8.613
 3030TIP3    H133069   3.152   6.174   8.615
 3030TIP3    H233070   3.124   6.282   8.519
 3031TIP3   OH233071   2.495   6.101   8.228
 3031TIP3    H133072   2.459   6.170   8.286
 3031TIP3    H233073   2.433   6.031   8.261
 3032TIP3   OH233074   3.219   6.093   8.178
 3032TIP3    H133075   3.285   6.053   8.240
 3032TIP3    H233076   3.279   6.139   8.117
 3033TIP3   OH233077   2.099   6.325   8.403
 3033TIP3    H133078   2.167   6.275   8.456
 3033TIP3    H233079   2.121   6.288   8.315
 3034TIP3   OH233080   2.628   6.475   8.341
 3034TIP3    H133081   2.691   6.414   8.382
 3034TIP3    H233082   2.575   6.412   8.288
 3035TIP3   OH233083   3.722   6.129   8.882
 3035TIP3    H133084   3.662   6.206   8.872
 3035TIP3    H233085   3.727   6.120   8.978
 3036TIP3   OH233086   2.340   5.970   8.752
 3036TIP3    H133087   2.316   6.013   8.666
 3036TIP3    H233088   2.265   5.994   8.810
 3037TIP3   OH233089   3.065   6.915   8.093
 3037TIP3    H133090   3.041   6.895   8.001
 3037TIP3    H233091   3.038   7.010   8.098
 3038TIP3   OH233092   2.590   6.733   8.762
 3038TIP3    H133093   2.519   6.797   8.786
 3038TIP3    H233094   2.660   6.792   8.733
 3039TIP3   OH233095   3.402   6.025   8.372
 3039TIP3    H133096   3.380   5.946   8.423
 3039TIP3    H233097   3.472   6.064   8.427
 3040TIP3   OH233098   2.277   6.207   8.551
 3040TIP3    H133099   2.363   6.235   8.586
 3040TIP3    H233100   2.313   6.139   8.488
 3041TIP3   OH233101   2.436   6.933   8.845
 3041TIP3    H133102   2.430   7.025   8.811
 3041TIP3    H233103   2.347   6.925   8.888
 3042TIP3   OH233104   2.035   6.892   7.921
 3042TIP3    H133105   2.018   6.929   7.832
 3042TIP3    H233106   2.050   6.973   7.972
 3043TIP3   OH233107   3.403   7.060   8.602
 3043TIP3    H133108   3.306   7.073   8.611
 3043TIP3    H233109   3.430   7.151   8.579
 3044TIP3   OH233110   3.436   5.889   8.739
 3044TIP3    H133111   3.363   5.952   8.728
 3044TIP3    H233112   3.507   5.931   8.687
 3045TIP3   OH233113   2.732   5.701   8.484
 3045TIP3    H133114   2.714   5.606   8.476
 3045TIP3    H233115   2.644   5.732   8.516
 3046TIP3   OH233116   3.231   7.241   8.262
 3046TIP3    H133117   3.270   7.169   8.209
 3046TIP3    H233118   3.274   7.319   8.221
 3047TIP3   OH233119   3.350   7.032   8.112
 3047TIP3    H133120   3.324   6.964   8.047
 3047TIP3    H233121   3.354   6.983   8.195
 3048TIP3   OH233122   3.509   6.890   8.958
 3048TIP3    H133123   3.531   6.831   8.884
 3048TIP3    H233124   3.531   6.977   8.919
 3049TIP3   OH233125   2.966   6.590   7.942
 3049TIP3    H133126   2.891   6.637   7.900
 3049TIP3    H233127   3.031   6.588   7.868
 3050TIP3   OH233128   2.963   6.429   7.654
 3050TIP3    H133129   3.047   6.433   7.701
 3050TIP3    H233130   2.992   6.378   7.576
 3051TIP3   OH233131   3.696   6.524   8.762
 3051TIP3    H133132   3.638   6.601   8.762
 3051TIP3    H233133   3.752   6.544   8.685
 3052TIP3   OH233134   3.311   6.601   8.021
 3052TIP3    H133135   3.245   6.646   8.078
 3052TIP3    H233136   3.372   6.544   8.073
 3053TIP3   OH233137   3.286   6.410   8.935
 3053TIP3    H133138   3.257   6.467   9.008
 3053TIP3    H233139   3.219   6.433   8.865
 3054TIP3   OH233140   2.468   6.669   8.220
 3054TIP3    H133141   2.436   6.629   8.136
 3054TIP3    H233142   2.530   6.599   8.252
 3055TIP3   OH233143   2.600   7.004   8.487
 3055TIP3    H133144   2.601   6.954   8.405
 3055TIP3    H233145   2.678   6.970   8.533
 3056TIP3   OH233146   2.501   6.545   8.587
 3056TIP3    H133147   2.555   6.554   8.506
 3056TIP3    H233148   2.541   6.611   8.648
 3057TIP3   OH233149   3.145   7.101   8.657
 3057TIP3    H133150   3.115   7.164   8.724
 3057TIP3    H233151   3.116   7.016   8.698
 3058TIP3   OH233152   2.597   6.986   9.056
 3058TIP3    H133153   2.554   7.059   9.105
 3058TIP3    H233154   2.529   6.965   8.986
 3059TIP3   OH233155   3.193   6.523   7.797
 3059TIP3    H133156   3.255   6.543   7.871
 3059TIP3    H233157   3.231   6.571   7.722
 3060TIP3   OH233158   2.292   6.602   8.972
 3060TIP3    H133159   2.296   6.670   9.042
 3060TIP3    H233160   2.198   6.608   8.950
 3061TIP3   OH233161   2.968   7.194   8.141
 3061TIP3    H133162   3.010   7.225   8.222
 3061TIP3    H233163   2.911   7.268   8.118
 3062TIP3   OH233164   2.421   7.188   9.130
 3062TIP3    H133165   2.414   7.179   9.033
 3062TIP3    H233166   2.328   7.174   9.157
 3063TIP3   OH233167   2.367   6.574   7.968
 3063TIP3    H133168   2.331   6.656   7.936
 3063TIP3    H233169   2.299   6.506   7.966
 3064TIP3   OH233170   3.681   7.135   7.626
 3064TIP3    H133171   3.698   7.230   7.633
 3064TIP3    H233172   3.770   7.096   7.616
 3065TIP3   OH233173   1.974   6.813   8.872
 3065TIP3    H133174   1.930   6.806   8.785
 3065TIP3    H233175   1.982   6.718   8.894
 3066TIP3   OH233176   1.950   7.085   8.550
 3066TIP3    H133177   2.046   7.078   8.547
 3066TIP3    H233178   1.939   7.171   8.596
 3067TIP3   OH233179   3.774   7.157   9.119
 3067TIP3    H133180   3.762   7.061   9.115
 3067TIP3    H233181   3.686   7.182   9.157
 3068TIP3   OH233182   2.869   7.111   9.004
 3068TIP3    H133183   2.875   7.195   9.055
 3068TIP3    H233184   2.781   7.076   9.028
 3069TIP3   OH233185   2.913   7.485   7.981
 3069TIP3    H133186   2.909   7.481   7.884
 3069TIP3    H233187   2.917   7.580   8.002
 3070TIP3   OH233188   2.280   7.371   8.166
 3070TIP3    H133189   2.293   7.334   8.256
 3070TIP3    H233190   2.193   7.333   8.145
 3071TIP3   OH233191   3.185   7.406   7.962
 3071TIP3    H133192   3.089   7.406   7.978
 3071TIP3    H233193   3.211   7.327   8.012
 3072TIP3   OH233194   3.490   6.304   9.163
 3072TIP3    H133195   3.437   6.343   9.093
 3072TIP3    H233196   3.488   6.210   9.139
 3073TIP3   OH233197   2.203   6.944   8.965
 3073TIP3    H133198   2.224   6.909   9.053
 3073TIP3    H233199   2.116   6.905   8.944
 3074TIP3   OH233200   2.477   5.752   8.587
 3074TIP3    H133201   2.398   5.765   8.529
 3074TIP3    H233202   2.473   5.848   8.606
 3075TIP3   OH233203   2.936   5.758   8.896
 3075TIP3    H133204   2.975   5.716   8.974
 3075TIP3    H233205   2.839   5.747   8.911
 3076TIP3   OH233206   3.265   6.145   8.989
 3076TIP3    H133207   3.206   6.119   9.064
 3076TIP3    H233208   3.241   6.236   8.965
 3077TIP3   OH233209   2.892   6.016   7.630
 3077TIP3    H133210   2.871   6.012   7.724
 3077TIP3    H233211   2.879   5.926   7.600
 3078TIP3   OH233212   2.486   6.294   8.690
 3078TIP3    H133213   2.408   6.288   8.748
 3078TIP3    H233214   2.473   6.382   8.647
 3079TIP3   OH233215   2.463   6.337   8.148
 3079TIP3    H133216   2.386   6.279   8.160
 3079TIP3    H233217   2.514   6.274   8.093
 3080TIP3   OH233218   3.045   6.364   8.058
 3080TIP3    H133219   2.987   6.430   8.012
 3080TIP3    H233220   3.093   6.328   7.980
 3081TIP3   OH233221   2.936   6.371   9.188
 3081TIP3    H133222   2.882   6.295   9.221
 3081TIP3    H233223   3.016   6.364   9.243
 3082TIP3   OH233224   3.140   6.306   8.327
 3082TIP3    H133225   3.084   6.344   8.258
 3082TIP3    H233226   3.143   6.214   8.293
 3083TIP3   OH233227   2.241   6.316   8.855
 3083TIP3    H133228   2.252   6.354   8.944
 3083TIP3    H233229   2.202   6.229   8.873
 3084TIP3   OH233230   1.906   6.023   8.251
 3084TIP3    H133231   1.974   6.020   8.322
 3084TIP3    H233232   1.956   5.989   8.175
 3085TIP3   OH233233   2.038   6.102   7.796
 3085TIP3    H133234   2.084   6.154   7.730
 3085TIP3    H233235   1.965   6.162   7.822
 3086TIP3   OH233236   3.058   6.458   8.792
 3086TIP3    H133237   3.088   6.388   8.730
 3086TIP3    H233238   3.002   6.407   8.854
 3087TIP3   OH233239   2.748   6.053   8.274
 3087TIP3    H133240   2.649   6.057   8.287
 3087TIP3    H233241   2.781   6.036   8.362
 3088TIP3   OH233242   2.210   6.213   8.162
 3088TIP3    H133243   2.123   6.222   8.119
 3088TIP3    H233244   2.244   6.129   8.124
 3089TIP3   OH233245   2.576   6.218   7.923
 3089TIP3    H133246   2.672   6.225   7.939
 3089TIP3    H233247   2.556   6.282   7.854
 3090TIP3   OH233248   3.172   5.981   8.597
 3090TIP3    H133249   3.104   5.984   8.667
 3090TIP3    H233250   3.122   5.953   8.519
 3091TIP3   OH233251   2.433   6.349   7.669
 3091TIP3    H133252   2.398   6.282   7.610
 3091TIP3    H233253   2.528   6.351   7.643
 3092TIP3   OH233254   3.492   7.543   9.230
 3092TIP3    H133255   3.518   7.581   9.144
 3092TIP3    H233256   3.565   7.575   9.284
 3093TIP3   OH233257   2.259   6.794   9.187
 3093TIP3    H133258   2.333   6.816   9.247
 3093TIP3    H233259   2.183   6.798   9.249
 3094TIP3   OH233260   2.865   6.335   8.465
 3094TIP3    H133261   2.914   6.273   8.409
 3094TIP3    H233262   2.842   6.278   8.540
 3095TIP3   OH233263   2.344   5.938   8.082
 3095TIP3    H133264   2.332   5.847   8.111
 3095TIP3    H233265   2.438   5.943   8.061
 3096TIP3   OH233266   2.729   6.167   8.703
 3096TIP3    H133267   2.643   6.215   8.711
 3096TIP3    H233268   2.780   6.201   8.778
 3097TIP3   OH233269   2.776   6.783   7.868
 3097TIP3    H133270   2.695   6.735   7.854
 3097TIP3    H233271   2.764   6.802   7.964
 3098TIP3   OH233272   3.498   6.706   8.756
 3098TIP3    H133273   3.558   6.754   8.694
 3098TIP3    H233274   3.416   6.714   8.703
 3099TIP3   OH233275   2.937   6.815   9.001
 3099TIP3    H133276   2.897   6.772   9.078
 3099TIP3    H233277   2.906   6.906   9.008
 3100TIP3   OH233278   3.239   6.264   7.870
 3100TIP3    H133279   3.331   6.241   7.889
 3100TIP3    H233280   3.247   6.332   7.800
 3101TIP3   OH233281   2.294   6.726   8.453
 3101TIP3    H133282   2.361   6.719   8.382
 3101TIP3    H233283   2.302   6.641   8.499
 3102TIP3   OH233284   2.997   6.930   7.782
 3102TIP3    H133285   2.962   7.018   7.805
 3102TIP3    H233286   2.920   6.873   7.797
 3103TIP3   OH233287   1.990   6.568   8.982
 3103TIP3    H133288   2.011   6.521   9.064
 3103TIP3    H233289   1.934   6.505   8.932
 3104TIP3   OH233290   2.696   6.524   9.197
 3104TIP3    H133291   2.663   6.491   9.112
 3104TIP3    H233292   2.788   6.492   9.198
 3105TIP3   OH233293   3.164   7.052   8.996
 3105TIP3    H133294   3.073   7.074   8.969
 3105TIP3    H233295   3.159   7.089   9.086
 3106TIP3   OH233296   3.737   6.276   7.822
 3106TIP3    H133297   3.673   6.243   7.757
 3106TIP3    H233298   3.734   6.372   7.805
 3107TIP3   OH233299   3.727   6.859   9.111
 3107TIP3    H133300   3.641   6.889   9.076
 3107TIP3    H233301   3.785   6.859   9.032
 3108TIP3   OH233302   3.555   7.160   7.871
 3108TIP3    H133303   3.524   7.075   7.904
 3108TIP3    H233304   3.586   7.137   7.780
 3109TIP3   OH233305   3.280   6.638   8.581
 3109TIP3    H133306   3.185   6.619   8.568
 3109TIP3    H233307   3.322   6.562   8.536
 3110TIP3   OH233308   2.532   7.072   8.192
 3110TIP3    H133309   2.581   7.153   8.171
 3110TIP3    H233310   2.444   7.095   8.158
 3111TIP3   OH233311   2.672   6.839   8.141
 3111TIP3    H133312   2.640   6.931   8.153
 3111TIP3    H233313   2.602   6.789   8.189
 3112TIP3   OH233314   2.718   7.257   8.786
 3112TIP3    H133315   2.765   7.337   8.756
 3112TIP3    H233316   2.780   7.222   8.852
 3113TIP3   OH233317   2.541   7.336   8.098
 3113TIP3    H133318   2.445   7.351   8.112
 3113TIP3    H233319   2.578   7.421   8.131
 3114TIP3   OH233320   3.071   6.857   8.745
 3114TIP3    H133321   3.037   6.839   8.835
 3114TIP3    H233322   3.132   6.785   8.727
 3115TIP3   OH233323   3.299   6.961   7.654
 3115TIP3    H133324   3.331   6.915   7.733
 3115TIP3    H233325   3.205   6.944   7.663
 3116TIP3   OH233326   3.352   7.315   8.995
 3116TIP3    H133327   3.283   7.266   8.948
 3116TIP3    H233328   3.370   7.385   8.929
 3117TIP3   OH233329   3.749   7.407   7.673
 3117TIP3    H133330   3.827   7.465   7.667
 3117TIP3    H233331   3.683   7.464   7.714
 3118TIP3   OH233332   2.158   6.042   8.936
 3118TIP3    H133333   2.067   6.075   8.930
 3118TIP3    H233334   2.148   5.955   8.977
 3119TIP3   OH233335   3.382   6.827   7.884
 3119TIP3    H133336   3.361   6.747   7.933
 3119TIP3    H233337   3.480   6.828   7.888
 3120TIP3   OH233338   2.120   7.216   8.778
 3120TIP3    H133339   2.153   7.124   8.779
 3120TIP3    H233340   2.146   7.249   8.864
 3121TIP3   OH233341   2.593   7.027   7.748
 3121TIP3    H133342   2.619   6.977   7.825
 3121TIP3    H233343   2.601   7.119   7.780
 3122TIP3   OH233344   3.032   6.018   8.832
 3122TIP3    H133345   3.104   6.024   8.895
 3122TIP3    H233346   2.993   5.930   8.853
 3123TIP3   OH233347   3.108   5.978   7.937
 3123TIP3    H133348   3.127   6.025   7.854
 3123TIP3    H233349   3.167   6.019   8.001
 3124TIP3   OH233350   2.872   7.187   7.820
 3124TIP3    H133351   2.793   7.242   7.828
 3124TIP3    H233352   2.930   7.241   7.764
 3125TIP3   OH233353   2.829   6.149   8.022
 3125TIP3    H133354   2.907   6.206   8.027
 3125TIP3    H233355   2.797   6.134   8.114
 3126TIP3   OH233356   2.883   6.250   8.940
 3126TIP3    H133357   2.889   6.306   9.020
 3126TIP3    H233358   2.951   6.183   8.951
 3127TIP3   OH233359   2.914   5.855   8.109
 3127TIP3    H133360   2.879   5.922   8.171
 3127TIP3    H233361   2.982   5.911   8.064
 3128TIP3   OH233362   2.608   7.299   7.819
 3128TIP3    H133363   2.639   7.381   7.782
 3128TIP3    H233364   2.586   7.323   7.912
 3129TIP3   OH233365   3.502   6.038   9.024
 3129TIP3    H133366   3.409   6.068   9.012
 3129TIP3    H233367   3.532   6.034   8.932
 3130TIP3   OH233368   3.361   6.420   8.424
 3130TIP3    H133369   3.281   6.368   8.405
 3130TIP3    H233370   3.414   6.353   8.474
 3131TIP3   OH233371   2.307   7.001   7.693
 3131TIP3    H133372   2.365   7.074   7.718
 3131TIP3    H233373   2.348   6.976   7.610
 3132TIP3   OH233374   3.471   7.342   8.592
 3132TIP3    H133375   3.461   7.412   8.524
 3132TIP3    H233376   3.567   7.348   8.610
 3133TIP3   OH233377   2.208   5.748   8.478
 3133TIP3    H133378   2.201   5.757   8.380
 3133TIP3    H233379   2.171   5.661   8.497
 3134TIP3   OH233380   2.114   7.149   8.088
 3134TIP3    H133381   2.028   7.192   8.083
 3134TIP3    H233382   2.161   7.193   8.017
 3135TIP3   OH233383   2.033   7.411   9.214
 3135TIP3    H133384   2.094   7.394   9.289
 3135TIP3    H233385   1.994   7.324   9.197
 3136TIP3   OH233386   2.507   7.306   9.377
 3136TIP3    H133387   2.580   7.252   9.407
 3136TIP3    H233388   2.500   7.278   9.284
 3137TIP3   OH233389   3.154   7.142   9.252
 3137TIP3    H133390   3.121   7.054   9.281
 3137TIP3    H233391   3.230   7.154   9.312
 3138TIP3   OH233392   2.022   6.788   9.319
 3138TIP3    H133393   2.043   6.700   9.284
 3138TIP3    H233394   1.954   6.819   9.256
 3139TIP3   OH233395   2.693   6.790   9.253
 3139TIP3    H133396   2.663   6.821   9.166
 3139TIP3    H233397   2.705   6.693   9.243
 3140TIP3   OH233398   3.271   6.773   8.991
 3140TIP3    H133399   3.343   6.840   8.988
 3140TIP3    H233400   3.196   6.837   8.999
 3141TIP3   OH233401   2.112   6.511   9.254
 3141TIP3    H133402   2.162   6.429   9.245
 3141TIP3    H233403   2.098   6.515   9.350
 3142TIP3   OH233404   2.508   6.407   8.989
 3142TIP3    H133405   2.448   6.480   9.013
 3142TIP3    H233406   2.548   6.444   8.908
 3143TIP3   OH233407   2.686   6.460   7.581
 3143TIP3    H133408   2.678   6.427   7.491
 3143TIP3    H233409   2.785   6.452   7.591
 3144TIP3   OH233410   3.019   6.648   9.301
 3144TIP3    H133411   3.110   6.672   9.323
 3144TIP3    H233412   2.998   6.598   9.382
 3145TIP3   OH233413   2.548   6.145   9.094
 3145TIP3    H133414   2.560   6.075   9.028
 3145TIP3    H233415   2.544   6.227   9.039
 3146TIP3   OH233416   2.590   5.984   8.848
 3146TIP3    H133417   2.639   6.030   8.777
 3146TIP3    H233418   2.500   5.976   8.809
 3147TIP3   OH233419   2.742   6.534   8.875
 3147TIP3    H133420   2.818   6.517   8.819
 3147TIP3    H233421   2.705   6.617   8.840
 3148TIP3   OH233422   3.183   6.307   9.362
 3148TIP3    H133423   3.207   6.213   9.365
 3148TIP3    H233424   3.267   6.352   9.379
 3149TIP3   OH233425   3.320   6.579   9.172
 3149TIP3    H133426   3.289   6.665   9.138
 3149TIP3    H233427   3.417   6.591   9.183
 3150TIP3   OH233428   2.394   6.271   9.287
 3150TIP3    H133429   2.318   6.212   9.270
 3150TIP3    H233430   2.460   6.233   9.224
 3151TIP3   OH233431   2.667   5.727   8.890
 3151TIP3    H133432   2.649   5.823   8.879
 3151TIP3    H233433   2.593   5.691   8.837
 3152TIP3   OH233434   2.794   6.159   9.253
 3152TIP3    H133435   2.762   6.136   9.342
 3152TIP3    H233436   2.717   6.139   9.198
 3153TIP3   OH233437   3.067   6.071   9.160
 3153TIP3    H133438   2.971   6.082   9.173
 3153TIP3    H233439   3.092   6.010   9.232
 3154TIP3   OH233440   3.225   5.937   9.351
 3154TIP3    H133441   3.221   5.839   9.355
 3154TIP3    H233442   3.201   5.967   9.441
 3155TIP3   OH233443   2.202   6.065   9.263
 3155TIP3    H133444   2.227   5.991   9.205
 3155TIP3    H233445   2.193   6.020   9.350
 3156TIP3   OH233446   2.689   5.667   9.159
 3156TIP3    H133447   2.757   5.597   9.158
 3156TIP3    H233448   2.677   5.680   9.063
 3157TIP3   OH233449   2.725   5.828   9.372
 3157TIP3    H133450   2.708   5.777   9.289
 3157TIP3    H233451   2.666   5.904   9.362
 3158TIP3   OH233452   2.033   6.965   7.642
 3158TIP3    H133453   2.128   6.991   7.651
 3158TIP3    H233454   2.032   6.924   7.555
 3159TIP3   OH233455   1.908   7.512   8.129
 3159TIP3    H133456   1.833   7.464   8.087
 3159TIP3    H233457   1.933   7.452   8.202
 3160TIP3   OH233458   1.990   7.327   8.319
 3160TIP3    H133459   1.951   7.242   8.343
 3160TIP3    H233460   2.009   7.365   8.407
 3161TIP3   OH233461   3.742   7.409   8.612
 3161TIP3    H133462   3.744   7.425   8.707
 3161TIP3    H233463   3.812   7.467   8.582
 3162TIP3   OH233464   3.699   7.367   8.908
 3162TIP3    H133465   3.652   7.291   8.869
 3162TIP3    H233466   3.747   7.321   8.979
 3163TIP3   OH233467   3.541   6.938   9.371
 3163TIP3    H133468   3.452   6.937   9.412
 3163TIP3    H233469   3.579   7.018   9.414
 3164TIP3   OH233470   3.670   6.782   7.930
 3164TIP3    H133471   3.762   6.811   7.928
 3164TIP3    H233472   3.679   6.699   7.979
 3165TIP3   OH233473   3.712   6.576   8.101
 3165TIP3    H133474   3.636   6.531   8.143
 3165TIP3    H233475   3.772   6.594   8.176
 3166TIP3   OH233476   3.686   6.848   8.608
 3166TIP3    H133477   3.766   6.812   8.565
 3166TIP3    H233478   3.700   6.943   8.588
 3167TIP3   OH233479   3.542   7.139   8.832
 3167TIP3    H133480   3.474   7.177   8.889
 3167TIP3    H233481   3.487   7.103   8.758
 3168TIP3   OH233482   3.477   6.432   8.164
 3168TIP3    H133483   3.483   6.334   8.159
 3168TIP3    H233484   3.469   6.446   8.261
 3169TIP3   OH233485   1.994   6.637   8.569
 3169TIP3    H133486   2.010   6.629   8.473
 3169TIP3    H233487   2.083   6.618   8.604
 3170TIP3   OH233488   3.579   6.625   9.122
 3170TIP3    H133489   3.639   6.551   9.147
 3170TIP3    H233490   3.640   6.702   9.134
 3171TIP3   OH233491   3.729   6.413   9.194
 3171TIP3    H133492   3.642   6.369   9.184
 3171TIP3    H233493   3.787   6.335   9.191
 3172TIP3   OH233494   3.460   6.188   8.009
 3172TIP3    H133495   3.487   6.094   8.021
 3172TIP3    H233496   3.540   6.225   7.971
 3173TIP3   OH233497   3.522   6.246   8.553
 3173TIP3    H133498   3.620   6.262   8.551
 3173TIP3    H233499   3.507   6.251   8.648
 3174TIP3   OH233500   3.531   6.313   8.836
 3174TIP3    H133501   3.438   6.336   8.857
 3174TIP3    H233502   3.575   6.395   8.803
 3175TIP3   OH233503   1.955   6.168   9.188
 3175TIP3    H133504   2.050   6.145   9.203
 3175TIP3    H233505   1.911   6.082   9.209
 3176TIP3   OH233506   3.758   5.720   9.365
 3176TIP3    H133507   3.793   5.653   9.303
 3176TIP3    H233508   3.768   5.801   9.310
 3177TIP3   OH233509   3.528   5.914   8.013
 3177TIP3    H133510   3.548   5.871   8.099
 3177TIP3    H233511   3.466   5.851   7.970
 3178TIP3   OH233512   2.073   5.997   8.472
 3178TIP3    H133513   2.125   5.915   8.490
 3178TIP3    H233514   2.134   6.064   8.506
 3179TIP3   OH233515   1.903   6.296   8.573
 3179TIP3    H133516   1.960   6.270   8.498
 3179TIP3    H233517   1.951   6.376   8.599
 3180TIP3   OH233518   3.710   5.929   9.200
 3180TIP3    H133519   3.616   5.957   9.195
 3180TIP3    H233520   3.712   5.874   9.121
 3181TIP3   OH233521   3.724   5.918   7.676
 3181TIP3    H133522   3.752   5.850   7.614
 3181TIP3    H233523   3.787   5.987   7.663
 3182TIP3   OH233524   1.939   5.923   7.981
 3182TIP3    H133525   1.845   5.942   7.967
 3182TIP3    H233526   1.982   5.967   7.906
 3183TIP3   OH233527   3.414   7.415   8.175
 3183TIP3    H133528   3.482   7.384   8.114
 3183TIP3    H233529   3.464   7.466   8.240
 3184TIP3   OH233530   1.935   5.787   8.810
 3184TIP3    H133531   1.868   5.767   8.878
 3184TIP3    H233532   1.889   5.854   8.755
 3185TIP3   OH233533   2.160   7.105   9.225
 3185TIP3    H133534   2.076   7.129   9.181
 3185TIP3    H233535   2.133   7.099   9.317
 3186TIP3   OH233536   2.448   7.208   8.854
 3186TIP3    H133537   2.416   7.295   8.826
 3186TIP3    H233538   2.541   7.216   8.823
 3187TIP3   OH233539   2.881   7.349   9.143
 3187TIP3    H133540   2.894   7.315   9.234
 3187TIP3    H233541   2.971   7.381   9.119
 3188TIP3   OH233542   3.109   7.477   9.075
 3188TIP3    H133543   3.184   7.420   9.051
 3188TIP3    H233544   3.145   7.522   9.155
 3189TIP3   OH233545   3.612   5.738   8.987
 3189TIP3    H133546   3.529   5.768   8.945
 3189TIP3    H233547   3.628   5.655   8.935
 3190TIP3   OH233548   2.190   7.526   8.854
 3190TIP3    H133549   2.122   7.581   8.812
 3190TIP3    H233550   2.157   7.515   8.944
 3191TIP3   OH233551   2.438   7.487   8.762
 3191TIP3    H133552   2.349   7.507   8.799
 3191TIP3    H233553   2.436   7.546   8.684
 3192TIP3   OH233554   2.910   7.480   8.678
 3192TIP3    H133555   2.864   7.535   8.613
 3192TIP3    H233556   2.923   7.544   8.751
 3193TIP3   OH233557   3.137   7.358   8.782
 3193TIP3    H133558   3.053   7.388   8.743
 3193TIP3    H233559   3.187   7.441   8.772
 3194TIP3   OH233560   3.393   7.516   8.802
 3194TIP3    H133561   3.389   7.612   8.780
 3194TIP3    H233562   3.417   7.479   8.714
 3195TIP3   OH233563   2.138   7.390   8.544
 3195TIP3    H133564   2.129   7.350   8.633
 3195TIP3    H233565   2.222   7.357   8.509
 3196TIP3   OH233566   2.348   7.265   8.411
 3196TIP3    H133567   2.330   7.173   8.437
 3196TIP3    H233568   2.432   7.282   8.458
 3197TIP3   OH233569   2.607   7.315   8.500
 3197TIP3    H133570   2.621   7.223   8.474
 3197TIP3    H233571   2.611   7.310   8.597
 3198TIP3   OH233572   2.955   5.881   8.416
 3198TIP3    H133573   2.884   5.820   8.442
 3198TIP3    H233574   3.005   5.827   8.354
 3199TIP3   OH233575   3.464   5.684   8.419
 3199TIP3    H133576   3.525   5.745   8.370
 3199TIP3    H233577   3.376   5.720   8.397
 3200TIP3   OH233578   3.631   5.810   8.250
 3200TIP3    H133579   3.699   5.753   8.208
 3200TIP3    H233580   3.682   5.894   8.259
 3201TIP3   OH233581   2.186   5.740   8.201
 3201TIP3    H133582   2.108   5.723   8.147
 3201TIP3    H233583   2.234   5.656   8.194
 3202TIP3   OH233584   2.637   5.730   8.175
 3202TIP3    H133585   2.724   5.773   8.172
 3202TIP3    H233586   2.628   5.718   8.270
 3203TIP3   OH233587   3.208   5.737   8.339
 3203TIP3    H133588   3.200   5.749   8.243
 3203TIP3    H233589   3.166   5.649   8.352
 3204TIP3   OH233590   3.336   5.740   7.912
 3204TIP3    H133591   3.262   5.799   7.889
 3204TIP3    H233592   3.290   5.655   7.928
 3205TIP3   OH233593   2.057   7.318   7.873
 3205TIP3    H133594   1.990   7.308   7.804
 3205TIP3    H233595   2.055   7.412   7.891
 3206TIP3   OH233596   2.756   5.935   7.865
 3206TIP3    H133597   2.777   5.882   7.943
 3206TIP3    H233598   2.755   6.023   7.907
 3207TIP3   OH233599   2.939   7.439   7.702
 3207TIP3    H133600   3.031   7.466   7.689
 3207TIP3    H233601   2.925   7.390   7.620
 3208TIP3   OH233602   3.611   7.397   7.976
 3208TIP3    H133603   3.594   7.315   7.923
 3208TIP3    H233604   3.606   7.469   7.914
 3209TIP3   OH233605   2.176   5.797   9.143
 3209TIP3    H133606   2.136   5.718   9.183
 3209TIP3    H233607   2.266   5.793   9.183
 3210TIP3   OH233608   2.375   5.737   9.310
 3210TIP3    H133609   2.464   5.703   9.289
 3210TIP3    H233610   2.338   5.655   9.349
 3211TIP3   OH233611   3.216   5.664   9.324
 3211TIP3    H133612   3.226   5.617   9.409
 3211TIP3    H233613   3.308   5.660   9.290
 3212TIP3   OH233614   3.538   7.270   9.186
 3212TIP3    H133615   3.457   7.257   9.131
 3212TIP3    H233616   3.526   7.365   9.208
 3213TIP3   OH233617   4.983   6.658   8.185
 3213TIP3    H133618   4.980   6.756   8.181
 3213TIP3    H233619   4.911   6.633   8.125
 3214TIP3   OH233620   4.866   6.583   8.534
 3214TIP3    H133621   4.867   6.518   8.606
 3214TIP3    H233622   4.831   6.531   8.460
 3215TIP3   OH233623   4.103   6.551   8.688
 3215TIP3    H133624   4.111   6.482   8.758
 3215TIP3    H233625   4.178   6.607   8.712
 3216TIP3   OH233626   5.235   6.877   8.363
 3216TIP3    H133627   5.195   6.805   8.413
 3216TIP3    H233628   5.239   6.948   8.431
 3217TIP3   OH233629   4.194   6.995   8.539
 3217TIP3    H133630   4.164   6.908   8.508
 3217TIP3    H233631   4.289   6.977   8.546
 3218TIP3   OH233632   3.860   6.347   8.086
 3218TIP3    H133633   3.818   6.436   8.087
 3218TIP3    H233634   3.799   6.298   8.030
 3219TIP3   OH233635   3.930   6.573   8.303
 3219TIP3    H133636   3.959   6.491   8.348
 3219TIP3    H233637   4.001   6.587   8.239
 3220TIP3   OH233638   4.950   7.369   8.392
 3220TIP3    H133639   5.019   7.305   8.362
 3220TIP3    H233640   4.932   7.337   8.482
 3221TIP3   OH233641   4.705   6.824   8.579
 3221TIP3    H133642   4.739   6.757   8.518
 3221TIP3    H233643   4.785   6.838   8.633
 3222TIP3   OH233644   5.564   5.989   8.654
 3222TIP3    H133645   5.582   6.047   8.731
 3222TIP3    H233646   5.622   6.030   8.588
 3223TIP3   OH233647   5.022   6.269   8.614
 3223TIP3    H133648   5.039   6.174   8.615
 3223TIP3    H233649   5.011   6.283   8.518
 3224TIP3   OH233650   4.333   6.078   8.335
 3224TIP3    H133651   4.345   6.161   8.285
 3224TIP3    H233652   4.294   6.021   8.266
 3225TIP3   OH233653   5.106   6.086   8.172
 3225TIP3    H133654   5.171   6.054   8.239
 3225TIP3    H233655   5.162   6.144   8.119
 3226TIP3   OH233656   3.995   6.320   8.408
 3226TIP3    H133657   4.062   6.266   8.454
 3226TIP3    H233658   4.006   6.289   8.318
 3227TIP3   OH233659   4.510   6.475   8.342
 3227TIP3    H133660   4.579   6.417   8.379
 3227TIP3    H233661   4.460   6.410   8.289
 3228TIP3   OH233662   5.607   6.129   8.883
 3228TIP3    H133663   5.550   6.207   8.872
 3228TIP3    H233664   5.613   6.126   8.980
 3229TIP3   OH233665   4.225   5.968   8.738
 3229TIP3    H133666   4.196   6.026   8.664
 3229TIP3    H233667   4.157   5.991   8.807
 3230TIP3   OH233668   4.943   6.914   8.095
 3230TIP3    H133669   4.932   6.891   8.001
 3230TIP3    H233670   4.926   7.011   8.097
 3231TIP3   OH233671   4.475   6.732   8.762
 3231TIP3    H133672   4.405   6.797   8.786
 3231TIP3    H233673   4.546   6.792   8.734
 3232TIP3   OH233674   5.288   6.022   8.371
 3232TIP3    H133675   5.266   5.944   8.424
 3232TIP3    H233676   5.356   6.064   8.427
 3233TIP3   OH233677   4.182   6.153   8.543
 3233TIP3    H133678   4.245   6.222   8.574
 3233TIP3    H233679   4.233   6.113   8.468
 3234TIP3   OH233680   4.320   6.933   8.844
 3234TIP3    H133681   4.316   7.025   8.811
 3234TIP3    H233682   4.232   6.925   8.888
 3235TIP3   OH233683   3.928   6.892   7.922
 3235TIP3    H133684   3.901   6.924   7.834
 3235TIP3    H233685   3.935   6.976   7.972
 3236TIP3   OH233686   5.289   7.061   8.600
 3236TIP3    H133687   5.192   7.073   8.612
 3236TIP3    H233688   5.315   7.153   8.579
 3237TIP3   OH233689   5.321   5.889   8.738
 3237TIP3    H133690   5.249   5.953   8.728
 3237TIP3    H233691   5.393   5.931   8.687
 3238TIP3   OH233692   4.617   5.702   8.485
 3238TIP3    H133693   4.602   5.606   8.477
 3238TIP3    H233694   4.529   5.733   8.516
 3239TIP3   OH233695   5.119   7.239   8.257
 3239TIP3    H133696   5.159   7.165   8.207
 3239TIP3    H233697   5.165   7.315   8.216
 3240TIP3   OH233698   5.238   7.032   8.110
 3240TIP3    H133699   5.204   6.964   8.050
 3240TIP3    H233700   5.240   6.982   8.194
 3241TIP3   OH233701   5.397   6.893   8.960
 3241TIP3    H133702   5.412   6.827   8.888
 3241TIP3    H233703   5.418   6.976   8.914
 3242TIP3   OH233704   4.847   6.586   7.934
 3242TIP3    H133705   4.781   6.641   7.891
 3242TIP3    H233706   4.920   6.583   7.868
 3243TIP3   OH233707   5.586   6.523   8.760
 3243TIP3    H133708   5.522   6.596   8.766
 3243TIP3    H233709   5.638   6.549   8.681
 3244TIP3   OH233710   5.194   6.601   8.029
 3244TIP3    H133711   5.120   6.626   8.088
 3244TIP3    H233712   5.241   6.535   8.084
 3245TIP3   OH233713   5.186   6.419   8.942
 3245TIP3    H133714   5.187   6.500   8.994
 3245TIP3    H233715   5.124   6.447   8.872
 3246TIP3   OH233716   4.355   6.668   8.221
 3246TIP3    H133717   4.320   6.628   8.138
 3246TIP3    H233718   4.413   6.596   8.255
 3247TIP3   OH233719   4.486   7.006   8.486
 3247TIP3    H133720   4.483   6.949   8.410
 3247TIP3    H233721   4.563   6.970   8.535
 3248TIP3   OH233722   4.386   6.543   8.587
 3248TIP3    H133723   4.441   6.552   8.506
 3248TIP3    H233724   4.426   6.609   8.648
 3249TIP3   OH233725   5.030   7.102   8.657
 3249TIP3    H133726   5.001   7.163   8.726
 3249TIP3    H233727   5.006   7.016   8.697
 3250TIP3   OH233728   4.482   6.986   9.056
 3250TIP3    H133729   4.439   7.059   9.105
 3250TIP3    H233730   4.415   6.965   8.986
 3251TIP3   OH233731   5.079   6.524   7.797
 3251TIP3    H133732   5.134   6.542   7.876
 3251TIP3    H233733   5.121   6.574   7.725
 3252TIP3   OH233734   4.176   6.601   8.970
 3252TIP3    H133735   4.182   6.668   9.041
 3252TIP3    H233736   4.082   6.610   8.950
 3253TIP3   OH233737   4.843   7.192   8.143
 3253TIP3    H133738   4.893   7.221   8.221
 3253TIP3    H233739   4.798   7.273   8.115
 3254TIP3   OH233740   4.307   7.188   9.130
 3254TIP3    H133741   4.300   7.179   9.034
 3254TIP3    H233742   4.214   7.175   9.158
 3255TIP3   OH233743   5.457   5.701   7.801
 3255TIP3    H133744   5.360   5.703   7.806
 3255TIP3    H233745   5.470   5.773   7.738
 3256TIP3   OH233746   4.255   6.569   7.976
 3256TIP3    H133747   4.220   6.649   7.930
 3256TIP3    H233748   4.182   6.507   7.966
 3257TIP3   OH233749   3.857   6.814   8.873
 3257TIP3    H133750   3.816   6.805   8.785
 3257TIP3    H233751   3.871   6.719   8.894
 3258TIP3   OH233752   3.836   7.086   8.549
 3258TIP3    H133753   3.933   7.076   8.545
 3258TIP3    H233754   3.828   7.168   8.599
 3259TIP3   OH233755   5.660   7.157   9.119
 3259TIP3    H133756   5.647   7.061   9.115
 3259TIP3    H233757   5.572   7.182   9.157
 3260TIP3   OH233758   4.755   7.111   9.004
 3260TIP3    H133759   4.761   7.195   9.055
 3260TIP3    H233760   4.667   7.076   9.028
 3261TIP3   OH233761   4.796   7.485   7.983
 3261TIP3    H133762   4.792   7.480   7.885
 3261TIP3    H233763   4.799   7.580   8.000
 3262TIP3   OH233764   4.166   7.371   8.168
 3262TIP3    H133765   4.177   7.332   8.257
 3262TIP3    H233766   4.079   7.334   8.144
 3263TIP3   OH233767   5.113   7.409   7.686
 3263TIP3    H133768   5.144   7.332   7.638
 3263TIP3    H233769   5.107   7.376   7.778
 3264TIP3   OH233770   5.074   7.402   7.967
 3264TIP3    H133771   4.977   7.405   7.975
 3264TIP3    H233772   5.098   7.323   8.016
 3265TIP3   OH233773   5.358   6.300   9.174
 3265TIP3    H133774   5.330   6.350   9.095
 3265TIP3    H233775   5.375   6.213   9.136
 3266TIP3   OH233776   4.089   6.943   8.966
 3266TIP3    H133777   4.110   6.908   9.055
 3266TIP3    H233778   4.001   6.905   8.944
 3267TIP3   OH233779   4.357   5.794   8.558
 3267TIP3    H133780   4.266   5.779   8.523
 3267TIP3    H233781   4.342   5.875   8.609
 3268TIP3   OH233782   4.821   5.758   8.896
 3268TIP3    H133783   4.860   5.716   8.975
 3268TIP3    H233784   4.724   5.748   8.911
 3269TIP3   OH233785   5.148   6.143   8.985
 3269TIP3    H133786   5.095   6.123   9.065
 3269TIP3    H233787   5.131   6.237   8.964
 3270TIP3   OH233788   5.223   6.628   7.575
 3270TIP3    H133789   5.222   6.610   7.481
 3270TIP3    H233790   5.306   6.677   7.584
 3271TIP3   OH233791   4.783   6.016   7.636
 3271TIP3    H133792   4.750   6.008   7.726
 3271TIP3    H233793   4.757   5.932   7.599
 3272TIP3   OH233794   4.366   6.290   8.687
 3272TIP3    H133795   4.293   6.290   8.750
 3272TIP3    H233796   4.362   6.381   8.648
 3273TIP3   OH233797   4.362   6.301   8.174
 3273TIP3    H133798   4.269   6.275   8.160
 3273TIP3    H233799   4.401   6.272   8.089
 3274TIP3   OH233800   4.916   6.351   8.045
 3274TIP3    H133801   4.876   6.434   8.011
 3274TIP3    H233802   4.983   6.333   7.976
 3275TIP3   OH233803   4.820   6.373   9.192
 3275TIP3    H133804   4.768   6.294   9.223
 3275TIP3    H233805   4.904   6.361   9.240
 3276TIP3   OH233806   5.019   6.301   8.334
 3276TIP3    H133807   4.990   6.357   8.260
 3276TIP3    H233808   5.027   6.216   8.288
 3277TIP3   OH233809   4.128   6.313   8.853
 3277TIP3    H133810   4.139   6.354   8.940
 3277TIP3    H233811   4.085   6.229   8.875
 3278TIP3   OH233812   3.796   6.025   8.253
 3278TIP3    H133813   3.863   6.020   8.324
 3278TIP3    H233814   3.840   5.986   8.175
 3279TIP3   OH233815   4.937   6.458   8.788
 3279TIP3    H133816   4.976   6.389   8.730
 3279TIP3    H233817   4.890   6.406   8.855
 3280TIP3   OH233818   4.619   6.058   8.273
 3280TIP3    H133819   4.525   6.057   8.301
 3280TIP3    H233820   4.666   6.038   8.354
 3281TIP3   OH233821   4.103   6.214   8.150
 3281TIP3    H133822   4.009   6.224   8.125
 3281TIP3    H233823   4.126   6.122   8.124
 3282TIP3   OH233824   4.459   6.220   7.920
 3282TIP3    H133825   4.555   6.222   7.939
 3282TIP3    H233826   4.449   6.287   7.852
 3283TIP3   OH233827   5.059   5.981   8.596
 3283TIP3    H133828   4.991   5.985   8.667
 3283TIP3    H233829   5.008   5.954   8.519
 3284TIP3   OH233830   5.376   7.546   9.230
 3284TIP3    H133831   5.404   7.581   9.144
 3284TIP3    H233832   5.451   7.575   9.284
 3285TIP3   OH233833   4.146   6.792   9.187
 3285TIP3    H133834   4.218   6.816   9.247
 3285TIP3    H233835   4.069   6.798   9.248
 3286TIP3   OH233836   4.746   6.332   8.462
 3286TIP3    H133837   4.807   6.279   8.410
 3286TIP3    H233838   4.731   6.277   8.540
 3287TIP3   OH233839   4.246   5.951   8.104
 3287TIP3    H133840   4.215   5.858   8.109
 3287TIP3    H233841   4.326   5.938   8.051
 3288TIP3   OH233842   4.610   6.164   8.703
 3288TIP3    H133843   4.528   6.217   8.712
 3288TIP3    H233844   4.666   6.200   8.775
 3289TIP3   OH233845   4.658   6.797   7.872
 3289TIP3    H133846   4.587   6.735   7.842
 3289TIP3    H233847   4.650   6.787   7.968
 3290TIP3   OH233848   5.388   6.708   8.753
 3290TIP3    H133849   5.445   6.756   8.690
 3290TIP3    H233850   5.302   6.712   8.707
 3291TIP3   OH233851   5.049   6.067   7.700
 3291TIP3    H133852   4.958   6.083   7.670
 3291TIP3    H233853   5.083   6.155   7.720
 3292TIP3   OH233854   4.818   6.815   8.998
 3292TIP3    H133855   4.784   6.771   9.077
 3292TIP3    H233856   4.791   6.907   9.010
 3293TIP3   OH233857   5.126   6.262   7.859
 3293TIP3    H133858   5.215   6.249   7.897
 3293TIP3    H233859   5.131   6.341   7.803
 3294TIP3   OH233860   4.179   6.727   8.453
 3294TIP3    H133861   4.246   6.717   8.383
 3294TIP3    H233862   4.186   6.642   8.500
 3295TIP3   OH233863   4.884   6.931   7.787
 3295TIP3    H133864   4.845   7.018   7.803
 3295TIP3    H233865   4.808   6.871   7.792
 3296TIP3   OH233866   3.873   6.568   8.980
 3296TIP3    H133867   3.896   6.523   9.064
 3296TIP3    H233868   3.819   6.502   8.934
 3297TIP3   OH233869   4.580   6.523   9.196
 3297TIP3    H133870   4.548   6.491   9.111
 3297TIP3    H233871   4.672   6.490   9.196
 3298TIP3   OH233872   5.049   7.058   8.992
 3298TIP3    H133873   4.956   7.075   8.969
 3298TIP3    H233874   5.046   7.086   9.086
 3299TIP3   OH233875   5.623   6.278   7.819
 3299TIP3    H133876   5.550   6.243   7.766
 3299TIP3    H233877   5.618   6.375   7.809
 3300TIP3   OH233878   5.615   6.863   9.113
 3300TIP3    H133879   5.525   6.881   9.077
 3300TIP3    H233880   5.668   6.853   9.032
 3301TIP3   OH233881   5.438   7.158   7.870
 3301TIP3    H133882   5.408   7.073   7.905
 3301TIP3    H233883   5.476   7.138   7.784
 3302TIP3   OH233884   5.165   6.639   8.581
 3302TIP3    H133885   5.071   6.619   8.569
 3302TIP3    H233886   5.209   6.564   8.537
 3303TIP3   OH233887   4.411   7.078   8.194
 3303TIP3    H133888   4.452   7.167   8.188
 3303TIP3    H233889   4.320   7.099   8.167
 3304TIP3   OH233890   4.555   6.830   8.148
 3304TIP3    H133891   4.530   6.911   8.192
 3304TIP3    H233892   4.486   6.771   8.190
 3305TIP3   OH233893   4.604   7.257   8.785
 3305TIP3    H133894   4.650   7.337   8.757
 3305TIP3    H233895   4.666   7.222   8.852
 3306TIP3   OH233896   4.429   7.335   8.104
 3306TIP3    H133897   4.332   7.349   8.113
 3306TIP3    H233898   4.461   7.424   8.128
 3307TIP3   OH233899   4.955   6.857   8.745
 3307TIP3    H133900   4.924   6.838   8.836
 3307TIP3    H233901   5.019   6.786   8.729
 3308TIP3   OH233902   5.189   6.963   7.653
 3308TIP3    H133903   5.214   6.915   7.734
 3308TIP3    H233904   5.093   6.948   7.661
 3309TIP3   OH233905   5.238   7.315   8.994
 3309TIP3    H133906   5.168   7.266   8.947
 3309TIP3    H233907   5.256   7.385   8.927
 3310TIP3   OH233908   5.638   7.403   7.682
 3310TIP3    H133909   5.712   7.463   7.659
 3310TIP3    H233910   5.569   7.466   7.711
 3311TIP3   OH233911   4.044   6.040   8.934
 3311TIP3    H133912   3.953   6.076   8.932
 3311TIP3    H233913   4.033   5.956   8.981
 3312TIP3   OH233914   5.266   6.830   7.885
 3312TIP3    H133915   5.242   6.748   7.933
 3312TIP3    H233916   5.363   6.830   7.897
 3313TIP3   OH233917   4.005   7.218   8.776
 3313TIP3    H133918   4.038   7.127   8.777
 3313TIP3    H233919   4.031   7.248   8.864
 3314TIP3   OH233920   4.474   7.024   7.753
 3314TIP3    H133921   4.512   6.969   7.820
 3314TIP3    H233922   4.490   7.118   7.774
 3315TIP3   OH233923   4.142   6.751   7.805
 3315TIP3    H133924   4.061   6.786   7.848
 3315TIP3    H233925   4.182   6.832   7.771
 3316TIP3   OH233926   4.917   6.018   8.832
 3316TIP3    H133927   4.989   6.024   8.896
 3316TIP3    H233928   4.879   5.930   8.853
 3317TIP3   OH233929   4.990   5.974   7.946
 3317TIP3    H133930   5.012   6.018   7.860
 3317TIP3    H233931   5.050   6.021   8.005
 3318TIP3   OH233932   4.756   7.190   7.826
 3318TIP3    H133933   4.677   7.247   7.822
 3318TIP3    H233934   4.813   7.237   7.761
 3319TIP3   OH233935   4.711   6.151   8.020
 3319TIP3    H133936   4.792   6.207   8.023
 3319TIP3    H233937   4.688   6.135   8.114
 3320TIP3   OH233938   4.770   6.252   8.941
 3320TIP3    H133939   4.777   6.307   9.021
 3320TIP3    H233940   4.837   6.183   8.950
 3321TIP3   OH233941   4.799   5.854   8.107
 3321TIP3    H133942   4.767   5.919   8.171
 3321TIP3    H233943   4.870   5.909   8.064
 3322TIP3   OH233944   4.501   7.292   7.829
 3322TIP3    H133945   4.507   7.370   7.767
 3322TIP3    H233946   4.470   7.335   7.910
 3323TIP3   OH233947   4.362   5.970   7.787
 3323TIP3    H133948   4.366   6.059   7.822
 3323TIP3    H233949   4.454   5.940   7.802
 3324TIP3   OH233950   5.386   6.039   9.025
 3324TIP3    H133951   5.294   6.071   9.012
 3324TIP3    H233952   5.418   6.038   8.933
 3325TIP3   OH233953   5.250   6.418   8.425
 3325TIP3    H133954   5.167   6.373   8.398
 3325TIP3    H233955   5.296   6.350   8.478
 3326TIP3   OH233956   4.193   7.006   7.692
 3326TIP3    H133957   4.253   7.079   7.716
 3326TIP3    H233958   4.236   6.973   7.613
 3327TIP3   OH233959   5.354   7.343   8.591
 3327TIP3    H133960   5.349   7.413   8.523
 3327TIP3    H233961   5.450   7.348   8.610
 3328TIP3   OH233962   4.104   5.756   8.474
 3328TIP3    H133963   4.085   5.757   8.377
 3328TIP3    H233964   4.064   5.670   8.499
 3329TIP3   OH233965   4.001   7.149   8.089
 3329TIP3    H133966   3.914   7.191   8.085
 3329TIP3    H233967   4.044   7.195   8.015
 3330TIP3   OH233968   3.920   7.412   9.215
 3330TIP3    H133969   3.980   7.394   9.289
 3330TIP3    H233970   3.880   7.325   9.198
 3331TIP3   OH233971   4.390   7.306   9.375
 3331TIP3    H133972   4.465   7.255   9.410
 3331TIP3    H233973   4.386   7.277   9.282
 3332TIP3   OH233974   5.039   7.143   9.253
 3332TIP3    H133975   5.009   7.054   9.281
 3332TIP3    H233976   5.117   7.154   9.311
 3333TIP3   OH233977   3.912   6.791   9.316
 3333TIP3    H133978   3.927   6.699   9.287
 3333TIP3    H233979   3.838   6.817   9.259
 3334TIP3   OH233980   4.583   6.790   9.254
 3334TIP3    H133981   4.550   6.822   9.168
 3334TIP3    H233982   4.589   6.692   9.243
 3335TIP3   OH233983   5.153   6.775   8.993
 3335TIP3    H133984   5.232   6.833   8.989
 3335TIP3    H233985   5.084   6.842   8.999
 3336TIP3   OH233986   4.002   6.513   9.254
 3336TIP3    H133987   4.046   6.427   9.246
 3336TIP3    H233988   3.981   6.514   9.349
 3337TIP3   OH233989   4.470   6.628   7.758
 3337TIP3    H133990   4.418   6.577   7.824
 3337TIP3    H233991   4.502   6.557   7.696
 3338TIP3   OH233992   4.393   6.407   8.989
 3338TIP3    H133993   4.334   6.479   9.014
 3338TIP3    H233994   4.434   6.444   8.909
 3339TIP3   OH233995   4.574   6.450   7.581
 3339TIP3    H133996   4.560   6.425   7.488
 3339TIP3    H233997   4.672   6.451   7.586
 3340TIP3   OH233998   4.901   6.666   9.324
 3340TIP3    H133999   4.997   6.664   9.310
 3340TIP3    H234000   4.885   6.588   9.379
 3341TIP3   OH234001   4.435   6.145   9.094
 3341TIP3    H134002   4.446   6.075   9.027
 3341TIP3    H234003   4.429   6.226   9.040
 3342TIP3   OH234004   4.475   5.983   8.850
 3342TIP3    H134005   4.525   6.030   8.779
 3342TIP3    H234006   4.385   5.976   8.810
 3343TIP3   OH234007   4.628   6.533   8.875
 3343TIP3    H134008   4.704   6.517   8.818
 3343TIP3    H234009   4.591   6.616   8.840
 3344TIP3   OH234010   5.069   6.307   9.369
 3344TIP3    H134011   5.095   6.214   9.360
 3344TIP3    H234012   5.155   6.352   9.373
 3345TIP3   OH234013   5.202   6.587   9.187
 3345TIP3    H134014   5.179   6.660   9.126
 3345TIP3    H234015   5.299   6.585   9.172
 3346TIP3   OH234016   4.280   6.271   9.286
 3346TIP3    H134017   4.203   6.212   9.270
 3346TIP3    H234018   4.345   6.233   9.224
 3347TIP3   OH234019   4.554   5.727   8.888
 3347TIP3    H134020   4.534   5.823   8.879
 3347TIP3    H234021   4.479   5.690   8.838
 3348TIP3   OH234022   4.680   6.160   9.253
 3348TIP3    H134023   4.648   6.136   9.342
 3348TIP3    H234024   4.603   6.139   9.198
 3349TIP3   OH234025   4.953   6.075   9.163
 3349TIP3    H134026   4.856   6.080   9.173
 3349TIP3    H234027   4.979   6.011   9.232
 3350TIP3   OH234028   5.109   5.936   9.350
 3350TIP3    H134029   5.106   5.838   9.354
 3350TIP3    H234030   5.087   5.965   9.441
 3351TIP3   OH234031   4.088   6.065   9.263
 3351TIP3    H134032   4.112   5.991   9.205
 3351TIP3    H234033   4.078   6.020   9.350
 3352TIP3   OH234034   4.575   5.668   9.159
 3352TIP3    H134035   4.642   5.597   9.158
 3352TIP3    H234036   4.563   5.680   9.063
 3353TIP3   OH234037   4.611   5.828   9.372
 3353TIP3    H134038   4.593   5.777   9.289
 3353TIP3    H234039   4.551   5.904   9.362
 3354TIP3   OH234040   4.558   7.526   7.697
 3354TIP3    H134041   4.655   7.532   7.693
 3354TIP3    H234042   4.530   7.573   7.616
 3355TIP3   OH234043   3.919   6.982   7.636
 3355TIP3    H134044   4.015   6.988   7.654
 3355TIP3    H234045   3.914   6.916   7.565
 3356TIP3   OH234046   3.792   7.512   8.129
 3356TIP3    H134047   3.719   7.463   8.086
 3356TIP3    H234048   3.819   7.449   8.199
 3357TIP3   OH234049   3.873   7.328   8.319
 3357TIP3    H134050   3.838   7.241   8.340
 3357TIP3    H234051   3.896   7.362   8.408
 3358TIP3   OH234052   5.627   7.409   8.612
 3358TIP3    H134053   5.630   7.425   8.708
 3358TIP3    H234054   5.698   7.467   8.582
 3359TIP3   OH234055   5.585   7.367   8.908
 3359TIP3    H134056   5.538   7.291   8.868
 3359TIP3    H234057   5.633   7.321   8.979
 3360TIP3   OH234058   5.420   6.965   9.358
 3360TIP3    H134059   5.343   6.934   9.409
 3360TIP3    H234060   5.467   7.022   9.422
 3361TIP3   OH234061   5.565   6.767   7.910
 3361TIP3    H134062   5.647   6.811   7.937
 3361TIP3    H234063   5.558   6.702   7.984
 3362TIP3   OH234064   5.598   6.579   8.102
 3362TIP3    H134065   5.521   6.532   8.142
 3362TIP3    H234066   5.656   6.594   8.179
 3363TIP3   OH234067   5.572   6.849   8.605
 3363TIP3    H134068   5.653   6.812   8.566
 3363TIP3    H234069   5.587   6.945   8.588
 3364TIP3   OH234070   5.428   7.140   8.830
 3364TIP3    H134071   5.359   7.175   8.889
 3364TIP3    H234072   5.373   7.101   8.759
 3365TIP3   OH234073   5.623   6.556   7.737
 3365TIP3    H134074   5.575   6.607   7.670
 3365TIP3    H234075   5.624   6.627   7.807
 3366TIP3   OH234076   5.379   6.427   8.162
 3366TIP3    H134077   5.364   6.332   8.160
 3366TIP3    H234078   5.347   6.449   8.252
 3367TIP3   OH234079   3.879   6.635   8.568
 3367TIP3    H134080   3.897   6.629   8.472
 3367TIP3    H234081   3.969   6.618   8.604
 3368TIP3   OH234082   5.464   6.625   9.127
 3368TIP3    H134083   5.523   6.549   9.147
 3368TIP3    H234084   5.526   6.701   9.136
 3369TIP3   OH234085   5.606   6.376   9.111
 3369TIP3    H134086   5.530   6.379   9.173
 3369TIP3    H234087   5.668   6.343   9.180
 3370TIP3   OH234088   5.346   6.187   8.010
 3370TIP3    H134089   5.374   6.093   8.020
 3370TIP3    H234090   5.427   6.225   7.973
 3371TIP3   OH234091   5.409   6.241   8.555
 3371TIP3    H134092   5.506   6.264   8.553
 3371TIP3    H234093   5.393   6.255   8.649
 3372TIP3   OH234094   5.415   6.312   8.827
 3372TIP3    H134095   5.328   6.341   8.863
 3372TIP3    H234096   5.461   6.398   8.812
 3373TIP3   OH234097   3.842   6.166   9.186
 3373TIP3    H134098   3.936   6.144   9.204
 3373TIP3    H234099   3.795   6.084   9.211
 3374TIP3   OH234100   5.645   5.720   9.365
 3374TIP3    H134101   5.679   5.653   9.303
 3374TIP3    H234102   5.652   5.801   9.310
 3375TIP3   OH234103   5.408   5.917   8.014
 3375TIP3    H134104   5.435   5.872   8.097
 3375TIP3    H234105   5.353   5.850   7.969
 3376TIP3   OH234106   3.961   5.996   8.470
 3376TIP3    H134107   4.007   5.913   8.495
 3376TIP3    H234108   4.018   6.065   8.508
 3377TIP3   OH234109   3.789   6.296   8.572
 3377TIP3    H134110   3.845   6.270   8.497
 3377TIP3    H234111   3.839   6.375   8.598
 3378TIP3   OH234112   5.594   5.925   9.201
 3378TIP3    H134113   5.503   5.959   9.195
 3378TIP3    H234114   5.597   5.873   9.119
 3379TIP3   OH234115   5.594   5.925   7.662
 3379TIP3    H134116   5.634   5.847   7.621
 3379TIP3    H234117   5.669   5.981   7.678
 3380TIP3   OH234118   3.824   5.923   7.977
 3380TIP3    H134119   3.729   5.940   7.966
 3380TIP3    H234120   3.864   5.971   7.907
 3381TIP3   OH234121   5.298   7.416   8.177
 3381TIP3    H134122   5.366   7.386   8.113
 3381TIP3    H234123   5.353   7.466   8.239
 3382TIP3   OH234124   3.820   5.787   8.808
 3382TIP3    H134125   3.754   5.768   8.877
 3382TIP3    H234126   3.774   5.855   8.755
 3383TIP3   OH234127   4.045   7.105   9.225
 3383TIP3    H134128   3.962   7.129   9.182
 3383TIP3    H234129   4.018   7.099   9.317
 3384TIP3   OH234130   4.335   7.208   8.854
 3384TIP3    H134131   4.303   7.295   8.827
 3384TIP3    H234132   4.428   7.215   8.823
 3385TIP3   OH234133   4.766   7.350   9.143
 3385TIP3    H134134   4.780   7.315   9.234
 3385TIP3    H234135   4.857   7.382   9.119
 3386TIP3   OH234136   4.995   7.477   9.075
 3386TIP3    H134137   5.069   7.420   9.051
 3386TIP3    H234138   5.031   7.522   9.154
 3387TIP3   OH234139   5.497   5.739   8.987
 3387TIP3    H134140   5.415   5.768   8.945
 3387TIP3    H234141   5.515   5.657   8.936
 3388TIP3   OH234142   4.074   7.526   8.853
 3388TIP3    H134143   4.005   7.582   8.814
 3388TIP3    H234144   4.044   7.514   8.944
 3389TIP3   OH234145   4.324   7.486   8.761
 3389TIP3    H134146   4.236   7.507   8.800
 3389TIP3    H234147   4.321   7.546   8.684
 3390TIP3   OH234148   4.802   7.483   8.670
 3390TIP3    H134149   4.740   7.536   8.618
 3390TIP3    H234150   4.809   7.541   8.751
 3391TIP3   OH234151   5.024   7.359   8.779
 3391TIP3    H134152   4.938   7.389   8.746
 3391TIP3    H234153   5.073   7.442   8.776
 3392TIP3   OH234154   5.275   7.516   8.800
 3392TIP3    H134155   5.276   7.613   8.781
 3392TIP3    H234156   5.305   7.480   8.714
 3393TIP3   OH234157   4.024   7.396   8.546
 3393TIP3    H134158   4.015   7.351   8.633
 3393TIP3    H234159   4.105   7.357   8.508
 3394TIP3   OH234160   4.233   7.265   8.410
 3394TIP3    H134161   4.214   7.174   8.439
 3394TIP3    H234162   4.315   7.285   8.460
 3395TIP3   OH234163   4.496   7.314   8.497
 3395TIP3    H134164   4.504   7.220   8.476
 3395TIP3    H234165   4.493   7.310   8.594
 3396TIP3   OH234166   4.836   5.881   8.411
 3396TIP3    H134167   4.769   5.817   8.443
 3396TIP3    H234168   4.892   5.826   8.356
 3397TIP3   OH234169   5.350   5.684   8.418
 3397TIP3    H134170   5.411   5.744   8.369
 3397TIP3    H234171   5.261   5.721   8.397
 3398TIP3   OH234172   5.516   5.812   8.247
 3398TIP3    H134173   5.585   5.753   8.207
 3398TIP3    H234174   5.568   5.894   8.259
 3399TIP3   OH234175   4.074   5.744   8.200
 3399TIP3    H134176   3.994   5.725   8.148
 3399TIP3    H234177   4.119   5.658   8.193
 3400TIP3   OH234178   3.947   5.720   7.765
 3400TIP3    H134179   4.001   5.786   7.717
 3400TIP3    H234180   3.897   5.773   7.829
 3401TIP3   OH234181   4.522   5.733   8.176
 3401TIP3    H134182   4.610   5.772   8.170
 3401TIP3    H234183   4.517   5.714   8.270
 3402TIP3   OH234184   5.093   5.737   8.339
 3402TIP3    H134185   5.086   5.750   8.244
 3402TIP3    H234186   5.055   5.647   8.352
 3403TIP3   OH234187   5.217   5.739   7.906
 3403TIP3    H134188   5.144   5.801   7.890
 3403TIP3    H234189   5.173   5.655   7.932
 3404TIP3   OH234190   3.943   7.316   7.872
 3404TIP3    H134191   3.877   7.310   7.801
 3404TIP3    H234192   3.947   7.412   7.885
 3405TIP3   OH234193   4.128   5.905   7.634
 3405TIP3    H134194   4.179   5.860   7.564
 3405TIP3    H234195   4.205   5.939   7.682
 3406TIP3   OH234196   4.631   5.937   7.867
 3406TIP3    H134197   4.661   5.880   7.938
 3406TIP3    H234198   4.645   6.025   7.909
 3407TIP3   OH234199   4.833   7.441   7.707
 3407TIP3    H134200   4.924   7.468   7.683
 3407TIP3    H234201   4.808   7.399   7.622
 3408TIP3   OH234202   5.495   7.398   7.979
 3408TIP3    H134203   5.479   7.319   7.923
 3408TIP3    H234204   5.491   7.471   7.913
 3409TIP3   OH234205   4.062   5.798   9.144
 3409TIP3    H134206   4.021   5.718   9.183
 3409TIP3    H234207   4.152   5.793   9.183
 3410TIP3   OH234208   4.261   5.736   9.310
 3410TIP3    H134209   4.350   5.703   9.288
 3410TIP3    H234210   4.224   5.655   9.349
 3411TIP3   OH234211   5.102   5.664   9.324
 3411TIP3    H134212   5.111   5.617   9.409
 3411TIP3    H234213   5.194   5.661   9.290
 3412TIP3   OH234214   5.424   7.272   9.184
 3412TIP3    H134215   5.343   7.257   9.131
 3412TIP3    H234216   5.410   7.366   9.208
 3413TIP3   OH234217   6.870   6.658   8.181
 3413TIP3    H134218   6.866   6.756   8.181
 3413TIP3    H234219   6.794   6.635   8.124
 3414TIP3   OH234220   6.754   6.582   8.534
 3414TIP3    H134221   6.752   6.518   8.607
 3414TIP3    H234222   6.717   6.530   8.460
 3415TIP3   OH234223   5.990   6.550   8.688
 3415TIP3    H134224   5.996   6.482   8.758
 3415TIP3    H234225   6.064   6.608   8.712
 3416TIP3   OH234226   7.121   6.877   8.363
 3416TIP3    H134227   7.080   6.805   8.413
 3416TIP3    H234228   7.124   6.948   8.431
 3417TIP3   OH234229   6.080   6.996   8.538
 3417TIP3    H134230   6.050   6.908   8.508
 3417TIP3    H234231   6.176   6.978   8.543
 3418TIP3   OH234232   5.748   6.350   8.080
 3418TIP3    H134233   5.703   6.437   8.085
 3418TIP3    H234234   5.683   6.295   8.037
 3419TIP3   OH234235   5.816   6.573   8.304
 3419TIP3    H134236   5.845   6.491   8.349
 3419TIP3    H234237   5.884   6.585   8.237
 3420TIP3   OH234238   6.833   7.394   8.387
 3420TIP3    H134239   6.898   7.326   8.357
 3420TIP3    H234240   6.811   7.358   8.473
 3421TIP3   OH234241   6.591   6.821   8.583
 3421TIP3    H134242   6.624   6.760   8.516
 3421TIP3    H234243   6.672   6.838   8.633
 3422TIP3   OH234244   7.457   5.998   8.658
 3422TIP3    H134245   7.470   6.057   8.737
 3422TIP3    H234246   7.517   6.045   8.597
 3423TIP3   OH234247   6.907   6.270   8.614
 3423TIP3    H134248   6.922   6.174   8.616
 3423TIP3    H234249   6.897   6.283   8.518
 3424TIP3   OH234250   6.217   6.078   8.334
 3424TIP3    H134251   6.230   6.161   8.284
 3424TIP3    H234252   6.179   6.021   8.264
 3425TIP3   OH234253   6.994   6.083   8.174
 3425TIP3    H134254   7.059   6.054   8.241
 3425TIP3    H234255   7.048   6.143   8.119
 3426TIP3   OH234256   5.881   6.320   8.408
 3426TIP3    H134257   5.948   6.266   8.454
 3426TIP3    H234258   5.893   6.288   8.317
 3427TIP3   OH234259   6.395   6.474   8.345
 3427TIP3    H134260   6.465   6.416   8.380
 3427TIP3    H234261   6.346   6.411   8.289
 3428TIP3   OH234262   7.494   6.131   8.883
 3428TIP3    H134263   7.435   6.209   8.873
 3428TIP3    H234264   7.499   6.124   8.979
 3429TIP3   OH234265   6.111   5.968   8.738
 3429TIP3    H134266   6.082   6.026   8.664
 3429TIP3    H234267   6.043   5.991   8.807
 3430TIP3   OH234268   6.839   6.915   8.093
 3430TIP3    H134269   6.806   6.890   8.006
 3430TIP3    H234270   6.808   7.008   8.101
 3431TIP3   OH234271   6.360   6.732   8.762
 3431TIP3    H134272   6.291   6.797   8.785
 3431TIP3    H234273   6.431   6.792   8.733
 3432TIP3   OH234274   7.181   6.017   8.371
 3432TIP3    H134275   7.143   5.948   8.426
 3432TIP3    H234276   7.235   6.071   8.431
 3433TIP3   OH234277   6.067   6.153   8.543
 3433TIP3    H134278   6.130   6.223   8.573
 3433TIP3    H234279   6.118   6.113   8.468
 3434TIP3   OH234280   6.206   6.934   8.844
 3434TIP3    H134281   6.200   7.025   8.811
 3434TIP3    H234282   6.118   6.925   8.889
 3435TIP3   OH234283   5.810   6.893   7.924
 3435TIP3    H134284   5.792   6.925   7.835
 3435TIP3    H234285   5.821   6.976   7.974
 3436TIP3   OH234286   7.174   7.061   8.600
 3436TIP3    H134287   7.077   7.073   8.612
 3436TIP3    H234288   7.201   7.153   8.579
 3437TIP3   OH234289   7.208   5.890   8.728
 3437TIP3    H134290   7.132   5.950   8.733
 3437TIP3    H234291   7.278   5.948   8.696
 3438TIP3   OH234292   6.502   5.702   8.485
 3438TIP3    H134293   6.487   5.606   8.477
 3438TIP3    H234294   6.415   5.733   8.516
 3439TIP3   OH234295   7.003   7.240   8.262
 3439TIP3    H134296   7.043   7.168   8.209
 3439TIP3    H234297   7.045   7.318   8.220
 3440TIP3   OH234298   7.123   7.032   8.112
 3440TIP3    H134299   7.094   6.963   8.050
 3440TIP3    H234300   7.125   6.983   8.195
 3441TIP3   OH234301   7.283   6.893   8.960
 3441TIP3    H134302   7.297   6.826   8.889
 3441TIP3    H234303   7.305   6.976   8.914
 3442TIP3   OH234304   6.732   6.583   7.936
 3442TIP3    H134305   6.660   6.639   7.899
 3442TIP3    H234306   6.803   6.589   7.869
 3443TIP3   OH234307   6.740   6.433   7.640
 3443TIP3    H134308   6.813   6.435   7.704
 3443TIP3    H234309   6.776   6.368   7.579
 3444TIP3   OH234310   7.472   6.524   8.763
 3444TIP3    H134311   7.406   6.597   8.768
 3444TIP3    H234312   7.521   6.549   8.683
 3445TIP3   OH234313   7.082   6.601   8.029
 3445TIP3    H134314   7.006   6.625   8.088
 3445TIP3    H234315   7.127   6.534   8.083
 3446TIP3   OH234316   7.072   6.418   8.941
 3446TIP3    H134317   7.072   6.501   8.993
 3446TIP3    H234318   7.009   6.447   8.872
 3447TIP3   OH234319   6.238   6.667   8.220
 3447TIP3    H134320   6.208   6.630   8.133
 3447TIP3    H234321   6.300   6.598   8.253
 3448TIP3   OH234322   6.370   7.005   8.488
 3448TIP3    H134323   6.370   6.954   8.406
 3448TIP3    H234324   6.449   6.970   8.534
 3449TIP3   OH234325   6.271   6.542   8.587
 3449TIP3    H134326   6.326   6.551   8.506
 3449TIP3    H234327   6.312   6.609   8.647
 3450TIP3   OH234328   6.915   7.100   8.658
 3450TIP3    H134329   6.886   7.164   8.724
 3450TIP3    H234330   6.889   7.015   8.699
 3451TIP3   OH234331   6.367   6.985   9.057
 3451TIP3    H134332   6.325   7.058   9.105
 3451TIP3    H234333   6.301   6.965   8.986
 3452TIP3   OH234334   6.964   6.527   7.798
 3452TIP3    H134335   7.023   6.541   7.876
 3452TIP3    H234336   7.011   6.568   7.724
 3453TIP3   OH234337   6.061   6.602   8.971
 3453TIP3    H134338   6.066   6.666   9.043
 3453TIP3    H234339   5.966   6.608   8.952
 3454TIP3   OH234340   6.740   7.196   8.139
 3454TIP3    H134341   6.780   7.225   8.222
 3454TIP3    H234342   6.680   7.269   8.117
 3455TIP3   OH234343   6.193   7.188   9.130
 3455TIP3    H134344   6.186   7.180   9.033
 3455TIP3    H234345   6.100   7.175   9.157
 3456TIP3   OH234346   7.339   5.699   7.793
 3456TIP3    H134347   7.241   5.702   7.805
 3456TIP3    H234348   7.351   5.774   7.734
 3457TIP3   OH234349   6.137   6.567   7.979
 3457TIP3    H134350   6.109   6.648   7.929
 3457TIP3    H234351   6.068   6.504   7.958
 3458TIP3   OH234352   7.451   7.129   7.627
 3458TIP3    H134353   7.463   7.225   7.634
 3458TIP3    H234354   7.542   7.105   7.609
 3459TIP3   OH234355   5.743   6.812   8.874
 3459TIP3    H134356   5.701   6.804   8.787
 3459TIP3    H234357   5.753   6.717   8.896
 3460TIP3   OH234358   5.721   7.086   8.550
 3460TIP3    H134359   5.818   7.076   8.546
 3460TIP3    H234360   5.713   7.169   8.599
 3461TIP3   OH234361   7.545   7.157   9.118
 3461TIP3    H134362   7.533   7.061   9.115
 3461TIP3    H234363   7.458   7.182   9.157
 3462TIP3   OH234364   6.640   7.111   9.004
 3462TIP3    H134365   6.646   7.195   9.055
 3462TIP3    H234366   6.552   7.076   9.028
 3463TIP3   OH234367   6.685   7.484   7.980
 3463TIP3    H134368   6.674   7.485   7.886
 3463TIP3    H234369   6.686   7.579   8.004
 3464TIP3   OH234370   6.049   7.373   8.168
 3464TIP3    H134371   6.064   7.331   8.255
 3464TIP3    H234372   5.965   7.332   8.143
 3465TIP3   OH234373   6.958   7.400   7.956
 3465TIP3    H134374   6.864   7.406   7.981
 3465TIP3    H234375   6.986   7.327   8.014
 3466TIP3   OH234376   7.261   6.302   9.162
 3466TIP3    H134377   7.211   6.348   9.092
 3466TIP3    H234378   7.257   6.209   9.133
 3467TIP3   OH234379   5.974   6.943   8.965
 3467TIP3    H134380   5.995   6.908   9.054
 3467TIP3    H234381   5.887   6.905   8.944
 3468TIP3   OH234382   6.242   5.793   8.559
 3468TIP3    H134383   6.152   5.779   8.523
 3468TIP3    H234384   6.228   5.875   8.609
 3469TIP3   OH234385   6.707   5.758   8.896
 3469TIP3    H134386   6.746   5.715   8.975
 3469TIP3    H234387   6.610   5.748   8.911
 3470TIP3   OH234388   7.035   6.144   8.986
 3470TIP3    H134389   6.978   6.122   9.064
 3470TIP3    H234390   7.016   6.237   8.964
 3471TIP3   OH234391   6.253   6.290   8.688
 3471TIP3    H134392   6.178   6.290   8.751
 3471TIP3    H234393   6.247   6.380   8.648
 3472TIP3   OH234394   6.248   6.299   8.171
 3472TIP3    H134395   6.154   6.276   8.158
 3472TIP3    H234396   6.285   6.271   8.085
 3473TIP3   OH234397   6.800   6.348   8.047
 3473TIP3    H134398   6.761   6.433   8.015
 3473TIP3    H234399   6.869   6.333   7.980
 3474TIP3   OH234400   6.705   6.373   9.192
 3474TIP3    H134401   6.653   6.294   9.223
 3474TIP3    H234402   6.789   6.361   9.240
 3475TIP3   OH234403   6.905   6.301   8.334
 3475TIP3    H134404   6.875   6.357   8.260
 3475TIP3    H234405   6.913   6.216   8.286
 3476TIP3   OH234406   6.014   6.313   8.853
 3476TIP3    H134407   6.024   6.355   8.940
 3476TIP3    H234408   5.970   6.230   8.875
 3477TIP3   OH234409   5.681   6.025   8.253
 3477TIP3    H134410   5.749   6.020   8.323
 3477TIP3    H234411   5.725   5.987   8.174
 3478TIP3   OH234412   5.802   6.098   7.783
 3478TIP3    H134413   5.866   6.155   7.741
 3478TIP3    H234414   5.741   6.159   7.830
 3479TIP3   OH234415   6.823   6.459   8.788
 3479TIP3    H134416   6.861   6.390   8.730
 3479TIP3    H234417   6.776   6.406   8.855
 3480TIP3   OH234418   6.502   6.058   8.274
 3480TIP3    H134419   6.408   6.057   8.304
 3480TIP3    H234420   6.551   6.038   8.355
 3481TIP3   OH234421   5.985   6.212   8.157
 3481TIP3    H134422   5.896   6.226   8.120
 3481TIP3    H234423   6.015   6.127   8.121
 3482TIP3   OH234424   6.345   6.220   7.923
 3482TIP3    H134425   6.441   6.225   7.939
 3482TIP3    H234426   6.326   6.285   7.855
 3483TIP3   OH234427   6.945   5.981   8.596
 3483TIP3    H134428   6.877   5.985   8.668
 3483TIP3    H234429   6.892   5.955   8.519
 3484TIP3   OH234430   6.216   6.329   7.680
 3484TIP3    H134431   6.167   6.298   7.603
 3484TIP3    H234432   6.299   6.359   7.638
 3485TIP3   OH234433   7.263   7.543   9.230
 3485TIP3    H134434   7.289   7.581   9.144
 3485TIP3    H234435   7.336   7.575   9.284
 3486TIP3   OH234436   6.031   6.794   9.186
 3486TIP3    H134437   6.104   6.816   9.247
 3486TIP3    H234438   5.954   6.796   9.247
 3487TIP3   OH234439   6.631   6.333   8.462
 3487TIP3    H134440   6.692   6.279   8.409
 3487TIP3    H234441   6.617   6.277   8.540
 3488TIP3   OH234442   6.133   5.946   8.107
 3488TIP3    H134443   6.102   5.854   8.103
 3488TIP3    H234444   6.211   5.940   8.050
 3489TIP3   OH234445   6.495   6.164   8.703
 3489TIP3    H134446   6.413   6.217   8.712
 3489TIP3    H234447   6.551   6.200   8.775
 3490TIP3   OH234448   6.554   6.782   7.878
 3490TIP3    H134449   6.472   6.740   7.845
 3490TIP3    H234450   6.530   6.802   7.970
 3491TIP3   OH234451   7.274   6.708   8.753
 3491TIP3    H134452   7.329   6.757   8.689
 3491TIP3    H234453   7.188   6.711   8.708
 3492TIP3   OH234454   6.704   6.815   8.998
 3492TIP3    H134455   6.669   6.771   9.076
 3492TIP3    H234456   6.677   6.907   9.009
 3493TIP3   OH234457   7.010   6.259   7.859
 3493TIP3    H134458   7.100   6.247   7.897
 3493TIP3    H234459   7.020   6.336   7.800
 3494TIP3   OH234460   6.066   6.728   8.453
 3494TIP3    H134461   6.132   6.718   8.382
 3494TIP3    H234462   6.072   6.642   8.500
 3495TIP3   OH234463   5.766   6.567   8.977
 3495TIP3    H134464   5.779   6.522   9.063
 3495TIP3    H234465   5.700   6.506   8.939
 3496TIP3   OH234466   6.466   6.523   9.196
 3496TIP3    H134467   6.433   6.491   9.111
 3496TIP3    H234468   6.558   6.490   9.196
 3497TIP3   OH234469   6.935   7.057   8.993
 3497TIP3    H134470   6.843   7.074   8.969
 3497TIP3    H234471   6.931   7.086   9.086
 3498TIP3   OH234472   7.507   6.273   7.822
 3498TIP3    H134473   7.436   6.248   7.759
 3498TIP3    H234474   7.505   6.369   7.809
 3499TIP3   OH234475   7.500   6.861   9.111
 3499TIP3    H134476   7.410   6.883   9.075
 3499TIP3    H234477   7.554   6.855   9.030
 3500TIP3   OH234478   7.332   7.158   7.869
 3500TIP3    H134479   7.294   7.076   7.905
 3500TIP3    H234480   7.360   7.135   7.778
 3501TIP3   OH234481   7.052   6.639   8.582
 3501TIP3    H134482   6.958   6.619   8.570
 3501TIP3    H234483   7.094   6.564   8.537
 3502TIP3   OH234484   6.300   7.074   8.197
 3502TIP3    H134485   6.353   7.151   8.170
 3502TIP3    H234486   6.214   7.096   8.158
 3503TIP3   OH234487   6.444   6.839   8.144
 3503TIP3    H134488   6.411   6.931   8.152
 3503TIP3    H234489   6.372   6.789   8.188
 3504TIP3   OH234490   6.488   7.258   8.786
 3504TIP3    H134491   6.536   7.337   8.756
 3504TIP3    H234492   6.551   7.222   8.852
 3505TIP3   OH234493   6.314   7.337   8.098
 3505TIP3    H134494   6.217   7.349   8.111
 3505TIP3    H234495   6.348   7.422   8.132
 3506TIP3   OH234496   6.840   6.856   8.746
 3506TIP3    H134497   6.809   6.837   8.837
 3506TIP3    H234498   6.905   6.785   8.729
 3507TIP3   OH234499   7.065   6.965   7.657
 3507TIP3    H134500   7.108   6.918   7.732
 3507TIP3    H234501   6.976   6.938   7.673
 3508TIP3   OH234502   7.124   7.315   8.994
 3508TIP3    H134503   7.054   7.266   8.948
 3508TIP3    H234504   7.142   7.385   8.928
 3509TIP3   OH234505   7.519   7.400   7.677
 3509TIP3    H134506   7.590   7.464   7.662
 3509TIP3    H234507   7.449   7.462   7.709
 3510TIP3   OH234508   5.930   6.040   8.934
 3510TIP3    H134509   5.839   6.076   8.933
 3510TIP3    H234510   5.918   5.956   8.981
 3511TIP3   OH234511   7.150   6.828   7.884
 3511TIP3    H134512   7.128   6.747   7.934
 3511TIP3    H234513   7.246   6.832   7.898
 3512TIP3   OH234514   5.889   7.216   8.778
 3512TIP3    H134515   5.923   7.125   8.778
 3512TIP3    H234516   5.918   7.248   8.864
 3513TIP3   OH234517   6.369   7.026   7.750
 3513TIP3    H134518   6.389   6.973   7.828
 3513TIP3    H234519   6.370   7.120   7.779
 3514TIP3   OH234520   6.023   6.748   7.810
 3514TIP3    H134521   5.946   6.791   7.851
 3514TIP3    H234522   6.066   6.825   7.768
 3515TIP3   OH234523   6.803   6.018   8.831
 3515TIP3    H134524   6.874   6.024   8.896
 3515TIP3    H234525   6.765   5.930   8.853
 3516TIP3   OH234526   6.880   5.975   7.932
 3516TIP3    H134527   6.900   6.029   7.855
 3516TIP3    H234528   6.933   6.018   8.000
 3517TIP3   OH234529   6.644   7.191   7.813
 3517TIP3    H134530   6.561   7.241   7.828
 3517TIP3    H234531   6.699   7.248   7.760
 3518TIP3   OH234532   6.599   6.149   8.020
 3518TIP3    H134533   6.677   6.208   8.023
 3518TIP3    H234534   6.572   6.136   8.113
 3519TIP3   OH234535   6.656   6.253   8.941
 3519TIP3    H134536   6.663   6.307   9.021
 3519TIP3    H234537   6.722   6.183   8.950
 3520TIP3   OH234538   6.685   5.855   8.107
 3520TIP3    H134539   6.651   5.920   8.171
 3520TIP3    H234540   6.754   5.910   8.063
 3521TIP3   OH234541   6.387   7.294   7.826
 3521TIP3    H134542   6.394   7.374   7.769
 3521TIP3    H234543   6.355   7.330   7.910
 3522TIP3   OH234544   6.255   5.967   7.780
 3522TIP3    H134545   6.245   6.055   7.818
 3522TIP3    H234546   6.344   5.941   7.810
 3523TIP3   OH234547   7.272   6.037   9.024
 3523TIP3    H134548   7.180   6.072   9.014
 3523TIP3    H234549   7.303   6.040   8.933
 3524TIP3   OH234550   7.135   6.418   8.424
 3524TIP3    H134551   7.053   6.373   8.398
 3524TIP3    H234552   7.182   6.351   8.477
 3525TIP3   OH234553   6.083   7.003   7.695
 3525TIP3    H134554   6.143   7.076   7.714
 3525TIP3    H234555   6.122   6.968   7.612
 3526TIP3   OH234556   7.241   7.343   8.592
 3526TIP3    H134557   7.232   7.412   8.523
 3526TIP3    H234558   7.337   7.349   8.610
 3527TIP3   OH234559   5.990   5.756   8.475
 3527TIP3    H134560   5.972   5.757   8.378
 3527TIP3    H234561   5.949   5.670   8.499
 3528TIP3   OH234562   5.886   7.148   8.087
 3528TIP3    H134563   5.800   7.193   8.084
 3528TIP3    H234564   5.932   7.193   8.016
 3529TIP3   OH234565   5.805   7.413   9.215
 3529TIP3    H134566   5.866   7.394   9.290
 3529TIP3    H234567   5.766   7.326   9.198
 3530TIP3   OH234568   6.276   7.305   9.376
 3530TIP3    H134569   6.350   7.255   9.410
 3530TIP3    H234570   6.272   7.277   9.283
 3531TIP3   OH234571   6.924   7.144   9.252
 3531TIP3    H134572   6.892   7.055   9.280
 3531TIP3    H234573   7.001   7.156   9.311
 3532TIP3   OH234574   5.797   6.793   9.315
 3532TIP3    H134575   5.811   6.699   9.290
 3532TIP3    H234576   5.722   6.815   9.258
 3533TIP3   OH234577   6.468   6.790   9.254
 3533TIP3    H134578   6.435   6.822   9.168
 3533TIP3    H234579   6.475   6.692   9.243
 3534TIP3   OH234580   7.038   6.775   8.994
 3534TIP3    H134581   7.117   6.832   8.989
 3534TIP3    H234582   6.968   6.843   8.997
 3535TIP3   OH234583   5.903   6.516   9.256
 3535TIP3    H134584   5.928   6.424   9.246
 3535TIP3    H234585   5.857   6.513   9.342
 3536TIP3   OH234586   6.359   6.624   7.765
 3536TIP3    H134587   6.300   6.573   7.823
 3536TIP3    H234588   6.380   6.561   7.693
 3537TIP3   OH234589   6.278   6.407   8.989
 3537TIP3    H134590   6.219   6.480   9.014
 3537TIP3    H234591   6.319   6.444   8.909
 3538TIP3   OH234592   6.457   6.437   7.579
 3538TIP3    H134593   6.444   6.444   7.484
 3538TIP3    H234594   6.554   6.453   7.589
 3539TIP3   OH234595   6.787   6.665   9.324
 3539TIP3    H134596   6.882   6.662   9.309
 3539TIP3    H234597   6.770   6.588   9.380
 3540TIP3   OH234598   6.324   6.145   9.094
 3540TIP3    H134599   6.332   6.075   9.027
 3540TIP3    H234600   6.315   6.227   9.039
 3541TIP3   OH234601   6.360   5.983   8.850
 3541TIP3    H134602   6.411   6.030   8.780
 3541TIP3    H234603   6.271   5.976   8.811
 3542TIP3   OH234604   6.514   6.534   8.875
 3542TIP3    H134605   6.589   6.517   8.818
 3542TIP3    H234606   6.477   6.616   8.840
 3543TIP3   OH234607   6.953   6.307   9.369
 3543TIP3    H134608   6.977   6.214   9.361
 3543TIP3    H234609   7.039   6.352   9.374
 3544TIP3   OH234610   7.089   6.587   9.188
 3544TIP3    H134611   7.063   6.659   9.126
 3544TIP3    H234612   7.184   6.584   9.169
 3545TIP3   OH234613   6.167   6.269   9.288
 3545TIP3    H134614   6.088   6.214   9.271
 3545TIP3    H234615   6.231   6.233   9.224
 3546TIP3   OH234616   6.439   5.727   8.888
 3546TIP3    H134617   6.419   5.823   8.879
 3546TIP3    H234618   6.364   5.690   8.838
 3547TIP3   OH234619   6.567   6.160   9.253
 3547TIP3    H134620   6.534   6.136   9.342
 3547TIP3    H234621   6.489   6.140   9.198
 3548TIP3   OH234622   6.838   6.075   9.162
 3548TIP3    H134623   6.742   6.080   9.173
 3548TIP3    H234624   6.864   6.010   9.231
 3549TIP3   OH234625   6.996   5.936   9.350
 3549TIP3    H134626   6.992   5.838   9.354
 3549TIP3    H234627   6.972   5.965   9.440
 3550TIP3   OH234628   5.975   6.064   9.263
 3550TIP3    H134629   5.998   5.989   9.205
 3550TIP3    H234630   5.963   6.020   9.350
 3551TIP3   OH234631   6.460   5.668   9.159
 3551TIP3    H134632   6.528   5.597   9.158
 3551TIP3    H234633   6.449   5.680   9.063
 3552TIP3   OH234634   6.497   5.828   9.372
 3552TIP3    H134635   6.479   5.777   9.289
 3552TIP3    H234636   6.437   5.904   9.362
 3553TIP3   OH234637   6.450   7.520   7.690
 3553TIP3    H134638   6.544   7.537   7.693
 3553TIP3    H234639   6.420   7.575   7.616
 3554TIP3   OH234640   5.677   7.514   8.132
 3554TIP3    H134641   5.606   7.466   8.085
 3554TIP3    H234642   5.704   7.449   8.199
 3555TIP3   OH234643   5.759   7.328   8.319
 3555TIP3    H134644   5.723   7.241   8.340
 3555TIP3    H234645   5.782   7.362   8.408
 3556TIP3   OH234646   7.506   7.410   8.611
 3556TIP3    H134647   7.515   7.424   8.707
 3556TIP3    H234648   7.582   7.463   8.581
 3557TIP3   OH234649   7.472   7.367   8.908
 3557TIP3    H134650   7.423   7.291   8.869
 3557TIP3    H234651   7.520   7.321   8.979
 3558TIP3   OH234652   7.315   6.939   9.375
 3558TIP3    H134653   7.224   6.937   9.410
 3558TIP3    H234654   7.352   7.021   9.415
 3559TIP3   OH234655   7.452   6.769   7.911
 3559TIP3    H134656   7.533   6.814   7.939
 3559TIP3    H234657   7.445   6.702   7.982
 3560TIP3   OH234658   7.481   6.582   8.102
 3560TIP3    H134659   7.406   6.531   8.141
 3560TIP3    H234660   7.540   6.592   8.179
 3561TIP3   OH234661   7.457   6.849   8.604
 3561TIP3    H134662   7.538   6.811   8.566
 3561TIP3    H234663   7.472   6.944   8.587
 3562TIP3   OH234664   7.313   7.141   8.830
 3562TIP3    H134665   7.245   7.175   8.889
 3562TIP3    H234666   7.259   7.101   8.759
 3563TIP3   OH234667   7.358   6.284   7.594
 3563TIP3    H134668   7.343   6.354   7.529
 3563TIP3    H234669   7.320   6.208   7.546
 3564TIP3   OH234670   7.264   6.428   8.165
 3564TIP3    H134671   7.249   6.333   8.157
 3564TIP3    H234672   7.232   6.447   8.256
 3565TIP3   OH234673   5.765   6.637   8.569
 3565TIP3    H134674   5.782   6.628   8.473
 3565TIP3    H234675   5.855   6.618   8.604
 3566TIP3   OH234676   7.351   6.623   9.133
 3566TIP3    H134677   7.413   6.548   9.145
 3566TIP3    H234678   7.411   6.701   9.132
 3567TIP3   OH234679   7.501   6.412   9.197
 3567TIP3    H134680   7.413   6.372   9.182
 3567TIP3    H234681   7.559   6.334   9.190
 3568TIP3   OH234682   7.230   6.186   8.007
 3568TIP3    H134683   7.258   6.093   8.020
 3568TIP3    H234684   7.311   6.226   7.973
 3569TIP3   OH234685   7.296   6.234   8.554
 3569TIP3    H134686   7.390   6.266   8.551
 3569TIP3    H234687   7.275   6.258   8.646
 3570TIP3   OH234688   7.301   6.311   8.825
 3570TIP3    H134689   7.214   6.340   8.861
 3570TIP3    H234690   7.345   6.397   8.808
 3571TIP3   OH234691   5.731   6.157   9.182
 3571TIP3    H134692   5.823   6.141   9.208
 3571TIP3    H234693   5.681   6.080   9.215
 3572TIP3   OH234694   7.530   5.720   9.365
 3572TIP3    H134695   7.565   5.654   9.302
 3572TIP3    H234696   7.538   5.801   9.311
 3573TIP3   OH234697   7.297   5.913   8.012
 3573TIP3    H134698   7.318   5.870   8.097
 3573TIP3    H234699   7.235   5.849   7.969
 3574TIP3   OH234700   5.847   5.996   8.470
 3574TIP3    H134701   5.892   5.913   8.494
 3574TIP3    H234702   5.903   6.064   8.508
 3575TIP3   OH234703   5.674   6.296   8.570
 3575TIP3    H134704   5.733   6.271   8.496
 3575TIP3    H234705   5.721   6.375   8.601
 3576TIP3   OH234706   7.481   5.929   9.201
 3576TIP3    H134707   7.387   5.957   9.195
 3576TIP3    H234708   7.484   5.874   9.121
 3577TIP3   OH234709   5.710   5.926   7.980
 3577TIP3    H134710   5.615   5.940   7.967
 3577TIP3    H234711   5.752   5.970   7.905
 3578TIP3   OH234712   7.184   7.415   8.175
 3578TIP3    H134713   7.253   7.385   8.112
 3578TIP3    H234714   7.235   7.466   8.239
 3579TIP3   OH234715   5.706   5.786   8.809
 3579TIP3    H134716   5.640   5.767   8.878
 3579TIP3    H234717   5.660   5.854   8.755
 3580TIP3   OH234718   5.930   7.106   9.225
 3580TIP3    H134719   5.846   7.127   9.182
 3580TIP3    H234720   5.904   7.099   9.317
 3581TIP3   OH234721   6.220   7.207   8.854
 3581TIP3    H134722   6.189   7.295   8.827
 3581TIP3    H234723   6.312   7.215   8.824
 3582TIP3   OH234724   6.652   7.350   9.143
 3582TIP3    H134725   6.665   7.315   9.234
 3582TIP3    H234726   6.743   7.381   9.120
 3583TIP3   OH234727   6.880   7.477   9.075
 3583TIP3    H134728   6.954   7.419   9.051
 3583TIP3    H234729   6.916   7.522   9.155
 3584TIP3   OH234730   7.386   5.739   8.983
 3584TIP3    H134731   7.299   5.766   8.948
 3584TIP3    H234732   7.399   5.653   8.937
 3585TIP3   OH234733   5.960   7.526   8.853
 3585TIP3    H134734   5.891   7.582   8.814
 3585TIP3    H234735   5.929   7.514   8.944
 3586TIP3   OH234736   6.207   7.481   8.762
 3586TIP3    H134737   6.121   7.509   8.800
 3586TIP3    H234738   6.208   7.544   8.686
 3587TIP3   OH234739   6.682   7.481   8.678
 3587TIP3    H134740   6.634   7.535   8.613
 3587TIP3    H234741   6.693   7.546   8.751
 3588TIP3   OH234742   6.908   7.359   8.782
 3588TIP3    H134743   6.824   7.389   8.743
 3588TIP3    H234744   6.958   7.442   8.772
 3589TIP3   OH234745   7.164   7.516   8.801
 3589TIP3    H134746   7.160   7.612   8.780
 3589TIP3    H234747   7.189   7.479   8.714
 3590TIP3   OH234748   5.910   7.395   8.547
 3590TIP3    H134749   5.900   7.350   8.634
 3590TIP3    H234750   5.991   7.357   8.509
 3591TIP3   OH234751   6.117   7.267   8.412
 3591TIP3    H134752   6.101   7.174   8.437
 3591TIP3    H234753   6.202   7.283   8.458
 3592TIP3   OH234754   6.378   7.316   8.501
 3592TIP3    H134755   6.392   7.223   8.475
 3592TIP3    H234756   6.381   7.310   8.598
 3593TIP3   OH234757   6.722   5.880   8.414
 3593TIP3    H134758   6.654   5.817   8.443
 3593TIP3    H234759   6.777   5.826   8.356
 3594TIP3   OH234760   7.239   5.698   8.428
 3594TIP3    H134761   7.291   5.738   8.355
 3594TIP3    H234762   7.146   5.716   8.398
 3595TIP3   OH234763   7.407   5.807   8.258
 3595TIP3    H134764   7.469   5.750   8.205
 3595TIP3    H234765   7.455   5.894   8.253
 3596TIP3   OH234766   5.958   5.742   8.202
 3596TIP3    H134767   5.880   5.724   8.147
 3596TIP3    H234768   6.005   5.657   8.191
 3597TIP3   OH234769   5.839   5.718   7.775
 3597TIP3    H134770   5.883   5.782   7.719
 3597TIP3    H234771   5.776   5.770   7.827
 3598TIP3   OH234772   6.405   5.734   8.179
 3598TIP3    H134773   6.494   5.770   8.168
 3598TIP3    H234774   6.403   5.713   8.272
 3599TIP3   OH234775   6.985   5.735   8.338
 3599TIP3    H134776   6.970   5.750   8.244
 3599TIP3    H234777   6.939   5.648   8.352
 3600TIP3   OH234778   7.103   5.740   7.916
 3600TIP3    H134779   7.030   5.799   7.891
 3600TIP3    H234780   7.059   5.653   7.928
 3601TIP3   OH234781   5.826   7.313   7.874
 3601TIP3    H134782   5.763   7.313   7.799
 3601TIP3    H234783   5.831   7.409   7.887
 3602TIP3   OH234784   6.515   5.937   7.862
 3602TIP3    H134785   6.546   5.879   7.933
 3602TIP3    H234786   6.531   6.024   7.906
 3603TIP3   OH234787   7.382   7.398   7.978
 3603TIP3    H134788   7.365   7.317   7.923
 3603TIP3    H234789   7.378   7.470   7.912
 3604TIP3   OH234790   5.947   5.797   9.144
 3604TIP3    H134791   5.907   5.718   9.183
 3604TIP3    H234792   6.038   5.793   9.183
 3605TIP3   OH234793   6.147   5.736   9.309
 3605TIP3    H134794   6.236   5.702   9.288
 3605TIP3    H234795   6.110   5.655   9.349
 3606TIP3   OH234796   6.987   5.664   9.324
 3606TIP3    H134797   6.997   5.617   9.409
 3606TIP3    H234798   7.079   5.662   9.290
 3607TIP3   OH234799   7.309   7.270   9.186
 3607TIP3    H134800   7.228   7.256   9.131
 3607TIP3    H234801   7.296   7.364   9.208
 3608TIP3   OH234802   7.871   6.553   8.692
 3608TIP3    H134803   7.886   6.481   8.757
 3608TIP3    H234804   7.951   6.604   8.710
 3609TIP3   OH234805   7.947   6.981   8.555
 3609TIP3    H134806   7.931   6.898   8.507
 3609TIP3    H234807   8.045   6.985   8.547
 3610TIP3   OH234808   7.629   6.351   8.086
 3610TIP3    H134809   7.586   6.439   8.085
 3610TIP3    H234810   7.567   6.297   8.037
 3611TIP3   OH234811   7.701   6.574   8.302
 3611TIP3    H134812   7.729   6.492   8.348
 3611TIP3    H234813   7.774   6.586   8.239
 3612TIP3   OH234814   7.762   6.317   8.408
 3612TIP3    H134815   7.832   6.267   8.454
 3612TIP3    H234816   7.781   6.289   8.317
 3613TIP3   OH234817   7.974   5.967   8.736
 3613TIP3    H134818   7.963   6.030   8.662
 3613TIP3    H234819   7.915   6.000   8.806
 3614TIP3   OH234820   7.939   6.139   8.532
 3614TIP3    H134821   7.994   6.212   8.574
 3614TIP3    H234822   7.999   6.111   8.461
 3615TIP3   OH234823   8.072   6.969   8.845
 3615TIP3    H134824   8.065   7.055   8.805
 3615TIP3    H234825   7.986   6.950   8.888
 3616TIP3   OH234826   7.700   6.895   7.920
 3616TIP3    H134827   7.680   6.933   7.835
 3616TIP3    H234828   7.706   6.975   7.977
 3617TIP3   OH234829   7.936   6.600   8.973
 3617TIP3    H134830   7.946   6.665   9.044
 3617TIP3    H234831   7.843   6.610   8.950
 3618TIP3   OH234832   8.076   7.188   9.133
 3618TIP3    H134833   8.072   7.174   9.038
 3618TIP3    H234834   7.982   7.175   9.157
 3619TIP3   OH234835   8.018   6.574   7.980
 3619TIP3    H134836   7.994   6.652   7.926
 3619TIP3    H234837   7.950   6.511   7.959
 3620TIP3   OH234838   7.628   6.812   8.873
 3620TIP3    H134839   7.586   6.804   8.785
 3620TIP3    H234840   7.641   6.717   8.894
 3621TIP3   OH234841   7.607   7.087   8.551
 3621TIP3    H134842   7.703   7.076   8.547
 3621TIP3    H234843   7.601   7.171   8.599
 3622TIP3   OH234844   7.923   7.364   8.169
 3622TIP3    H134845   7.939   7.326   8.257
 3622TIP3    H234846   7.837   7.324   8.147
 3623TIP3   OH234847   7.848   6.949   8.972
 3623TIP3    H134848   7.878   6.904   9.054
 3623TIP3    H234849   7.767   6.901   8.945
 3624TIP3   OH234850   7.899   6.316   8.856
 3624TIP3    H134851   7.903   6.355   8.945
 3624TIP3    H234852   7.861   6.229   8.873
 3625TIP3   OH234853   7.561   6.017   8.255
 3625TIP3    H134854   7.633   6.023   8.322
 3625TIP3    H234855   7.610   5.993   8.175
 3626TIP3   OH234856   7.866   6.216   8.157
 3626TIP3    H134857   7.777   6.224   8.120
 3626TIP3    H234858   7.899   6.129   8.130
 3627TIP3   OH234859   7.915   6.799   9.184
 3627TIP3    H134860   7.985   6.817   9.246
 3627TIP3    H234861   7.837   6.801   9.244
 3628TIP3   OH234862   7.967   5.941   8.085
 3628TIP3    H134863   7.965   5.848   8.114
 3628TIP3    H234864   8.063   5.950   8.080
 3629TIP3   OH234865   7.946   6.727   8.445
 3629TIP3    H134866   8.023   6.722   8.386
 3629TIP3    H234867   7.956   6.646   8.499
 3630TIP3   OH234868   7.650   6.565   8.979
 3630TIP3    H134869   7.666   6.521   9.065
 3630TIP3    H234870   7.587   6.505   8.934
 3631TIP3   OH234871   7.813   6.040   8.939
 3631TIP3    H134872   7.723   6.076   8.931
 3631TIP3    H234873   7.800   5.953   8.980
 3632TIP3   OH234874   7.785   7.219   8.775
 3632TIP3    H134875   7.799   7.123   8.781
 3632TIP3    H234876   7.801   7.250   8.865
 3633TIP3   OH234877   7.898   6.751   7.792
 3633TIP3    H134878   7.839   6.794   7.856
 3633TIP3    H234879   7.956   6.827   7.769
 3634TIP3   OH234880   7.960   7.002   7.692
 3634TIP3    H134881   8.020   7.075   7.713
 3634TIP3    H234882   8.005   6.971   7.611
 3635TIP3   OH234883   7.867   5.759   8.476
 3635TIP3    H134884   7.865   5.759   8.378
 3635TIP3    H234885   7.839   5.669   8.500
 3636TIP3   OH234886   7.764   7.146   8.085
 3636TIP3    H134887   7.681   7.196   8.083
 3636TIP3    H234888   7.817   7.193   8.020
 3637TIP3   OH234889   7.690   7.414   9.213
 3637TIP3    H134890   7.749   7.395   9.289
 3637TIP3    H234891   7.650   7.327   9.198
 3638TIP3   OH234892   7.683   6.790   9.315
 3638TIP3    H134893   7.697   6.698   9.287
 3638TIP3    H234894   7.608   6.816   9.259
 3639TIP3   OH234895   7.776   6.514   9.255
 3639TIP3    H134896   7.816   6.428   9.243
 3639TIP3    H234897   7.755   6.514   9.349
 3640TIP3   OH234898   8.038   6.287   9.299
 3640TIP3    H134899   7.968   6.221   9.279
 3640TIP3    H234900   8.108   6.256   9.239
 3641TIP3   OH234901   7.859   6.063   9.262
 3641TIP3    H134902   7.881   5.988   9.203
 3641TIP3    H234903   7.853   6.021   9.350
 3642TIP3   OH234904   7.562   7.514   8.131
 3642TIP3    H134905   7.490   7.465   8.085
 3642TIP3    H234906   7.591   7.450   8.199
 3643TIP3   OH234907   7.644   7.327   8.319
 3643TIP3    H134908   7.608   7.240   8.340
 3643TIP3    H234909   7.670   7.360   8.407
 3644TIP3   OH234910   7.652   6.642   8.568
 3644TIP3    H134911   7.671   6.626   8.473
 3644TIP3    H234912   7.740   6.619   8.605
 3645TIP3   OH234913   7.610   6.167   9.184
 3645TIP3    H134914   7.704   6.145   9.202
 3645TIP3    H234915   7.565   6.084   9.211
 3646TIP3   OH234916   7.724   5.994   8.476
 3646TIP3    H134917   7.782   5.914   8.489
 3646TIP3    H234918   7.789   6.063   8.502
 3647TIP3   OH234919   7.558   6.296   8.572
 3647TIP3    H134920   7.618   6.273   8.498
 3647TIP3    H234921   7.604   6.376   8.601
 3648TIP3   OH234922   7.593   5.923   7.979
 3648TIP3    H134923   7.498   5.939   7.967
 3648TIP3    H234924   7.634   5.971   7.908
 3649TIP3   OH234925   7.588   5.784   8.807
 3649TIP3    H134926   7.525   5.767   8.880
 3649TIP3    H234927   7.548   5.860   8.761
 3650TIP3   OH234928   7.813   7.108   9.226
 3650TIP3    H134929   7.730   7.130   9.180
 3650TIP3    H234930   7.784   7.097   9.317
 3651TIP3   OH234931   7.847   7.530   8.856
 3651TIP3    H134932   7.775   7.581   8.813
 3651TIP3    H234933   7.810   7.515   8.944
 3652TIP3   OH234934   8.075   7.453   8.733
 3652TIP3    H134935   8.008   7.490   8.794
 3652TIP3    H234936   8.096   7.536   8.686
 3653TIP3   OH234937   7.784   7.396   8.550
 3653TIP3    H134938   7.789   7.352   8.638
 3653TIP3    H234939   7.867   7.362   8.510
 3654TIP3   OH234940   7.983   7.267   8.429
 3654TIP3    H134941   7.977   7.170   8.442
 3654TIP3    H234942   8.073   7.279   8.463
 3655TIP3   OH234943   7.836   5.738   8.204
 3655TIP3    H134944   7.759   5.718   8.147
 3655TIP3    H234945   7.891   5.658   8.197
 3656TIP3   OH234946   7.728   5.718   7.778
 3656TIP3    H134947   7.766   5.778   7.712
 3656TIP3    H234948   7.663   5.770   7.827
 3657TIP3   OH234949   7.713   7.316   7.870
 3657TIP3    H134950   7.644   7.314   7.802
 3657TIP3    H234951   7.718   7.411   7.886
 3658TIP3   OH234952   7.839   5.798   9.141
 3658TIP3    H134953   7.799   5.720   9.182
 3658TIP3    H234954   7.929   5.793   9.181
 3659TIP3   OH234955   8.032   5.732   9.310
 3659TIP3    H134956   8.120   5.701   9.283
 3659TIP3    H234957   7.996   5.651   9.350
 3660TIP3   OH234958   1.772   7.903   8.643
 3660TIP3    H134959   1.813   7.923   8.730
 3660TIP3    H234960   1.851   7.909   8.588
 3661TIP3   OH234961   0.563   7.963   8.335
 3661TIP3    H134962   0.575   8.045   8.285
 3661TIP3    H234963   0.527   7.904   8.265
 3662TIP3   OH234964   1.339   7.967   8.167
 3662TIP3    H134965   1.402   7.942   8.240
 3662TIP3    H234966   1.399   8.025   8.118
 3663TIP3   OH234967   1.836   7.987   8.880
 3663TIP3    H134968   1.804   8.075   8.852
 3663TIP3    H234969   1.858   7.998   8.974
 3664TIP3   OH234970   0.456   7.842   8.747
 3664TIP3    H134971   0.428   7.897   8.669
 3664TIP3    H234972   0.386   7.870   8.811
 3665TIP3   OH234973   1.508   7.893   8.366
 3665TIP3    H134974   1.497   7.824   8.432
 3665TIP3    H234975   1.572   7.952   8.412
 3666TIP3   OH234976   0.425   8.004   8.556
 3666TIP3    H134977   0.464   8.090   8.579
 3666TIP3    H234978   0.466   7.989   8.467
 3667TIP3   OH234979   1.548   7.779   8.741
 3667TIP3    H134980   1.474   7.840   8.725
 3667TIP3    H234981   1.621   7.817   8.686
 3668TIP3   OH234982   0.846   7.586   8.485
 3668TIP3    H134983   0.830   7.491   8.478
 3668TIP3    H234984   0.759   7.618   8.517
 3669TIP3   OH234985   1.679   7.582   7.777
 3669TIP3    H134986   1.585   7.589   7.809
 3669TIP3    H234987   1.694   7.674   7.751
 3670TIP3   OH234988   0.588   7.680   8.558
 3670TIP3    H134989   0.496   7.664   8.525
 3670TIP3    H234990   0.573   7.760   8.612
 3671TIP3   OH234991   1.050   7.643   8.897
 3671TIP3    H134992   1.089   7.600   8.976
 3671TIP3    H234993   0.952   7.633   8.912
 3672TIP3   OH234994   1.379   8.030   8.990
 3672TIP3    H134995   1.319   8.006   9.065
 3672TIP3    H234996   1.349   8.117   8.962
 3673TIP3   OH234997   0.051   7.943   8.261
 3673TIP3    H134998   0.101   7.906   8.337
 3673TIP3    H234999   0.062   7.875   8.194
 3674TIP3   OH235000   0.131   7.957   7.770
 3674TIP3    H135001   0.194   8.027   7.741
 3674TIP3    H235002   0.083   8.022   7.824
 3675TIP3   OH235003   0.845   7.929   8.272
 3675TIP3    H135004   0.752   7.938   8.302
 3675TIP3    H235005   0.897   7.924   8.353
 3676TIP3   OH235006   1.290   7.864   8.599
 3676TIP3    H135007   1.219   7.876   8.666
 3676TIP3    H235008   1.239   7.841   8.520
 3677TIP3   OH235009   0.480   7.831   8.108
 3677TIP3    H135010   0.445   7.740   8.105
 3677TIP3    H235011   0.559   7.825   8.052
 3678TIP3   OH235012   0.842   8.028   8.691
 3678TIP3    H135013   0.768   8.091   8.696
 3678TIP3    H235014   0.896   8.069   8.762
 3679TIP3   OH235015   0.271   7.924   8.937
 3679TIP3    H135016   0.182   7.962   8.932
 3679TIP3    H235017   0.253   7.838   8.980
 3680TIP3   OH235018   1.140   7.898   8.829
 3680TIP3    H135019   1.212   7.911   8.892
 3680TIP3    H235020   1.107   7.810   8.853
 3681TIP3   OH235021   1.219   7.869   7.944
 3681TIP3    H135022   1.239   7.907   7.856
 3681TIP3    H235023   1.282   7.906   8.008
 3682TIP3   OH235024   0.952   8.026   8.020
 3682TIP3    H135025   1.019   8.097   8.024
 3682TIP3    H235026   0.915   8.025   8.110
 3683TIP3   OH235027   1.032   7.740   8.116
 3683TIP3    H135028   0.995   7.807   8.178
 3683TIP3    H235029   1.096   7.795   8.063
 3684TIP3   OH235030   1.618   7.923   9.022
 3684TIP3    H135031   1.524   7.954   9.015
 3684TIP3    H235032   1.646   7.921   8.929
 3685TIP3   OH235033   0.337   7.642   8.470
 3685TIP3    H135034   0.311   7.644   8.375
 3685TIP3    H235035   0.296   7.557   8.498
 3686TIP3   OH235036   0.605   8.001   9.080
 3686TIP3    H135037   0.665   7.944   9.028
 3686TIP3    H235038   0.639   8.090   9.059
 3687TIP3   OH235039   0.701   7.870   8.851
 3687TIP3    H135040   0.756   7.910   8.780
 3687TIP3    H235041   0.612   7.865   8.809
 3688TIP3   OH235042   0.782   7.615   8.887
 3688TIP3    H135043   0.761   7.710   8.881
 3688TIP3    H235044   0.707   7.578   8.837
 3689TIP3   OH235045   0.937   7.990   9.285
 3689TIP3    H135046   0.903   8.022   9.371
 3689TIP3    H235047   0.853   7.998   9.239
 3690TIP3   OH235048   1.181   7.949   9.149
 3690TIP3    H135049   1.090   7.967   9.177
 3690TIP3    H235050   1.211   7.900   9.228
 3691TIP3   OH235051   1.338   7.820   9.353
 3691TIP3    H135052   1.331   7.722   9.351
 3691TIP3    H235053   1.315   7.846   9.444
 3692TIP3   OH235054   0.326   7.952   9.270
 3692TIP3    H135055   0.342   7.881   9.204
 3692TIP3    H235056   0.315   7.897   9.350
 3693TIP3   OH235057   0.804   7.552   9.158
 3693TIP3    H135058   0.871   7.480   9.157
 3693TIP3    H235059   0.793   7.567   9.063
 3694TIP3   OH235060   0.838   7.706   9.374
 3694TIP3    H135061   0.824   7.658   9.288
 3694TIP3    H235062   0.786   7.788   9.361
 3695TIP3   OH235063   1.597   8.055   8.043
 3695TIP3    H135064   1.614   7.961   8.019
 3695TIP3    H235065   1.649   8.099   7.973
 3696TIP3   OH235066   0.080   8.027   9.164
 3696TIP3    H135067   0.171   8.018   9.196
 3696TIP3    H235068   0.033   7.958   9.210
 3697TIP3   OH235069   1.873   7.600   9.364
 3697TIP3    H135070   1.909   7.536   9.300
 3697TIP3    H235071   1.879   7.683   9.313
 3698TIP3   OH235072   1.646   7.794   8.006
 3698TIP3    H135073   1.665   7.757   8.095
 3698TIP3    H235074   1.579   7.732   7.971
 3699TIP3   OH235075   0.197   7.878   8.466
 3699TIP3    H135076   0.239   7.796   8.495
 3699TIP3    H235077   0.240   7.942   8.523
 3700TIP3   OH235078   1.822   7.810   9.201
 3700TIP3    H135079   1.731   7.843   9.192
 3700TIP3    H235080   1.830   7.760   9.118
 3701TIP3   OH235081   0.072   7.780   7.940
 3701TIP3    H135082  -0.020   7.810   7.952
 3701TIP3    H235083   0.110   7.859   7.896
 3702TIP3   OH235084   0.070   7.688   8.823
 3702TIP3    H135085  -0.004   7.659   8.878
 3702TIP3    H235086   0.013   7.746   8.767
 3703TIP3   OH235087   1.719   7.618   8.991
 3703TIP3    H135088   1.644   7.653   8.941
 3703TIP3    H235089   1.745   7.541   8.935
 3704TIP3   OH235090   1.065   7.763   8.412
 3704TIP3    H135091   0.998   7.699   8.443
 3704TIP3    H235092   1.121   7.707   8.356
 3705TIP3   OH235093   1.578   7.571   8.420
 3705TIP3    H135094   1.643   7.628   8.373
 3705TIP3    H235095   1.492   7.612   8.396
 3706TIP3   OH235096   1.743   7.692   8.244
 3706TIP3    H135097   1.816   7.636   8.209
 3706TIP3    H235098   1.794   7.772   8.265
 3707TIP3   OH235099   0.305   7.627   8.200
 3707TIP3    H135100   0.224   7.608   8.149
 3707TIP3    H235101   0.351   7.542   8.191
 3708TIP3   OH235102   0.177   7.603   7.765
 3708TIP3    H135103   0.222   7.674   7.720
 3708TIP3    H235104   0.126   7.654   7.833
 3709TIP3   OH235105   0.750   7.616   8.178
 3709TIP3    H135106   0.839   7.656   8.169
 3709TIP3    H235107   0.743   7.607   8.273
 3710TIP3   OH235108   1.320   7.621   8.340
 3710TIP3    H135109   1.316   7.633   8.245
 3710TIP3    H235110   1.279   7.532   8.352
 3711TIP3   OH235111   1.446   7.627   7.904
 3711TIP3    H135112   1.372   7.688   7.893
 3711TIP3    H235113   1.402   7.542   7.927
 3712TIP3   OH235114   0.855   7.822   7.865
 3712TIP3    H135115   0.892   7.766   7.933
 3712TIP3    H235116   0.872   7.909   7.908
 3713TIP3   OH235117   0.286   7.688   9.151
 3713TIP3    H135118   0.251   7.602   9.182
 3713TIP3    H235119   0.381   7.679   9.180
 3714TIP3   OH235120   0.493   7.620   9.309
 3714TIP3    H135121   0.581   7.586   9.287
 3714TIP3    H235122   0.453   7.540   9.348
 3715TIP3   OH235123   1.330   7.548   9.325
 3715TIP3    H135124   1.341   7.502   9.410
 3715TIP3    H235125   1.421   7.549   9.290
 3716TIP3   OH235126   3.679   7.875   8.645
 3716TIP3    H135127   3.698   7.923   8.729
 3716TIP3    H235128   3.738   7.920   8.585
 3717TIP3   OH235129   2.448   7.964   8.335
 3717TIP3    H135130   2.461   8.045   8.285
 3717TIP3    H235131   2.411   7.904   8.265
 3718TIP3   OH235132   3.224   7.969   8.165
 3718TIP3    H135133   3.285   7.941   8.237
 3718TIP3    H235134   3.287   8.025   8.118
 3719TIP3   OH235135   3.720   7.985   8.878
 3719TIP3    H135136   3.691   8.075   8.853
 3719TIP3    H235137   3.743   7.999   8.973
 3720TIP3   OH235138   2.344   7.845   8.749
 3720TIP3    H135139   2.313   7.895   8.670
 3720TIP3    H235140   2.270   7.869   8.811
 3721TIP3   OH235141   3.396   7.893   8.366
 3721TIP3    H135142   3.380   7.825   8.432
 3721TIP3    H235143   3.455   7.953   8.413
 3722TIP3   OH235144   2.315   8.005   8.558
 3722TIP3    H135145   2.353   8.093   8.577
 3722TIP3    H235146   2.351   7.988   8.468
 3723TIP3   OH235147   3.435   7.778   8.739
 3723TIP3    H135148   3.359   7.837   8.726
 3723TIP3    H235149   3.506   7.819   8.685
 3724TIP3   OH235150   2.732   7.586   8.485
 3724TIP3    H135151   2.715   7.490   8.477
 3724TIP3    H235152   2.645   7.618   8.517
 3725TIP3   OH235153   2.476   7.680   8.563
 3725TIP3    H135154   2.386   7.662   8.526
 3725TIP3    H235155   2.456   7.760   8.612
 3726TIP3   OH235156   2.935   7.642   8.897
 3726TIP3    H135157   2.975   7.600   8.976
 3726TIP3    H235158   2.838   7.633   8.912
 3727TIP3   OH235159   3.265   8.030   8.990
 3727TIP3    H135160   3.205   8.006   9.064
 3727TIP3    H235161   3.235   8.117   8.962
 3728TIP3   OH235162   2.912   7.892   7.639
 3728TIP3    H135163   2.862   7.898   7.722
 3728TIP3    H235164   2.869   7.816   7.597
 3729TIP3   OH235165   2.591   7.922   7.596
 3729TIP3    H135166   2.514   7.887   7.640
 3729TIP3    H235167   2.552   7.965   7.514
 3730TIP3   OH235168   1.908   7.913   8.248
 3730TIP3    H135169   1.970   7.905   8.325
 3730TIP3    H235170   1.956   7.870   8.176
 3731TIP3   OH235171   2.018   7.954   7.787
 3731TIP3    H135172   2.078   8.021   7.747
 3731TIP3    H235173   1.964   8.023   7.829
 3732TIP3   OH235174   2.729   7.929   8.271
 3732TIP3    H135175   2.636   7.938   8.302
 3732TIP3    H235176   2.782   7.924   8.352
 3733TIP3   OH235177   3.176   7.864   8.599
 3733TIP3    H135178   3.105   7.876   8.666
 3733TIP3    H235179   3.124   7.841   8.520
 3734TIP3   OH235180   2.363   7.830   8.114
 3734TIP3    H135181   2.330   7.739   8.107
 3734TIP3    H235182   2.437   7.828   8.051
 3735TIP3   OH235183   2.727   8.028   8.691
 3735TIP3    H135184   2.654   8.090   8.696
 3735TIP3    H235185   2.782   8.069   8.762
 3736TIP3   OH235186   3.174   7.956   7.707
 3736TIP3    H135187   3.081   7.964   7.673
 3736TIP3    H235188   3.199   8.049   7.712
 3737TIP3   OH235189   2.158   7.928   8.943
 3737TIP3    H135190   2.067   7.960   8.930
 3737TIP3    H235191   2.143   7.839   8.980
 3738TIP3   OH235192   3.026   7.898   8.828
 3738TIP3    H135193   3.097   7.912   8.892
 3738TIP3    H235194   2.992   7.810   8.854
 3739TIP3   OH235195   3.101   7.866   7.943
 3739TIP3    H135196   3.131   7.904   7.858
 3739TIP3    H235197   3.161   7.903   8.010
 3740TIP3   OH235198   2.838   8.027   8.019
 3740TIP3    H135199   2.905   8.097   8.025
 3740TIP3    H235200   2.799   8.026   8.108
 3741TIP3   OH235201   2.915   7.742   8.114
 3741TIP3    H135202   2.882   7.808   8.178
 3741TIP3    H235203   2.983   7.795   8.064
 3742TIP3   OH235204   2.474   7.842   7.803
 3742TIP3    H135205   2.471   7.937   7.819
 3742TIP3    H235206   2.572   7.827   7.807
 3743TIP3   OH235207   3.503   7.922   9.023
 3743TIP3    H135208   3.409   7.953   9.016
 3743TIP3    H235209   3.531   7.922   8.930
 3744TIP3   OH235210   2.235   7.632   8.469
 3744TIP3    H135211   2.198   7.646   8.380
 3744TIP3    H235212   2.173   7.563   8.500
 3745TIP3   OH235213   2.492   8.001   9.081
 3745TIP3    H135214   2.550   7.944   9.028
 3745TIP3    H235215   2.525   8.090   9.059
 3746TIP3   OH235216   2.588   7.870   8.851
 3746TIP3    H135217   2.642   7.910   8.780
 3746TIP3    H235218   2.498   7.865   8.809
 3747TIP3   OH235219   2.667   7.615   8.888
 3747TIP3    H135220   2.646   7.710   8.880
 3747TIP3    H235221   2.592   7.577   8.837
 3748TIP3   OH235222   2.822   7.990   9.285
 3748TIP3    H135223   2.788   8.022   9.371
 3748TIP3    H235224   2.739   7.999   9.238
 3749TIP3   OH235225   3.066   7.950   9.149
 3749TIP3    H135226   2.975   7.966   9.177
 3749TIP3    H235227   3.098   7.901   9.227
 3750TIP3   OH235228   3.224   7.820   9.353
 3750TIP3    H135229   3.216   7.722   9.351
 3750TIP3    H235230   3.201   7.846   9.444
 3751TIP3   OH235231   2.210   7.951   9.268
 3751TIP3    H135232   2.226   7.878   9.205
 3751TIP3    H235233   2.195   7.898   9.348
 3752TIP3   OH235234   2.690   7.554   9.157
 3752TIP3    H135235   2.756   7.481   9.156
 3752TIP3    H235236   2.678   7.567   9.061
 3753TIP3   OH235237   2.721   7.703   9.377
 3753TIP3    H135238   2.710   7.659   9.289
 3753TIP3    H235239   2.673   7.788   9.362
 3754TIP3   OH235240   3.511   7.896   7.503
 3754TIP3    H135241   3.555   7.885   7.586
 3754TIP3    H235242   3.416   7.891   7.524
 3755TIP3   OH235243   3.480   8.056   8.042
 3755TIP3    H135244   3.499   7.961   8.024
 3755TIP3    H235245   3.536   8.099   7.975
 3756TIP3   OH235246   1.957   8.031   9.161
 3756TIP3    H135247   2.048   8.021   9.195
 3756TIP3    H235248   1.909   7.957   9.205
 3757TIP3   OH235249   3.758   7.600   9.364
 3757TIP3    H135250   3.795   7.536   9.301
 3757TIP3    H235251   3.765   7.683   9.313
 3758TIP3   OH235252   3.530   7.792   8.006
 3758TIP3    H135253   3.548   7.756   8.096
 3758TIP3    H235254   3.465   7.730   7.970
 3759TIP3   OH235255   2.092   7.889   8.451
 3759TIP3    H135256   2.107   7.800   8.491
 3759TIP3    H235257   2.126   7.945   8.521
 3760TIP3   OH235258   3.708   7.810   9.202
 3760TIP3    H135259   3.616   7.844   9.193
 3760TIP3    H235260   3.714   7.759   9.120
 3761TIP3   OH235261   1.935   7.797   7.975
 3761TIP3    H135262   1.843   7.827   7.968
 3761TIP3    H235263   1.980   7.855   7.910
 3762TIP3   OH235264   1.940   7.700   8.853
 3762TIP3    H135265   1.862   7.652   8.884
 3762TIP3    H235266   1.910   7.725   8.762
 3763TIP3   OH235267   3.613   7.623   8.986
 3763TIP3    H135268   3.530   7.651   8.944
 3763TIP3    H235269   3.630   7.540   8.936
 3764TIP3   OH235270   2.951   7.763   8.413
 3764TIP3    H135271   2.884   7.699   8.443
 3764TIP3    H235272   3.006   7.707   8.357
 3765TIP3   OH235273   3.463   7.573   8.423
 3765TIP3    H135274   3.525   7.629   8.371
 3765TIP3    H235275   3.375   7.610   8.395
 3766TIP3   OH235276   3.630   7.691   8.246
 3766TIP3    H135277   3.701   7.635   8.204
 3766TIP3    H235278   3.680   7.774   8.262
 3767TIP3   OH235279   2.191   7.629   8.196
 3767TIP3    H135280   2.107   7.609   8.151
 3767TIP3    H235281   2.233   7.541   8.194
 3768TIP3   OH235282   2.049   7.611   7.756
 3768TIP3    H135283   2.120   7.674   7.732
 3768TIP3    H235284   2.010   7.658   7.834
 3769TIP3   OH235285   2.637   7.617   8.176
 3769TIP3    H135286   2.725   7.657   8.170
 3769TIP3    H235287   2.628   7.607   8.271
 3770TIP3   OH235288   3.204   7.621   8.341
 3770TIP3    H135289   3.200   7.633   8.245
 3770TIP3    H235290   3.164   7.532   8.353
 3771TIP3   OH235291   3.333   7.623   7.898
 3771TIP3    H135292   3.259   7.687   7.896
 3771TIP3    H235293   3.289   7.541   7.932
 3772TIP3   OH235294   2.747   7.821   7.864
 3772TIP3    H135295   2.778   7.767   7.938
 3772TIP3    H235296   2.757   7.910   7.907
 3773TIP3   OH235297   2.175   7.685   9.148
 3773TIP3    H135298   2.137   7.602   9.183
 3773TIP3    H235299   2.268   7.678   9.181
 3774TIP3   OH235300   2.376   7.621   9.311
 3774TIP3    H135301   2.465   7.588   9.288
 3774TIP3    H235302   2.339   7.539   9.350
 3775TIP3   OH235303   3.215   7.548   9.325
 3775TIP3    H135304   3.226   7.501   9.410
 3775TIP3    H235305   3.306   7.549   9.290
 3776TIP3   OH235306   5.564   7.875   8.645
 3776TIP3    H135307   5.584   7.923   8.729
 3776TIP3    H235308   5.624   7.920   8.585
 3777TIP3   OH235309   4.335   7.963   8.335
 3777TIP3    H135310   4.346   8.045   8.286
 3777TIP3    H235311   4.297   7.904   8.265
 3778TIP3   OH235312   5.109   7.967   8.166
 3778TIP3    H135313   5.172   7.944   8.239
 3778TIP3    H235314   5.171   8.025   8.119
 3779TIP3   OH235315   5.606   7.985   8.879
 3779TIP3    H135316   5.578   8.075   8.852
 3779TIP3    H235317   5.628   7.999   8.973
 3780TIP3   OH235318   4.226   7.841   8.747
 3780TIP3    H135319   4.200   7.897   8.670
 3780TIP3    H235320   4.157   7.871   8.812
 3781TIP3   OH235321   5.278   7.893   8.368
 3781TIP3    H135322   5.271   7.824   8.434
 3781TIP3    H235323   5.341   7.954   8.412
 3782TIP3   OH235324   4.197   8.003   8.556
 3782TIP3    H135325   4.236   8.090   8.578
 3782TIP3    H235326   4.237   7.988   8.467
 3783TIP3   OH235327   5.320   7.777   8.737
 3783TIP3    H135328   5.246   7.839   8.728
 3783TIP3    H235329   5.392   7.819   8.684
 3784TIP3   OH235330   4.620   7.584   8.483
 3784TIP3    H135331   4.597   7.489   8.479
 3784TIP3    H235332   4.532   7.619   8.516
 3785TIP3   OH235333   5.446   7.576   7.778
 3785TIP3    H135334   5.355   7.594   7.809
 3785TIP3    H235335   5.472   7.665   7.746
 3786TIP3   OH235336   4.362   7.678   8.559
 3786TIP3    H135337   4.270   7.662   8.526
 3786TIP3    H235338   4.345   7.759   8.611
 3787TIP3   OH235339   4.820   7.639   8.894
 3787TIP3    H135340   4.861   7.601   8.973
 3787TIP3    H235341   4.723   7.634   8.913
 3788TIP3   OH235342   5.150   8.030   8.990
 3788TIP3    H135343   5.090   8.006   9.064
 3788TIP3    H235344   5.120   8.117   8.962
 3789TIP3   OH235345   4.782   7.907   7.637
 3789TIP3    H135346   4.749   7.898   7.728
 3789TIP3    H235347   4.756   7.820   7.599
 3790TIP3   OH235348   4.505   7.905   7.575
 3790TIP3    H135349   4.438   7.879   7.642
 3790TIP3    H235350   4.447   7.937   7.509
 3791TIP3   OH235351   3.794   7.909   8.251
 3791TIP3    H135352   3.859   7.906   8.324
 3791TIP3    H235353   3.841   7.873   8.174
 3792TIP3   OH235354   3.912   7.985   7.780
 3792TIP3    H135355   3.972   8.046   7.738
 3792TIP3    H235356   3.851   8.043   7.829
 3793TIP3   OH235357   4.615   7.924   8.271
 3793TIP3    H135358   4.522   7.941   8.300
 3793TIP3    H235359   4.666   7.930   8.354
 3794TIP3   OH235360   5.060   7.858   8.600
 3794TIP3    H135361   4.991   7.877   8.668
 3794TIP3    H235362   5.007   7.849   8.520
 3795TIP3   OH235363   4.247   7.831   8.109
 3795TIP3    H135364   4.216   7.738   8.103
 3795TIP3    H235365   4.324   7.826   8.051
 3796TIP3   OH235366   4.613   8.028   8.691
 3796TIP3    H135367   4.539   8.091   8.697
 3796TIP3    H235368   4.667   8.069   8.762
 3797TIP3   OH235369   4.042   7.924   8.938
 3797TIP3    H135370   3.952   7.961   8.932
 3797TIP3    H235371   4.029   7.840   8.983
 3798TIP3   OH235372   4.912   7.896   8.826
 3798TIP3    H135373   4.982   7.911   8.891
 3798TIP3    H235374   4.877   7.810   8.855
 3799TIP3   OH235375   4.986   7.867   7.942
 3799TIP3    H135376   5.014   7.906   7.858
 3799TIP3    H235377   5.049   7.902   8.007
 3800TIP3   OH235378   4.726   8.024   8.020
 3800TIP3    H135379   4.789   8.098   8.025
 3800TIP3    H235380   4.683   8.028   8.106
 3801TIP3   OH235381   4.813   7.740   8.127
 3801TIP3    H135382   4.762   7.811   8.172
 3801TIP3    H235383   4.866   7.795   8.063
 3802TIP3   OH235384   4.366   7.852   7.784
 3802TIP3    H135385   4.358   7.939   7.824
 3802TIP3    H235386   4.458   7.825   7.807
 3803TIP3   OH235387   5.388   7.922   9.023
 3803TIP3    H135388   5.295   7.953   9.016
 3803TIP3    H235389   5.416   7.923   8.930
 3804TIP3   OH235390   4.106   7.640   8.475
 3804TIP3    H135391   4.087   7.644   8.379
 3804TIP3    H235392   4.064   7.555   8.498
 3805TIP3   OH235393   4.378   8.001   9.081
 3805TIP3    H135394   4.437   7.944   9.027
 3805TIP3    H235395   4.411   8.090   9.058
 3806TIP3   OH235396   4.472   7.870   8.851
 3806TIP3    H135397   4.527   7.910   8.780
 3806TIP3    H235398   4.383   7.865   8.809
 3807TIP3   OH235399   4.553   7.615   8.887
 3807TIP3    H135400   4.532   7.710   8.881
 3807TIP3    H235401   4.478   7.578   8.837
 3808TIP3   OH235402   4.708   7.990   9.285
 3808TIP3    H135403   4.673   8.022   9.371
 3808TIP3    H235404   4.624   7.999   9.239
 3809TIP3   OH235405   4.952   7.949   9.148
 3809TIP3    H135406   4.861   7.967   9.177
 3809TIP3    H235407   4.983   7.901   9.227
 3810TIP3   OH235408   5.110   7.820   9.353
 3810TIP3    H135409   5.102   7.722   9.351
 3810TIP3    H235410   5.086   7.846   9.444
 3811TIP3   OH235411   4.094   7.951   9.267
 3811TIP3    H135412   4.112   7.877   9.206
 3811TIP3    H235413   4.082   7.899   9.349
 3812TIP3   OH235414   4.576   7.554   9.157
 3812TIP3    H135415   4.642   7.481   9.157
 3812TIP3    H235416   4.564   7.567   9.061
 3813TIP3   OH235417   4.609   7.706   9.374
 3813TIP3    H135418   4.595   7.660   9.288
 3813TIP3    H235419   4.557   7.789   9.361
 3814TIP3   OH235420   5.363   8.058   8.041
 3814TIP3    H135421   5.385   7.963   8.024
 3814TIP3    H235422   5.422   8.100   7.976
 3815TIP3   OH235423   3.843   8.031   9.160
 3815TIP3    H135424   3.933   8.021   9.196
 3815TIP3    H235425   3.794   7.958   9.206
 3816TIP3   OH235426   5.644   7.600   9.364
 3816TIP3    H135427   5.680   7.536   9.301
 3816TIP3    H235428   5.651   7.683   9.313
 3817TIP3   OH235429   5.416   7.797   8.010
 3817TIP3    H135430   5.435   7.756   8.098
 3817TIP3    H235431   5.354   7.733   7.970
 3818TIP3   OH235432   3.964   7.880   8.464
 3818TIP3    H135433   4.008   7.797   8.493
 3818TIP3    H235434   4.012   7.945   8.516
 3819TIP3   OH235435   5.593   7.811   9.202
 3819TIP3    H135436   5.502   7.844   9.193
 3819TIP3    H235437   5.600   7.759   9.120
 3820TIP3   OH235438   5.594   7.798   7.667
 3820TIP3    H135439   5.639   7.732   7.614
 3820TIP3    H235440   5.661   7.869   7.675
 3821TIP3   OH235441   3.823   7.798   7.970
 3821TIP3    H135442   3.730   7.828   7.969
 3821TIP3    H235443   3.868   7.857   7.908
 3822TIP3   OH235444   3.821   7.670   8.809
 3822TIP3    H135445   3.755   7.655   8.879
 3822TIP3    H235446   3.776   7.738   8.755
 3823TIP3   OH235447   5.498   7.623   8.986
 3823TIP3    H135448   5.416   7.651   8.944
 3823TIP3    H235449   5.516   7.540   8.936
 3824TIP3   OH235450   4.836   7.771   8.426
 3824TIP3    H135451   4.759   7.713   8.443
 3824TIP3    H235452   4.879   7.745   8.343
 3825TIP3   OH235453   5.351   7.573   8.422
 3825TIP3    H135454   5.416   7.627   8.370
 3825TIP3    H235455   5.266   7.613   8.396
 3826TIP3   OH235456   5.517   7.691   8.248
 3826TIP3    H135457   5.587   7.637   8.205
 3826TIP3    H235458   5.566   7.775   8.261
 3827TIP3   OH235459   4.074   7.626   8.204
 3827TIP3    H135460   3.996   7.611   8.147
 3827TIP3    H235461   4.120   7.541   8.192
 3828TIP3   OH235462   3.934   7.610   7.757
 3828TIP3    H135463   4.007   7.665   7.724
 3828TIP3    H235464   3.899   7.662   7.832
 3829TIP3   OH235465   4.525   7.617   8.177
 3829TIP3    H135466   4.611   7.660   8.172
 3829TIP3    H235467   4.509   7.607   8.271
 3830TIP3   OH235468   5.105   7.624   8.330
 3830TIP3    H135469   5.108   7.638   8.234
 3830TIP3    H235470   5.100   7.528   8.345
 3831TIP3   OH235471   5.217   7.628   7.916
 3831TIP3    H135472   5.145   7.685   7.887
 3831TIP3    H235473   5.177   7.539   7.927
 3832TIP3   OH235474   4.635   7.827   7.863
 3832TIP3    H135475   4.657   7.765   7.933
 3832TIP3    H235476   4.643   7.911   7.914
 3833TIP3   OH235477   4.060   7.686   9.148
 3833TIP3    H135478   4.023   7.602   9.183
 3833TIP3    H235479   4.153   7.678   9.181
 3834TIP3   OH235480   4.261   7.621   9.310
 3834TIP3    H135481   4.350   7.588   9.288
 3834TIP3    H235482   4.224   7.540   9.349
 3835TIP3   OH235483   5.101   7.548   9.325
 3835TIP3    H135484   5.112   7.501   9.410
 3835TIP3    H235485   5.193   7.549   9.290
 3836TIP3   OH235486   7.448   7.877   8.645
 3836TIP3    H135487   7.469   7.924   8.729
 3836TIP3    H235488   7.511   7.919   8.585
 3837TIP3   OH235489   6.200   7.971   8.325
 3837TIP3    H135490   6.234   8.048   8.280
 3837TIP3    H235491   6.179   7.905   8.255
 3838TIP3   OH235492   6.997   7.967   8.163
 3838TIP3    H135493   7.056   7.942   8.238
 3838TIP3    H235494   7.060   8.024   8.117
 3839TIP3   OH235495   7.492   7.984   8.879
 3839TIP3    H135496   7.464   8.074   8.853
 3839TIP3    H235497   7.514   7.998   8.974
 3840TIP3   OH235498   6.102   7.837   8.749
 3840TIP3    H135499   6.090   7.896   8.671
 3840TIP3    H235500   6.038   7.875   8.812
 3841TIP3   OH235501   7.167   7.893   8.366
 3841TIP3    H135502   7.152   7.824   8.432
 3841TIP3    H235503   7.227   7.953   8.413
 3842TIP3   OH235504   6.068   8.006   8.554
 3842TIP3    H135505   6.123   8.083   8.581
 3842TIP3    H235506   6.124   7.983   8.475
 3843TIP3   OH235507   7.209   7.779   8.741
 3843TIP3    H135508   7.130   7.834   8.726
 3843TIP3    H235509   7.278   7.819   8.684
 3844TIP3   OH235510   6.504   7.584   8.484
 3844TIP3    H135511   6.483   7.489   8.478
 3844TIP3    H235512   6.418   7.622   8.517
 3845TIP3   OH235513   7.339   7.576   7.784
 3845TIP3    H135514   7.247   7.595   7.809
 3845TIP3    H235515   7.357   7.662   7.741
 3846TIP3   OH235516   6.234   7.656   8.567
 3846TIP3    H135517   6.147   7.663   8.524
 3846TIP3    H235518   6.242   7.750   8.600
 3847TIP3   OH235519   6.707   7.641   8.898
 3847TIP3    H135520   6.746   7.598   8.977
 3847TIP3    H235521   6.609   7.634   8.911
 3848TIP3   OH235522   7.039   8.032   8.992
 3848TIP3    H135523   6.977   8.003   9.064
 3848TIP3    H235524   7.003   8.116   8.965
 3849TIP3   OH235525   6.649   7.904   7.634
 3849TIP3    H135526   6.639   7.895   7.730
 3849TIP3    H235527   6.650   7.815   7.598
 3850TIP3   OH235528   5.679   7.908   8.252
 3850TIP3    H135529   5.744   7.905   8.325
 3850TIP3    H235530   5.727   7.873   8.174
 3851TIP3   OH235531   5.788   7.955   7.775
 3851TIP3    H135532   5.853   8.021   7.743
 3851TIP3    H235533   5.738   8.021   7.826
 3852TIP3   OH235534   6.499   7.928   8.272
 3852TIP3    H135535   6.408   7.937   8.307
 3852TIP3    H235536   6.551   7.925   8.354
 3853TIP3   OH235537   6.948   7.867   8.599
 3853TIP3    H135538   6.875   7.874   8.665
 3853TIP3    H235539   6.896   7.842   8.521
 3854TIP3   OH235540   6.131   7.829   8.106
 3854TIP3    H135541   6.104   7.736   8.104
 3854TIP3    H235542   6.210   7.828   8.052
 3855TIP3   OH235543   6.546   8.090   8.702
 3855TIP3    H135544   6.448   8.081   8.693
 3855TIP3    H235545   6.556   8.077   8.795
 3856TIP3   OH235546   6.932   7.963   7.716
 3856TIP3    H135547   6.854   7.973   7.658
 3856TIP3    H235548   6.972   8.049   7.705
 3857TIP3   OH235549   5.927   7.926   8.943
 3857TIP3    H135550   5.837   7.960   8.932
 3857TIP3    H235551   5.915   7.839   8.983
 3858TIP3   OH235552   6.800   7.900   8.831
 3858TIP3    H135553   6.871   7.908   8.895
 3858TIP3    H235554   6.762   7.813   8.852
 3859TIP3   OH235555   6.870   7.866   7.946
 3859TIP3    H135556   6.901   7.901   7.858
 3859TIP3    H235557   6.935   7.903   8.007
 3860TIP3   OH235558   6.609   8.024   8.021
 3860TIP3    H135559   6.675   8.096   8.023
 3860TIP3    H235560   6.570   8.026   8.110
 3861TIP3   OH235561   6.686   7.741   8.110
 3861TIP3    H135562   6.653   7.806   8.177
 3861TIP3    H235563   6.755   7.796   8.065
 3862TIP3   OH235564   6.255   7.849   7.777
 3862TIP3    H135565   6.243   7.936   7.818
 3862TIP3    H235566   6.345   7.824   7.806
 3863TIP3   OH235567   7.275   7.926   9.023
 3863TIP3    H135568   7.180   7.952   9.016
 3863TIP3    H235569   7.302   7.921   8.930
 3864TIP3   OH235570   5.987   7.642   8.475
 3864TIP3    H135571   5.973   7.645   8.377
 3864TIP3    H235572   5.949   7.555   8.498
 3865TIP3   OH235573   6.266   8.001   9.086
 3865TIP3    H135574   6.319   7.944   9.026
 3865TIP3    H235575   6.295   8.089   9.056
 3866TIP3   OH235576   6.360   7.875   8.860
 3866TIP3    H135577   6.410   7.902   8.781
 3866TIP3    H235578   6.273   7.864   8.813
 3867TIP3   OH235579   6.437   7.615   8.889
 3867TIP3    H135580   6.418   7.711   8.880
 3867TIP3    H235581   6.364   7.579   8.836
 3868TIP3   OH235582   6.594   7.989   9.286
 3868TIP3    H135583   6.559   8.021   9.372
 3868TIP3    H235584   6.511   7.999   9.239
 3869TIP3   OH235585   6.839   7.952   9.146
 3869TIP3    H135586   6.747   7.968   9.176
 3869TIP3    H235587   6.869   7.902   9.225
 3870TIP3   OH235588   6.995   7.820   9.353
 3870TIP3    H135589   6.988   7.722   9.351
 3870TIP3    H235590   6.972   7.846   9.444
 3871TIP3   OH235591   5.980   7.951   9.267
 3871TIP3    H135592   6.000   7.878   9.205
 3871TIP3    H235593   5.967   7.898   9.349
 3872TIP3   OH235594   6.461   7.553   9.158
 3872TIP3    H135595   6.528   7.481   9.157
 3872TIP3    H235596   6.449   7.565   9.062
 3873TIP3   OH235597   6.494   7.706   9.374
 3873TIP3    H135598   6.481   7.660   9.288
 3873TIP3    H235599   6.443   7.789   9.361
 3874TIP3   OH235600   7.247   7.884   7.613
 3874TIP3    H135601   7.337   7.869   7.579
 3874TIP3    H235602   7.197   7.882   7.528
 3875TIP3   OH235603   7.254   8.056   8.045
 3875TIP3    H135604   7.270   7.961   8.022
 3875TIP3    H235605   7.304   8.099   7.972
 3876TIP3   OH235606   5.728   8.031   9.161
 3876TIP3    H135607   5.819   8.021   9.196
 3876TIP3    H235608   5.680   7.958   9.206
 3877TIP3   OH235609   7.529   7.599   9.364
 3877TIP3    H135610   7.566   7.536   9.300
 3877TIP3    H235611   7.537   7.683   9.313
 3878TIP3   OH235612   7.299   7.796   8.008
 3878TIP3    H135613   7.319   7.755   8.095
 3878TIP3    H235614   7.237   7.731   7.968
 3879TIP3   OH235615   5.846   7.880   8.466
 3879TIP3    H135616   5.894   7.798   8.492
 3879TIP3    H235617   5.900   7.944   8.514
 3880TIP3   OH235618   7.479   7.811   9.202
 3880TIP3    H135619   7.387   7.844   9.193
 3880TIP3    H235620   7.486   7.759   9.121
 3881TIP3   OH235621   7.497   7.783   7.677
 3881TIP3    H135622   7.526   7.733   7.602
 3881TIP3    H235623   7.541   7.870   7.670
 3882TIP3   OH235624   5.706   7.805   7.979
 3882TIP3    H135625   5.613   7.824   7.963
 3882TIP3    H235626   5.752   7.853   7.908
 3883TIP3   OH235627   5.706   7.671   8.809
 3883TIP3    H135628   5.640   7.655   8.879
 3883TIP3    H235629   5.661   7.739   8.755
 3884TIP3   OH235630   7.384   7.623   8.986
 3884TIP3    H135631   7.301   7.651   8.944
 3884TIP3    H235632   7.401   7.540   8.936
 3885TIP3   OH235633   6.726   7.762   8.412
 3885TIP3    H135634   6.654   7.703   8.442
 3885TIP3    H235635   6.778   7.705   8.355
 3886TIP3   OH235636   7.233   7.573   8.422
 3886TIP3    H135637   7.297   7.629   8.369
 3886TIP3    H235638   7.146   7.610   8.396
 3887TIP3   OH235639   7.401   7.690   8.248
 3887TIP3    H135640   7.472   7.636   8.205
 3887TIP3    H235641   7.451   7.775   8.259
 3888TIP3   OH235642   5.959   7.627   8.203
 3888TIP3    H135643   5.880   7.610   8.148
 3888TIP3    H235644   6.005   7.542   8.193
 3889TIP3   OH235645   5.828   7.603   7.769
 3889TIP3    H135646   5.886   7.664   7.722
 3889TIP3    H235647   5.776   7.660   7.828
 3890TIP3   OH235648   6.412   7.613   8.175
 3890TIP3    H135649   6.497   7.661   8.173
 3890TIP3    H235650   6.398   7.609   8.270
 3891TIP3   OH235651   6.977   7.621   8.339
 3891TIP3    H135652   6.972   7.632   8.243
 3891TIP3    H235653   6.937   7.532   8.352
 3892TIP3   OH235654   7.103   7.626   7.907
 3892TIP3    H135655   7.031   7.688   7.892
 3892TIP3    H235656   7.059   7.541   7.929
 3893TIP3   OH235657   6.513   7.823   7.867
 3893TIP3    H135658   6.547   7.767   7.938
 3893TIP3    H235659   6.528   7.911   7.909
 3894TIP3   OH235660   5.946   7.685   9.148
 3894TIP3    H135661   5.908   7.602   9.183
 3894TIP3    H235662   6.038   7.678   9.181
 3895TIP3   OH235663   6.146   7.621   9.310
 3895TIP3    H135664   6.235   7.588   9.288
 3895TIP3    H235665   6.109   7.540   9.349
 3896TIP3   OH235666   6.987   7.548   9.325
 3896TIP3    H135667   6.998   7.501   9.410
 3896TIP3    H235668   7.078   7.549   9.290
 3897TIP3   OH235669   7.969   7.840   8.737
 3897TIP3    H135670   7.971   7.908   8.666
 3897TIP3    H235671   7.921   7.883   8.809
 3898TIP3   OH235672   7.980   8.014   8.551
 3898TIP3    H135673   8.008   8.105   8.568
 3898TIP3    H235674   8.010   7.998   8.460
 3899TIP3   OH235675   7.565   7.908   8.254
 3899TIP3    H135676   7.631   7.905   8.326
 3899TIP3    H235677   7.613   7.874   8.175
 3900TIP3   OH235678   7.673   7.955   7.773
 3900TIP3    H135679   7.740   8.021   7.745
 3900TIP3    H235680   7.624   8.018   7.828
 3901TIP3   OH235681   7.965   7.822   8.091
 3901TIP3    H135682   7.964   7.727   8.113
 3901TIP3    H235683   8.060   7.835   8.080
 3902TIP3   OH235684   7.812   7.927   8.943
 3902TIP3    H135685   7.722   7.961   8.928
 3902TIP3    H235686   7.799   7.840   8.983
 3903TIP3   OH235687   7.875   7.640   8.476
 3903TIP3    H135688   7.863   7.645   8.379
 3903TIP3    H235689   7.835   7.554   8.499
 3904TIP3   OH235690   7.861   7.947   9.269
 3904TIP3    H135691   7.884   7.874   9.207
 3904TIP3    H235692   7.850   7.895   9.351
 3905TIP3   OH235693   7.614   8.031   9.159
 3905TIP3    H135694   7.704   8.021   9.197
 3905TIP3    H235695   7.564   7.959   9.205
 3906TIP3   OH235696   7.734   7.880   8.467
 3906TIP3    H135697   7.781   7.796   8.490
 3906TIP3    H235698   7.788   7.945   8.514
 3907TIP3   OH235699   7.595   7.805   7.981
 3907TIP3    H135700   7.501   7.822   7.966
 3907TIP3    H235701   7.635   7.853   7.907
 3908TIP3   OH235702   7.590   7.670   8.809
 3908TIP3    H135703   7.523   7.656   8.878
 3908TIP3    H235704   7.547   7.738   8.754
 3909TIP3   OH235705   7.836   7.621   8.205
 3909TIP3    H135706   7.759   7.605   8.148
 3909TIP3    H235707   7.890   7.540   8.195
 3910TIP3   OH235708   7.722   7.606   7.784
 3910TIP3    H135709   7.762   7.674   7.731
 3910TIP3    H235710   7.658   7.659   7.835
 3911TIP3   OH235711   7.838   7.688   9.147
 3911TIP3    H135712   7.800   7.605   9.181
 3911TIP3    H235713   7.930   7.677   9.179
 3912TIP3   OH235714   8.032   7.620   9.310
 3912TIP3    H135715   8.120   7.588   9.283
 3912TIP3    H235716   7.996   7.539   9.352
 3913TIP3   OH235717   1.212   1.001  10.068
 3913TIP3    H135718   1.209   1.099  10.068
 3913TIP3    H235719   1.138   0.977  10.010
 3914TIP3   OH235720   1.097   0.925  10.420
 3914TIP3    H135721   1.095   0.860  10.492
 3914TIP3    H235722   1.061   0.874  10.345
 3915TIP3   OH235723   0.345   0.888  10.565
 3915TIP3    H135724   0.339   0.827  10.642
 3915TIP3    H235725   0.409   0.952  10.597
 3916TIP3   OH235726   1.464   1.221  10.248
 3916TIP3    H135727   1.423   1.150  10.298
 3916TIP3    H235728   1.467   1.291  10.316
 3917TIP3   OH235729   0.422   1.338  10.420
 3917TIP3    H135730   0.393   1.248  10.395
 3917TIP3    H235731   0.517   1.321  10.431
 3918TIP3   OH235732   0.095   0.699   9.961
 3918TIP3    H135733   0.045   0.783   9.970
 3918TIP3    H235734   0.029   0.639   9.926
 3919TIP3   OH235735   0.161   0.912  10.187
 3919TIP3    H135736   0.186   0.829  10.234
 3919TIP3    H235737   0.231   0.922  10.121
 3920TIP3   OH235738   1.177   1.736  10.272
 3920TIP3    H135739   1.242   1.668  10.242
 3920TIP3    H235740   1.158   1.701  10.359
 3921TIP3   OH235741   0.933   1.167  10.470
 3921TIP3    H135742   0.966   1.105  10.404
 3921TIP3    H235743   1.015   1.182  10.520
 3922TIP3   OH235744   1.798   0.327  10.544
 3922TIP3    H135745   1.811   0.392  10.615
 3922TIP3    H235746   1.849   0.372  10.475
 3923TIP3   OH235747   1.247   0.610  10.502
 3923TIP3    H135748   1.268   0.515  10.501
 3923TIP3    H235749   1.239   0.626  10.406
 3924TIP3   OH235750   0.616   0.450  10.214
 3924TIP3    H135751   0.574   0.526  10.171
 3924TIP3    H235752   0.551   0.381  10.182
 3925TIP3   OH235753   1.335   0.429  10.058
 3925TIP3    H135754   1.399   0.397  10.125
 3925TIP3    H235755   1.392   0.487  10.005
 3926TIP3   OH235756   0.238   0.666  10.292
 3926TIP3    H135757   0.296   0.602  10.338
 3926TIP3    H235758   0.235   0.628  10.203
 3927TIP3   OH235759   0.738   0.817  10.227
 3927TIP3    H135760   0.807   0.760  10.265
 3927TIP3    H235761   0.688   0.751  10.175
 3928TIP3   OH235762   1.856   0.492  10.767
 3928TIP3    H135763   1.774   0.547  10.755
 3928TIP3    H235764   1.837   0.461  10.857
 3929TIP3   OH235765   0.457   0.313  10.621
 3929TIP3    H135766   0.424   0.371  10.549
 3929TIP3    H235767   0.388   0.332  10.688
 3930TIP3   OH235768   1.183   1.258   9.979
 3930TIP3    H135769   1.155   1.230   9.890
 3930TIP3    H235770   1.151   1.351   9.986
 3931TIP3   OH235771   0.706   1.076  10.651
 3931TIP3    H135772   0.634   1.141  10.670
 3931TIP3    H235773   0.775   1.136  10.618
 3932TIP3   OH235774   1.515   0.369  10.259
 3932TIP3    H135775   1.493   0.289  10.310
 3932TIP3    H235776   1.586   0.406  10.313
 3933TIP3   OH235777   0.411   0.507  10.428
 3933TIP3    H135778   0.480   0.569  10.457
 3933TIP3    H235779   0.455   0.455  10.355
 3934TIP3   OH235780   0.549   1.277  10.729
 3934TIP3    H135781   0.542   1.370  10.701
 3934TIP3    H235782   0.462   1.268  10.775
 3935TIP3   OH235783   0.155   1.238   9.806
 3935TIP3    H135784   0.127   1.272   9.721
 3935TIP3    H235785   0.164   1.318   9.860
 3936TIP3   OH235786   1.517   1.405  10.486
 3936TIP3    H135787   1.420   1.416  10.497
 3936TIP3    H235788   1.544   1.496  10.465
 3937TIP3   OH235789   1.552   0.242  10.640
 3937TIP3    H135790   1.474   0.294  10.614
 3937TIP3    H235791   1.618   0.267  10.572
 3938TIP3   OH235792   0.839   0.055  10.336
 3938TIP3    H135793   0.846  -0.035  10.370
 3938TIP3    H235794   0.766   0.083  10.394
 3939TIP3   OH235795   1.343   1.583  10.144
 3939TIP3    H135796   1.387   1.510  10.095
 3939TIP3    H235797   1.391   1.661  10.108
 3940TIP3   OH235798   1.463   1.377   9.995
 3940TIP3    H135799   1.436   1.305   9.936
 3940TIP3    H235800   1.468   1.328  10.079
 3941TIP3   OH235801   1.629   1.232  10.843
 3941TIP3    H135802   1.642   1.174  10.766
 3941TIP3    H235803   1.651   1.320  10.806
 3942TIP3   OH235804   1.076   0.922   9.820
 3942TIP3    H135805   1.007   0.981   9.786
 3942TIP3    H235806   1.148   0.934   9.755
 3943TIP3   OH235807   1.085   0.782   9.522
 3943TIP3    H135808   1.155   0.780   9.589
 3943TIP3    H235809   1.115   0.709   9.466
 3944TIP3   OH235810   1.816   0.865  10.648
 3944TIP3    H135811   1.751   0.938  10.654
 3944TIP3    H235812   1.865   0.891  10.567
 3945TIP3   OH235813   1.422   0.943   9.913
 3945TIP3    H135814   1.348   0.969   9.973
 3945TIP3    H235815   1.470   0.877   9.967
 3946TIP3   OH235816   1.412   0.759  10.824
 3946TIP3    H135817   1.414   0.838  10.879
 3946TIP3    H235818   1.349   0.791  10.755
 3947TIP3   OH235819   0.585   1.014  10.105
 3947TIP3    H135820   0.550   0.973  10.023
 3947TIP3    H235821   0.644   0.942  10.139
 3948TIP3   OH235822   0.714   1.348  10.373
 3948TIP3    H135823   0.714   1.297  10.291
 3948TIP3    H235824   0.793   1.313  10.418
 3949TIP3   OH235825   0.617   0.885  10.470
 3949TIP3    H135826   0.671   0.897  10.390
 3949TIP3    H235827   0.653   0.950  10.533
 3950TIP3   OH235828   1.258   1.443  10.544
 3950TIP3    H135829   1.228   1.509  10.606
 3950TIP3    H235830   1.230   1.358  10.586
 3951TIP3   OH235831   0.723   1.351  10.931
 3951TIP3    H135832   0.675   1.405  10.995
 3951TIP3    H235833   0.648   1.317  10.876
 3952TIP3   OH235834   1.310   0.866   9.679
 3952TIP3    H135835   1.365   0.883   9.760
 3952TIP3    H235836   1.356   0.915   9.608
 3953TIP3   OH235837   0.403   0.941  10.866
 3953TIP3    H135838   0.409   1.012  10.930
 3953TIP3    H235839   0.312   0.952  10.833
 3954TIP3   OH235840   1.086   1.543  10.021
 3954TIP3    H135841   1.121   1.564  10.109
 3954TIP3    H235842   1.020   1.612  10.008
 3955TIP3   OH235843   1.685   0.046   9.681
 3955TIP3    H135844   1.587   0.051   9.691
 3955TIP3    H235845   1.705   0.122   9.622
 3956TIP3   OH235846   0.483   0.914   9.866
 3956TIP3    H135847   0.450   0.992   9.817
 3956TIP3    H235848   0.417   0.847   9.846
 3957TIP3   OH235849   1.794   1.473   9.507
 3957TIP3    H135850   1.810   1.567   9.523
 3957TIP3    H235851   1.886   1.441   9.506
 3958TIP3   OH235852   0.139   1.107  10.728
 3958TIP3    H135853   0.063   1.146  10.682
 3958TIP3    H235854   0.094   1.041  10.782
 3959TIP3   OH235855   0.090   1.454  10.417
 3959TIP3    H135856   0.177   1.419  10.439
 3959TIP3    H235857   0.070   1.510  10.494
 3960TIP3   OH235858   0.972   1.428  10.866
 3960TIP3    H135859   0.982   1.519  10.900
 3960TIP3    H235860   0.886   1.401  10.906
 3961TIP3   OH235861   1.044   1.829   9.857
 3961TIP3    H135862   0.996   1.834   9.773
 3961TIP3    H235863   1.028   1.921   9.891
 3962TIP3   OH235864   0.398   1.713  10.049
 3962TIP3    H135865   0.407   1.676  10.139
 3962TIP3    H235866   0.311   1.675  10.026
 3963TIP3   OH235867   1.326   1.742   9.570
 3963TIP3    H135868   1.383   1.677   9.520
 3963TIP3    H235869   1.361   1.727   9.659
 3964TIP3   OH235870   1.306   1.741   9.849
 3964TIP3    H135871   1.217   1.761   9.885
 3964TIP3    H235872   1.336   1.671   9.910
 3965TIP3   OH235873   0.316   1.291  10.850
 3965TIP3    H135874   0.336   1.250  10.934
 3965TIP3    H235875   0.233   1.248  10.821
 3966TIP3   OH235876   0.587   0.138  10.442
 3966TIP3    H135877   0.501   0.139  10.396
 3966TIP3    H235878   0.571   0.219  10.495
 3967TIP3   OH235879   1.050   0.115  10.792
 3967TIP3    H135880   1.085   0.059  10.861
 3967TIP3    H235881   0.954   0.093  10.800
 3968TIP3   OH235882   1.357   0.479  10.867
 3968TIP3    H135883   1.331   0.471  10.960
 3968TIP3    H235884   1.366   0.575  10.850
 3969TIP3   OH235885   1.454   0.969   9.464
 3969TIP3    H135886   1.451   0.951   9.368
 3969TIP3    H235887   1.540   1.014   9.468
 3970TIP3   OH235888   1.014   0.362   9.514
 3970TIP3    H135889   0.982   0.353   9.605
 3970TIP3    H235890   0.981   0.276   9.482
 3971TIP3   OH235891   0.596   0.636  10.574
 3971TIP3    H135892   0.520   0.632  10.635
 3971TIP3    H235893   0.586   0.724  10.532
 3972TIP3   OH235894   0.589   0.654  10.053
 3972TIP3    H135895   0.497   0.620  10.045
 3972TIP3    H235896   0.627   0.613   9.973
 3973TIP3   OH235897   1.144   0.696   9.935
 3973TIP3    H135898   1.105   0.778   9.897
 3973TIP3    H235899   1.213   0.677   9.869
 3974TIP3   OH235900   1.248   0.645  10.220
 3974TIP3    H135901   1.218   0.701  10.146
 3974TIP3    H235902   1.256   0.559  10.174
 3975TIP3   OH235903   0.353   0.659  10.742
 3975TIP3    H135904   0.363   0.698  10.831
 3975TIP3    H235905   0.313   0.574  10.762
 3976TIP3   OH235906   0.694   0.400   9.423
 3976TIP3    H135907   0.650   0.357   9.500
 3976TIP3    H235908   0.621   0.442   9.376
 3977TIP3   OH235909   0.054   0.403  10.148
 3977TIP3    H135910   0.104   0.367  10.224
 3977TIP3    H235911   0.073   0.338  10.082
 3978TIP3   OH235912   0.152   0.452   9.681
 3978TIP3    H135913   0.201   0.504   9.614
 3978TIP3    H235914   0.078   0.509   9.700
 3979TIP3   OH235915   1.171   0.800  10.682
 3979TIP3    H135916   1.206   0.734  10.618
 3979TIP3    H235917   1.117   0.746  10.742
 3980TIP3   OH235918   0.860   0.398  10.157
 3980TIP3    H135919   0.763   0.402  10.179
 3980TIP3    H235920   0.897   0.381  10.244
 3981TIP3   OH235921   0.334   0.559  10.038
 3981TIP3    H135922   0.242   0.567  10.008
 3981TIP3    H235923   0.355   0.467  10.011
 3982TIP3   OH235924   0.693   0.562   9.808
 3982TIP3    H135925   0.789   0.571   9.823
 3982TIP3    H235926   0.669   0.629   9.742
 3983TIP3   OH235927   1.290   0.329  10.481
 3983TIP3    H135928   1.219   0.328  10.549
 3983TIP3    H235929   1.242   0.293  10.404
 3984TIP3   OH235930   0.563   0.678   9.566
 3984TIP3    H135931   0.509   0.638   9.496
 3984TIP3    H235932   0.645   0.698   9.519
 3985TIP3   OH235933   0.976   0.677  10.348
 3985TIP3    H135934   1.034   0.622  10.293
 3985TIP3    H235935   0.961   0.620  10.425
 3986TIP3   OH235936   0.475   0.286   9.935
 3986TIP3    H135937   0.448   0.211   9.993
 3986TIP3    H235938   0.570   0.274   9.932
 3987TIP3   OH235939   0.837   0.506  10.589
 3987TIP3    H135940   0.756   0.561  10.593
 3987TIP3    H235941   0.895   0.545  10.658
 3988TIP3   OH235942   0.898   1.127   9.761
 3988TIP3    H135943   0.817   1.083   9.726
 3988TIP3    H235944   0.873   1.143   9.854
 3989TIP3   OH235945   1.619   1.045  10.640
 3989TIP3    H135946   1.673   1.099  10.578
 3989TIP3    H235947   1.532   1.053  10.595
 3990TIP3   OH235948   1.278   0.410   9.578
 3990TIP3    H135949   1.184   0.429   9.561
 3990TIP3    H235950   1.315   0.495   9.611
 3991TIP3   OH235951   1.047   1.158  10.874
 3991TIP3    H135952   1.014   1.115  10.954
 3991TIP3    H235953   1.017   1.250  10.885
 3992TIP3   OH235954   1.354   0.603   9.738
 3992TIP3    H135955   1.441   0.591   9.780
 3992TIP3    H235956   1.365   0.685   9.687
 3993TIP3   OH235957   0.408   1.070  10.339
 3993TIP3    H135958   0.474   1.063  10.268
 3993TIP3    H235959   0.416   0.983  10.383
 3994TIP3   OH235960   1.105   1.279   9.662
 3994TIP3    H135961   1.069   1.359   9.702
 3994TIP3    H235962   1.036   1.213   9.684
 3995TIP3   OH235963   0.120   0.891  10.861
 3995TIP3    H135964   0.122   0.863  10.953
 3995TIP3    H235965   0.040   0.850  10.824
 3996TIP3   OH235966   1.273   1.400  10.879
 3996TIP3    H135967   1.182   1.417  10.852
 3996TIP3    H235968   1.278   1.426  10.972
 3997TIP3   OH235969   1.843   0.620   9.717
 3997TIP3    H135970   1.788   0.589   9.642
 3997TIP3    H235971   1.850   0.714   9.692
 3998TIP3   OH235972   1.663   1.501   9.753
 3998TIP3    H135973   1.639   1.416   9.792
 3998TIP3    H235974   1.707   1.478   9.670
 3999TIP3   OH235975   1.395   0.981  10.468
 3999TIP3    H135976   1.301   0.961  10.455
 3999TIP3    H235977   1.437   0.907  10.421
 4000TIP3   OH235978   0.647   1.415  10.078
 4000TIP3    H135979   0.696   1.496  10.057
 4000TIP3    H235980   0.559   1.438  10.045
 4001TIP3   OH235981   0.220   0.899   9.538
 4001TIP3    H135982   0.282   0.964   9.575
 4001TIP3    H235983   0.135   0.933   9.566
 4002TIP3   OH235984   0.787   1.183  10.028
 4002TIP3    H135985   0.754   1.274  10.039
 4002TIP3    H235986   0.717   1.132  10.073
 4003TIP3   OH235987   0.830   1.606  10.673
 4003TIP3    H135988   0.883   1.681  10.642
 4003TIP3    H235989   0.892   1.560  10.732
 4004TIP3   OH235990   0.657   1.681   9.977
 4004TIP3    H135991   0.561   1.692   9.995
 4004TIP3    H235992   0.690   1.764  10.016
 4005TIP3   OH235993   1.185   1.200  10.628
 4005TIP3    H135994   1.153   1.182  10.718
 4005TIP3    H235995   1.249   1.128  10.615
 4006TIP3   OH235996   1.419   1.311   9.542
 4006TIP3    H135997   1.450   1.260   9.620
 4006TIP3    H235998   1.325   1.286   9.547
 4007TIP3   OH235999   1.443   1.684  10.860
 4007TIP3    H136000   1.396   1.616  10.810
 4007TIP3    H236001   1.484   1.739  10.789
 4008TIP3   OH236002   1.865   1.743   9.567
 4008TIP3    H136003   1.934   1.810   9.545
 4008TIP3    H236004   1.793   1.804   9.595
 4009TIP3   OH236005   0.272   0.388  10.818
 4009TIP3    H136006   0.180   0.419  10.816
 4009TIP3    H236007   0.264   0.304  10.865
 4010TIP3   OH236008   1.496   1.171   9.765
 4010TIP3    H136009   1.472   1.092   9.818
 4010TIP3    H236010   1.592   1.175   9.782
 4011TIP3   OH236011   0.235   1.560  10.658
 4011TIP3    H136012   0.266   1.468  10.663
 4011TIP3    H236013   0.258   1.591  10.747
 4012TIP3   OH236014   0.840   1.414   9.397
 4012TIP3    H136015   0.841   1.342   9.332
 4012TIP3    H236016   0.785   1.371   9.467
 4013TIP3   OH236017   0.713   1.368   9.636
 4013TIP3    H136018   0.732   1.314   9.714
 4013TIP3    H236019   0.716   1.460   9.671
 4014TIP3   OH236020   0.364   1.091   9.685
 4014TIP3    H136021   0.291   1.130   9.739
 4014TIP3    H236022   0.411   1.171   9.654
 4015TIP3   OH236023   1.141   0.359  10.711
 4015TIP3    H136024   1.214   0.363  10.774
 4015TIP3    H236025   1.105   0.270  10.727
 4016TIP3   OH236026   1.228   0.313   9.829
 4016TIP3    H136027   1.242   0.362   9.745
 4016TIP3    H236028   1.277   0.369   9.890
 4017TIP3   OH236029   0.993   1.547   9.712
 4017TIP3    H136030   0.901   1.581   9.712
 4017TIP3    H236031   1.022   1.569   9.622
 4018TIP3   OH236032   0.944   0.492   9.907
 4018TIP3    H136033   1.021   0.552   9.913
 4018TIP3    H236034   0.915   0.480  10.000
 4019TIP3   OH236035   1.012   0.605  10.819
 4019TIP3    H136036   1.004   0.650  10.903
 4019TIP3    H236037   1.057   0.521  10.836
 4020TIP3   OH236038   1.031   0.200  10.001
 4020TIP3    H136039   0.995   0.268  10.060
 4020TIP3    H236040   1.096   0.255   9.952
 4021TIP3   OH236041   0.738   1.637   9.709
 4021TIP3    H136042   0.737   1.718   9.651
 4021TIP3    H236043   0.700   1.672   9.793
 4022TIP3   OH236044   0.595   0.309   9.659
 4022TIP3    H136045   0.585   0.394   9.707
 4022TIP3    H236046   0.684   0.285   9.691
 4023TIP3   OH236047   1.621   0.418  10.856
 4023TIP3    H136048   1.524   0.415  10.868
 4023TIP3    H236049   1.636   0.366  10.775
 4024TIP3   OH236050   1.478   0.761  10.310
 4024TIP3    H136051   1.396   0.716  10.284
 4024TIP3    H236052   1.527   0.693  10.362
 4025TIP3   OH236053   0.418   1.353   9.569
 4025TIP3    H136054   0.485   1.415   9.602
 4025TIP3    H236055   0.471   1.305   9.502
 4026TIP3   OH236056   0.252   0.621   9.484
 4026TIP3    H136057   0.252   0.717   9.506
 4026TIP3    H236058   0.163   0.604   9.454
 4027TIP3   OH236059   1.584   1.687  10.477
 4027TIP3    H136060   1.575   1.756  10.408
 4027TIP3    H236061   1.681   1.693  10.494
 4028TIP3   OH236062   0.265   0.093  10.372
 4028TIP3    H136063   0.299   0.115  10.281
 4028TIP3    H236064   0.297   0.004  10.387
 4029TIP3   OH236065   0.231   1.488   9.972
 4029TIP3    H136066   0.147   1.536   9.969
 4029TIP3    H236067   0.279   1.538   9.905
 4030TIP3   OH236068   1.038   1.597   9.415
 4030TIP3    H136069   0.961   1.534   9.419
 4030TIP3    H236070   1.103   1.539   9.372
 4031TIP3   OH236071   1.488   1.575   9.424
 4031TIP3    H136072   1.518   1.495   9.471
 4031TIP3    H236073   1.562   1.595   9.365
 4032TIP3   OH236074   0.575   1.169   9.402
 4032TIP3    H136075   0.588   1.093   9.460
 4032TIP3    H236076   0.651   1.157   9.341
 4033TIP3   OH236077   1.120   1.281   9.382
 4033TIP3    H136078   1.091   1.285   9.475
 4033TIP3    H236079   1.101   1.186   9.365
 4034TIP3   OH236080   1.380   1.118  10.865
 4034TIP3    H136081   1.459   1.175  10.870
 4034TIP3    H236082   1.312   1.185  10.884
 4035TIP3   OH236083   0.695   0.971   9.647
 4035TIP3    H136084   0.644   0.916   9.709
 4035TIP3    H236085   0.727   0.904   9.582
 4036TIP3   OH236086   0.623   0.766  10.864
 4036TIP3    H136087   0.558   0.831  10.893
 4036TIP3    H236088   0.661   0.801  10.782
 4037TIP3   OH236089   0.803   0.793   9.466
 4037TIP3    H136090   0.788   0.784   9.370
 4037TIP3    H236091   0.901   0.797   9.473
 4038TIP3   OH236092   1.734   1.025   9.408
 4038TIP3    H136093   1.717   0.988   9.320
 4038TIP3    H236094   1.745   1.121   9.389
 4039TIP3   OH236095   0.632   0.533  10.953
 4039TIP3    H136096   0.682   0.461  10.913
 4039TIP3    H236097   0.661   0.609  10.899
 4040TIP3   OH236098   0.701   0.322  10.733
 4040TIP3    H136099   0.753   0.374  10.667
 4040TIP3    H236100   0.611   0.317  10.692
 4041TIP3   OH236101   0.858   0.870  10.757
 4041TIP3    H136102   0.935   0.859  10.701
 4041TIP3    H236103   0.821   0.956  10.729
 4042TIP3   OH236104   0.788   0.084  10.784
 4042TIP3    H136105   0.767   0.180  10.776
 4042TIP3    H236106   0.711   0.043  10.741
 4043TIP3   OH236107   0.784   1.865   9.577
 4043TIP3    H136108   0.881   1.872   9.576
 4043TIP3    H236109   0.769   1.922   9.500
 4044TIP3   OH236110   0.145   1.318   9.522
 4044TIP3    H136111   0.242   1.330   9.539
 4044TIP3    H236112   0.150   1.253   9.450
 4045TIP3   OH236113   0.034   1.869  10.006
 4045TIP3    H136114  -0.046   1.821   9.977
 4045TIP3    H236115   0.054   1.808  10.080
 4046TIP3   OH236116   0.124   1.675  10.198
 4046TIP3    H136117   0.076   1.591  10.214
 4046TIP3    H236118   0.134   1.711  10.288
 4047TIP3   OH236119   1.857   1.750  10.500
 4047TIP3    H136120   1.861   1.766  10.596
 4047TIP3    H236121   1.925   1.809  10.468
 4048TIP3   OH236122   1.815   1.712  10.790
 4048TIP3    H136123   1.767   1.636  10.753
 4048TIP3    H236124   1.864   1.670  10.861
 4049TIP3   OH236125   1.789   1.117   9.802
 4049TIP3    H136126   1.876   1.155   9.821
 4049TIP3    H236127   1.787   1.045   9.869
 4050TIP3   OH236128   1.825   0.925   9.992
 4050TIP3    H136129   1.750   0.875  10.031
 4050TIP3    H236130   1.885   0.936  10.068
 4051TIP3   OH236131   1.800   1.193  10.489
 4051TIP3    H136132   1.881   1.154  10.452
 4051TIP3    H236133   1.815   1.288  10.471
 4052TIP3   OH236134   1.654   1.485  10.718
 4052TIP3    H136135   1.586   1.516  10.779
 4052TIP3    H236136   1.601   1.443  10.646
 4053TIP3   OH236137   1.855   0.906   9.630
 4053TIP3    H136138   1.798   0.939   9.558
 4053TIP3    H236139   1.844   0.978   9.696
 4054TIP3   OH236140   1.693   0.630   9.480
 4054TIP3    H136141   1.701   0.695   9.410
 4054TIP3    H236142   1.674   0.547   9.433
 4055TIP3   OH236143   1.607   0.771  10.050
 4055TIP3    H136144   1.593   0.676  10.044
 4055TIP3    H236145   1.576   0.791  10.139
 4056TIP3   OH236146   0.108   0.977  10.454
 4056TIP3    H136147   0.127   0.971  10.358
 4056TIP3    H236148   0.196   0.963  10.493
 4057TIP3   OH236149   1.616   0.380   9.400
 4057TIP3    H136150   1.678   0.333   9.459
 4057TIP3    H236151   1.532   0.332   9.410
 4058TIP3   OH236152   1.571   0.533   9.889
 4058TIP3    H136153   1.602   0.441   9.905
 4058TIP3    H236154   1.654   0.572   9.859
 4059TIP3   OH236155   1.638   0.585  10.436
 4059TIP3    H136156   1.735   0.606  10.437
 4059TIP3    H236157   1.620   0.594  10.531
 4060TIP3   OH236158   1.644   0.660  10.714
 4060TIP3    H136159   1.556   0.686  10.748
 4060TIP3    H236160   1.688   0.746  10.694
 4061TIP3   OH236161   1.636   0.262   9.897
 4061TIP3    H136162   1.661   0.218   9.982
 4061TIP3    H236163   1.580   0.194   9.854
 4062TIP3   OH236164   0.167   0.348  10.396
 4062TIP3    H136165   0.221   0.267  10.376
 4062TIP3    H236166   0.241   0.410  10.393
 4063TIP3   OH236167   0.040   0.651  10.471
 4063TIP3    H136168   0.084   0.622  10.389
 4063TIP3    H236169   0.072   0.740  10.482
 4064TIP3   OH236170   1.826   0.260   9.561
 4064TIP3    H136171   1.861   0.190   9.501
 4064TIP3    H236172   1.894   0.328   9.558
 4065TIP3   OH236173   0.068   0.242   9.818
 4065TIP3    H136174  -0.023   0.272   9.835
 4065TIP3    H236175   0.112   0.321   9.781
 4066TIP3   OH236176   1.527   1.759  10.059
 4066TIP3    H136177   1.599   1.730   9.999
 4066TIP3    H236178   1.577   1.810  10.125
 4067TIP3   OH236179   0.056   0.119  10.695
 4067TIP3    H136180  -0.014   0.105  10.759
 4067TIP3    H236181   0.016   0.195  10.646
 4068TIP3   OH236182   0.558   1.549  10.737
 4068TIP3    H136183   0.523   1.634  10.708
 4068TIP3    H236184   0.652   1.557  10.712
 4069TIP3   OH236185   1.220   1.832  -0.032
 4069TIP3    H136186   1.291   1.768  -0.054
 4069TIP3    H236187   1.261   1.861   0.052
 4070TIP3   OH236188   1.717   0.109  10.861
 4070TIP3    H136189   1.625   0.123  10.837
 4070TIP3    H236190   1.716   0.011  10.855
 4071TIP3   OH236191   0.307   1.879  10.741
 4071TIP3    H136192   0.229   1.920  10.700
 4071TIP3    H236193   0.272   1.854  10.828
 4072TIP3   OH236194   0.560   1.843  10.644
 4072TIP3    H136195   0.470   1.845  10.687
 4072TIP3    H236196   0.539   1.887  10.561
 4073TIP3   OH236197   1.017   1.821  10.568
 4073TIP3    H136198   0.982   1.876  10.496
 4073TIP3    H236199   1.040   1.886  10.639
 4074TIP3   OH236200   1.253   1.698  10.656
 4074TIP3    H136201   1.166   1.731  10.628
 4074TIP3    H236202   1.299   1.784  10.657
 4075TIP3   OH236203   1.518   1.863  10.686
 4075TIP3    H136204   1.505   1.958  10.663
 4075TIP3    H236205   1.533   1.824  10.598
 4076TIP3   OH236206   0.256   1.743  10.431
 4076TIP3    H136207   0.242   1.698  10.517
 4076TIP3    H236208   0.335   1.700  10.393
 4077TIP3   OH236209   0.459   1.608  10.298
 4077TIP3    H136210   0.443   1.515  10.322
 4077TIP3    H236211   0.544   1.624  10.343
 4078TIP3   OH236212   0.720   1.660  10.386
 4078TIP3    H136213   0.734   1.567  10.359
 4078TIP3    H236214   0.726   1.652  10.482
 4079TIP3   OH236215   1.061   0.230  10.296
 4079TIP3    H136216   1.000   0.161  10.327
 4079TIP3    H236217   1.122   0.176  10.245
 4080TIP3   OH236218   1.580   0.070  10.328
 4080TIP3    H136219   1.641   0.092  10.254
 4080TIP3    H236220   1.493   0.061  10.283
 4081TIP3   OH236221   1.748   0.160  10.132
 4081TIP3    H136222   1.811   0.097  10.093
 4081TIP3    H236223   1.799   0.243  10.144
 4082TIP3   OH236224   0.300   0.070  10.068
 4082TIP3    H136225   0.217   0.054  10.022
 4082TIP3    H236226   0.345  -0.014  10.075
 4083TIP3   OH236227   0.208   0.102   9.659
 4083TIP3    H136228   0.231   0.162   9.587
 4083TIP3    H236229   0.133   0.145   9.706
 4084TIP3   OH236230   0.747   0.088  10.060
 4084TIP3    H136231   0.838   0.119  10.055
 4084TIP3    H236232   0.748   0.060  10.152
 4085TIP3   OH236233   1.316   0.087  10.226
 4085TIP3    H136234   1.317   0.087  10.130
 4085TIP3    H236235   1.286  -0.004  10.242
 4086TIP3   OH236236   1.430   0.096   9.760
 4086TIP3    H136237   1.358   0.157   9.779
 4086TIP3    H236238   1.407   0.017   9.811
 4087TIP3   OH236239   0.169   1.663   9.761
 4087TIP3    H136240   0.110   1.659   9.685
 4087TIP3    H236241   0.169   1.758   9.776
 4088TIP3   OH236242   0.364   0.262   9.503
 4088TIP3    H136243   0.415   0.196   9.453
 4088TIP3    H236244   0.430   0.283   9.572
 4089TIP3   OH236245   0.861   0.284   9.748
 4089TIP3    H136246   0.890   0.224   9.819
 4089TIP3    H236247   0.872   0.369   9.794
 4090TIP3   OH236248   1.045   1.815   9.559
 4090TIP3    H136249   1.138   1.832   9.543
 4090TIP3    H236250   1.027   1.743   9.493
 4091TIP3   OH236251   1.722   1.738   9.866
 4091TIP3    H136252   1.709   1.659   9.809
 4091TIP3    H236253   1.722   1.811   9.800
 4092TIP3   OH236254   0.346   1.749   9.452
 4092TIP3    H136255   0.325   1.781   9.541
 4092TIP3    H236256   0.429   1.700   9.467
 4093TIP3   OH236257   3.098   1.001  10.068
 4093TIP3    H136258   3.094   1.099  10.068
 4093TIP3    H236259   3.023   0.977  10.010
 4094TIP3   OH236260   2.981   0.925  10.420
 4094TIP3    H136261   2.981   0.860  10.492
 4094TIP3    H236262   2.946   0.874  10.345
 4095TIP3   OH236263   2.218   0.893  10.574
 4095TIP3    H136264   2.226   0.824  10.643
 4095TIP3    H236265   2.292   0.951  10.597
 4096TIP3   OH236266   3.350   1.221  10.248
 4096TIP3    H136267   3.309   1.150  10.298
 4096TIP3    H236268   3.353   1.291  10.316
 4097TIP3   OH236269   2.309   1.339  10.423
 4097TIP3    H136270   2.279   1.250  10.393
 4097TIP3    H236271   2.405   1.321  10.432
 4098TIP3   OH236272   1.973   0.693   9.975
 4098TIP3    H136273   1.930   0.780   9.968
 4098TIP3    H236274   1.917   0.639   9.917
 4099TIP3   OH236275   2.045   0.918  10.190
 4099TIP3    H136276   2.073   0.835  10.234
 4099TIP3    H236277   2.113   0.928  10.122
 4100TIP3   OH236278   3.062   1.736  10.274
 4100TIP3    H136279   3.127   1.669  10.243
 4100TIP3    H236280   3.042   1.701  10.361
 4101TIP3   OH236281   2.818   1.165  10.472
 4101TIP3    H136282   2.852   1.105  10.404
 4101TIP3    H236283   2.901   1.182  10.520
 4102TIP3   OH236284   3.684   0.327  10.544
 4102TIP3    H136285   3.696   0.393  10.615
 4102TIP3    H236286   3.734   0.372  10.474
 4103TIP3   OH236287   3.133   0.610  10.502
 4103TIP3    H136288   3.153   0.515  10.501
 4103TIP3    H236289   3.125   0.626  10.406
 4104TIP3   OH236290   2.448   0.423  10.220
 4104TIP3    H136291   2.459   0.507  10.170
 4104TIP3    H236292   2.408   0.365  10.152
 4105TIP3   OH236293   3.220   0.429  10.057
 4105TIP3    H136294   3.285   0.399  10.125
 4105TIP3    H236295   3.277   0.487  10.005
 4106TIP3   OH236296   2.108   0.664  10.293
 4106TIP3    H136297   2.175   0.610  10.339
 4106TIP3    H236298   2.120   0.632  10.202
 4107TIP3   OH236299   2.625   0.818  10.227
 4107TIP3    H136300   2.693   0.760  10.265
 4107TIP3    H236301   2.574   0.753  10.175
 4108TIP3   OH236302   3.741   0.492  10.768
 4108TIP3    H136303   3.661   0.548  10.755
 4108TIP3    H236304   3.723   0.461  10.857
 4109TIP3   OH236305   2.340   0.313  10.618
 4109TIP3    H136306   2.310   0.374  10.549
 4109TIP3    H236307   2.273   0.332  10.688
 4110TIP3   OH236308   3.066   1.259   9.979
 4110TIP3    H136309   3.041   1.233   9.889
 4110TIP3    H236310   3.036   1.352   9.984
 4111TIP3   OH236311   2.589   1.076  10.652
 4111TIP3    H136312   2.519   1.142  10.670
 4111TIP3    H236313   2.660   1.135  10.619
 4112TIP3   OH236314   3.401   0.369  10.259
 4112TIP3    H136315   3.379   0.290  10.310
 4112TIP3    H236316   3.472   0.408  10.313
 4113TIP3   OH236317   2.293   0.503  10.423
 4113TIP3    H136318   2.358   0.567  10.458
 4113TIP3    H236319   2.346   0.458  10.352
 4114TIP3   OH236320   2.436   1.278  10.730
 4114TIP3    H136321   2.429   1.371  10.701
 4114TIP3    H236322   2.349   1.268  10.775
 4115TIP3   OH236323   2.042   1.236   9.808
 4115TIP3    H136324   2.018   1.272   9.721
 4115TIP3    H236325   2.051   1.318   9.861
 4116TIP3   OH236326   3.403   1.405  10.486
 4116TIP3    H136327   3.306   1.416  10.497
 4116TIP3    H236328   3.430   1.496  10.465
 4117TIP3   OH236329   3.437   0.242  10.640
 4117TIP3    H136330   3.360   0.297  10.614
 4117TIP3    H236331   3.503   0.269  10.573
 4118TIP3   OH236332   2.723   0.053  10.334
 4118TIP3    H136333   2.733  -0.036  10.371
 4118TIP3    H236334   2.652   0.083  10.394
 4119TIP3   OH236335   3.229   1.583  10.143
 4119TIP3    H136336   3.272   1.511  10.093
 4119TIP3    H236337   3.275   1.662  10.105
 4120TIP3   OH236338   3.351   1.376   9.996
 4120TIP3    H136339   3.321   1.306   9.936
 4120TIP3    H236340   3.354   1.326  10.080
 4121TIP3   OH236341   3.515   1.232  10.843
 4121TIP3    H136342   3.528   1.174  10.766
 4121TIP3    H236343   3.537   1.320  10.805
 4122TIP3   OH236344   2.961   0.922   9.820
 4122TIP3    H136345   2.893   0.982   9.785
 4122TIP3    H236346   3.034   0.934   9.756
 4123TIP3   OH236347   2.971   0.782   9.522
 4123TIP3    H136348   3.041   0.780   9.589
 4123TIP3    H236349   3.001   0.709   9.466
 4124TIP3   OH236350   3.702   0.865  10.648
 4124TIP3    H136351   3.637   0.938  10.655
 4124TIP3    H236352   3.750   0.891  10.568
 4125TIP3   OH236353   3.308   0.943   9.913
 4125TIP3    H136354   3.234   0.969   9.973
 4125TIP3    H236355   3.356   0.877   9.967
 4126TIP3   OH236356   3.298   0.759  10.824
 4126TIP3    H136357   3.299   0.838  10.879
 4126TIP3    H236358   3.235   0.790  10.755
 4127TIP3   OH236359   2.468   1.012  10.105
 4127TIP3    H136360   2.436   0.972  10.020
 4127TIP3    H236361   2.529   0.942  10.139
 4128TIP3   OH236362   2.600   1.348  10.373
 4128TIP3    H136363   2.600   1.297  10.291
 4128TIP3    H236364   2.679   1.313  10.418
 4129TIP3   OH236365   2.501   0.887  10.471
 4129TIP3    H136366   2.555   0.896  10.391
 4129TIP3    H236367   2.541   0.951  10.534
 4130TIP3   OH236368   3.144   1.443  10.543
 4130TIP3    H136369   3.113   1.510  10.605
 4130TIP3    H236370   3.116   1.358  10.586
 4131TIP3   OH236371   2.609   1.350  10.931
 4131TIP3    H136372   2.561   1.403  10.997
 4131TIP3    H236373   2.534   1.317  10.876
 4132TIP3   OH236374   3.195   0.866   9.679
 4132TIP3    H136375   3.250   0.883   9.760
 4132TIP3    H236376   3.241   0.915   9.608
 4133TIP3   OH236377   2.289   0.944  10.863
 4133TIP3    H136378   2.294   1.011  10.933
 4133TIP3    H236379   2.197   0.952  10.834
 4134TIP3   OH236380   2.966   1.538  10.028
 4134TIP3    H136381   3.009   1.568  10.108
 4134TIP3    H236382   2.911   1.613  10.003
 4135TIP3   OH236383   3.570   0.046   9.681
 4135TIP3    H136384   3.473   0.052   9.689
 4135TIP3    H236385   3.591   0.122   9.622
 4136TIP3   OH236386   2.363   0.912   9.870
 4136TIP3    H136387   2.336   0.990   9.817
 4136TIP3    H236388   2.299   0.845   9.843
 4137TIP3   OH236389   3.679   1.474   9.506
 4137TIP3    H136390   3.696   1.568   9.523
 4137TIP3    H236391   3.771   1.441   9.507
 4138TIP3   OH236392   1.977   1.156  10.750
 4138TIP3    H136393   1.928   1.149  10.667
 4138TIP3    H236394   1.979   1.063  10.779
 4139TIP3   OH236395   1.951   1.430  10.434
 4139TIP3    H136396   2.046   1.417  10.432
 4139TIP3    H236397   1.943   1.510  10.488
 4140TIP3   OH236398   2.857   1.428  10.866
 4140TIP3    H136399   2.868   1.518  10.900
 4140TIP3    H236400   2.771   1.400  10.906
 4141TIP3   OH236401   2.915   1.828   9.868
 4141TIP3    H136402   2.903   1.821   9.772
 4141TIP3    H236403   2.914   1.924   9.884
 4142TIP3   OH236404   2.278   1.716  10.051
 4142TIP3    H136405   2.292   1.675  10.139
 4142TIP3    H236406   2.193   1.675  10.028
 4143TIP3   OH236407   3.220   1.750   9.567
 4143TIP3    H136408   3.266   1.674   9.524
 4143TIP3    H236409   3.224   1.724   9.661
 4144TIP3   OH236410   3.189   1.744   9.845
 4144TIP3    H136411   3.093   1.751   9.861
 4144TIP3    H236412   3.212   1.669   9.902
 4145TIP3   OH236413   2.202   1.285  10.849
 4145TIP3    H136414   2.223   1.250  10.935
 4145TIP3    H236415   2.113   1.249  10.828
 4146TIP3   OH236416   2.473   0.140  10.439
 4146TIP3    H136417   2.384   0.136  10.400
 4146TIP3    H236418   2.459   0.216  10.498
 4147TIP3   OH236419   2.935   0.114  10.791
 4147TIP3    H136420   2.971   0.059  10.861
 4147TIP3    H236421   2.839   0.093  10.800
 4148TIP3   OH236422   3.242   0.479  10.867
 4148TIP3    H136423   3.217   0.471  10.960
 4148TIP3    H236424   3.252   0.575  10.850
 4149TIP3   OH236425   3.340   0.969   9.464
 4149TIP3    H136426   3.336   0.951   9.368
 4149TIP3    H236427   3.426   1.014   9.468
 4150TIP3   OH236428   2.900   0.362   9.514
 4150TIP3    H136429   2.868   0.353   9.605
 4150TIP3    H236430   2.867   0.276   9.482
 4151TIP3   OH236431   2.479   0.634  10.571
 4151TIP3    H136432   2.406   0.633  10.637
 4151TIP3    H236433   2.473   0.724  10.533
 4152TIP3   OH236434   2.477   0.643  10.059
 4152TIP3    H136435   2.383   0.619  10.045
 4152TIP3    H236436   2.514   0.615   9.972
 4153TIP3   OH236437   3.030   0.696   9.935
 4153TIP3    H136438   2.991   0.778   9.897
 4153TIP3    H236439   3.099   0.677   9.869
 4154TIP3   OH236440   3.133   0.645  10.220
 4154TIP3    H136441   3.104   0.701  10.146
 4154TIP3    H236442   3.141   0.559  10.173
 4155TIP3   OH236443   2.240   0.662  10.743
 4155TIP3    H136444   2.250   0.698  10.832
 4155TIP3    H236445   2.202   0.574  10.761
 4156TIP3   OH236446   2.579   0.400   9.426
 4156TIP3    H136447   2.534   0.356   9.501
 4156TIP3    H236448   2.507   0.442   9.376
 4157TIP3   OH236449   1.911   0.375  10.138
 4157TIP3    H136450   1.978   0.370  10.209
 4157TIP3    H236451   1.954   0.334  10.062
 4158TIP3   OH236452   2.035   0.444   9.676
 4158TIP3    H136453   2.088   0.501   9.616
 4158TIP3    H236454   1.967   0.508   9.705
 4159TIP3   OH236455   3.056   0.800  10.682
 4159TIP3    H136456   3.091   0.734  10.618
 4159TIP3    H236457   3.003   0.746  10.742
 4160TIP3   OH236458   2.734   0.404  10.160
 4160TIP3    H136459   2.640   0.397  10.187
 4160TIP3    H236460   2.781   0.382  10.241
 4161TIP3   OH236461   2.213   0.555  10.046
 4161TIP3    H136462   2.125   0.569  10.005
 4161TIP3    H236463   2.242   0.471  10.005
 4162TIP3   OH236464   2.577   0.561   9.809
 4162TIP3    H136465   2.673   0.570   9.823
 4162TIP3    H236466   2.554   0.628   9.743
 4163TIP3   OH236467   3.175   0.326  10.481
 4163TIP3    H136468   3.105   0.328  10.549
 4163TIP3    H236469   3.127   0.292  10.404
 4164TIP3   OH236470   2.449   0.677   9.567
 4164TIP3    H136471   2.395   0.639   9.495
 4164TIP3    H236472   2.530   0.698   9.519
 4165TIP3   OH236473   2.860   0.676  10.347
 4165TIP3    H136474   2.920   0.623  10.294
 4165TIP3    H236475   2.846   0.620  10.425
 4166TIP3   OH236476   2.360   0.290   9.989
 4166TIP3    H136477   2.330   0.198   9.992
 4166TIP3    H236478   2.440   0.281   9.936
 4167TIP3   OH236479   2.723   0.507  10.589
 4167TIP3    H136480   2.642   0.562  10.595
 4167TIP3    H236481   2.781   0.544  10.659
 4168TIP3   OH236482   2.783   1.130   9.759
 4168TIP3    H136483   2.703   1.084   9.725
 4168TIP3    H236484   2.760   1.144   9.853
 4169TIP3   OH236485   3.505   1.045  10.640
 4169TIP3    H136486   3.559   1.099  10.578
 4169TIP3    H236487   3.418   1.053  10.595
 4170TIP3   OH236488   3.164   0.410   9.578
 4170TIP3    H136489   3.070   0.429   9.561
 4170TIP3    H236490   3.200   0.495   9.611
 4171TIP3   OH236491   2.933   1.158  10.874
 4171TIP3    H136492   2.900   1.115  10.955
 4171TIP3    H236493   2.903   1.250  10.885
 4172TIP3   OH236494   3.239   0.603   9.738
 4172TIP3    H136495   3.327   0.591   9.780
 4172TIP3    H236496   3.250   0.685   9.687
 4173TIP3   OH236497   2.295   1.071  10.339
 4173TIP3    H136498   2.361   1.062  10.268
 4173TIP3    H236499   2.300   0.985  10.385
 4174TIP3   OH236500   2.992   1.277   9.662
 4174TIP3    H136501   2.957   1.362   9.697
 4174TIP3    H236502   2.919   1.215   9.684
 4175TIP3   OH236503   1.991   0.913  10.864
 4175TIP3    H136504   2.011   0.869  10.949
 4175TIP3    H236505   1.932   0.850  10.819
 4176TIP3   OH236506   3.159   1.400  10.879
 4176TIP3    H136507   3.068   1.417  10.852
 4176TIP3    H236508   3.164   1.426  10.972
 4177TIP3   OH236509   3.729   0.620   9.717
 4177TIP3    H136510   3.674   0.589   9.642
 4177TIP3    H236511   3.736   0.714   9.692
 4178TIP3   OH236512   3.554   1.500   9.755
 4178TIP3    H136513   3.522   1.417   9.791
 4178TIP3    H236514   3.591   1.478   9.668
 4179TIP3   OH236515   3.280   0.982  10.468
 4179TIP3    H136516   3.186   0.961  10.455
 4179TIP3    H236517   3.323   0.907  10.421
 4180TIP3   OH236518   2.532   1.416  10.078
 4180TIP3    H136519   2.581   1.497  10.057
 4180TIP3    H236520   2.444   1.438  10.044
 4181TIP3   OH236521   2.109   0.899   9.534
 4181TIP3    H136522   2.166   0.966   9.576
 4181TIP3    H236523   2.019   0.930   9.559
 4182TIP3   OH236524   2.672   1.182  10.027
 4182TIP3    H136525   2.640   1.274  10.038
 4182TIP3    H236526   2.602   1.132  10.073
 4183TIP3   OH236527   2.716   1.603  10.672
 4183TIP3    H136528   2.766   1.681  10.643
 4183TIP3    H236529   2.779   1.562  10.733
 4184TIP3   OH236530   2.541   1.680   9.981
 4184TIP3    H136531   2.445   1.695   9.995
 4184TIP3    H236532   2.578   1.764  10.015
 4185TIP3   OH236533   3.071   1.200  10.628
 4185TIP3    H136534   3.038   1.182  10.718
 4185TIP3    H236535   3.135   1.128  10.615
 4186TIP3   OH236536   3.305   1.309   9.541
 4186TIP3    H136537   3.334   1.261   9.621
 4186TIP3    H236538   3.210   1.290   9.548
 4187TIP3   OH236539   3.329   1.684  10.860
 4187TIP3    H136540   3.282   1.616  10.809
 4187TIP3    H236541   3.369   1.740  10.789
 4188TIP3   OH236542   3.751   1.743   9.567
 4188TIP3    H136543   3.819   1.810   9.545
 4188TIP3    H236544   3.679   1.804   9.595
 4189TIP3   OH236545   2.158   0.389  10.818
 4189TIP3    H136546   2.065   0.419  10.813
 4189TIP3    H236547   2.152   0.303  10.860
 4190TIP3   OH236548   3.382   1.172   9.765
 4190TIP3    H136549   3.358   1.092   9.818
 4190TIP3    H236550   3.477   1.175   9.782
 4191TIP3   OH236551   2.122   1.562  10.661
 4191TIP3    H136552   2.150   1.469  10.663
 4191TIP3    H236553   2.149   1.591  10.750
 4192TIP3   OH236554   2.718   1.415   9.391
 4192TIP3    H136555   2.727   1.339   9.332
 4192TIP3    H236556   2.672   1.372   9.466
 4193TIP3   OH236557   2.593   1.368   9.636
 4193TIP3    H136558   2.622   1.316   9.713
 4193TIP3    H236559   2.604   1.460   9.669
 4194TIP3   OH236560   2.249   1.092   9.685
 4194TIP3    H136561   2.177   1.132   9.737
 4194TIP3    H236562   2.299   1.170   9.654
 4195TIP3   OH236563   3.027   0.359  10.711
 4195TIP3    H136564   3.100   0.363  10.774
 4195TIP3    H236565   2.991   0.270  10.727
 4196TIP3   OH236566   3.115   0.311   9.827
 4196TIP3    H136567   3.127   0.362   9.745
 4196TIP3    H236568   3.162   0.368   9.890
 4197TIP3   OH236569   2.875   1.534   9.705
 4197TIP3    H136570   2.793   1.587   9.713
 4197TIP3    H236571   2.929   1.589   9.647
 4198TIP3   OH236572   2.830   0.492   9.908
 4198TIP3    H136573   2.906   0.552   9.913
 4198TIP3    H236574   2.801   0.481  10.000
 4199TIP3   OH236575   2.898   0.605  10.819
 4199TIP3    H136576   2.890   0.650  10.903
 4199TIP3    H236577   2.942   0.521  10.836
 4200TIP3   OH236578   2.917   0.200  10.000
 4200TIP3    H136579   2.881   0.268  10.059
 4200TIP3    H236580   2.983   0.255   9.952
 4201TIP3   OH236581   2.616   1.637   9.709
 4201TIP3    H136582   2.624   1.718   9.653
 4201TIP3    H236583   2.587   1.674   9.795
 4202TIP3   OH236584   2.477   0.309   9.663
 4202TIP3    H136585   2.473   0.397   9.703
 4202TIP3    H236586   2.568   0.285   9.690
 4203TIP3   OH236587   3.507   0.418  10.856
 4203TIP3    H136588   3.410   0.416  10.868
 4203TIP3    H236589   3.522   0.366  10.775
 4204TIP3   OH236590   3.361   0.761  10.312
 4204TIP3    H136591   3.280   0.715  10.283
 4204TIP3    H236592   3.412   0.693  10.362
 4205TIP3   OH236593   2.302   1.354   9.569
 4205TIP3    H136594   2.369   1.415   9.604
 4205TIP3    H236595   2.355   1.307   9.502
 4206TIP3   OH236596   2.137   0.621   9.485
 4206TIP3    H136597   2.139   0.716   9.507
 4206TIP3    H236598   2.048   0.605   9.453
 4207TIP3   OH236599   3.470   1.687  10.477
 4207TIP3    H136600   3.461   1.756  10.408
 4207TIP3    H236601   3.566   1.693  10.494
 4208TIP3   OH236602   2.206   0.125  10.345
 4208TIP3    H136603   2.189   0.110  10.249
 4208TIP3    H236604   2.185   0.036  10.381
 4209TIP3   OH236605   2.114   1.491   9.975
 4209TIP3    H136606   2.029   1.535   9.968
 4209TIP3    H236607   2.161   1.537   9.903
 4210TIP3   OH236608   2.917   1.600   9.403
 4210TIP3    H136609   2.847   1.534   9.424
 4210TIP3    H236610   2.989   1.540   9.378
 4211TIP3   OH236611   3.373   1.574   9.421
 4211TIP3    H136612   3.402   1.496   9.472
 4211TIP3    H236613   3.449   1.595   9.366
 4212TIP3   OH236614   2.461   1.169   9.402
 4212TIP3    H136615   2.474   1.093   9.461
 4212TIP3    H236616   2.536   1.157   9.341
 4213TIP3   OH236617   3.004   1.280   9.381
 4213TIP3    H136618   2.977   1.287   9.474
 4213TIP3    H236619   2.986   1.184   9.366
 4214TIP3   OH236620   3.265   1.118  10.865
 4214TIP3    H136621   3.345   1.175  10.870
 4214TIP3    H236622   3.197   1.185  10.884
 4215TIP3   OH236623   2.581   0.970   9.647
 4215TIP3    H136624   2.530   0.916   9.709
 4215TIP3    H236625   2.612   0.904   9.581
 4216TIP3   OH236626   2.509   0.766  10.863
 4216TIP3    H136627   2.444   0.832  10.893
 4216TIP3    H236628   2.546   0.802  10.782
 4217TIP3   OH236629   2.689   0.793   9.465
 4217TIP3    H136630   2.674   0.785   9.369
 4217TIP3    H236631   2.787   0.797   9.473
 4218TIP3   OH236632   3.620   1.025   9.407
 4218TIP3    H136633   3.602   0.988   9.319
 4218TIP3    H236634   3.630   1.121   9.388
 4219TIP3   OH236635   2.516   0.533  10.951
 4219TIP3    H136636   2.568   0.461  10.914
 4219TIP3    H236637   2.547   0.609  10.899
 4220TIP3   OH236638   2.587   0.324  10.736
 4220TIP3    H136639   2.639   0.374  10.669
 4220TIP3    H236640   2.498   0.316  10.695
 4221TIP3   OH236641   2.744   0.870  10.757
 4221TIP3    H136642   2.821   0.860  10.701
 4221TIP3    H236643   2.707   0.956  10.729
 4222TIP3   OH236644   2.674   0.084  10.784
 4222TIP3    H136645   2.653   0.180  10.776
 4222TIP3    H236646   2.597   0.044  10.741
 4223TIP3   OH236647   2.672   1.863   9.575
 4223TIP3    H136648   2.768   1.870   9.581
 4223TIP3    H236649   2.658   1.922   9.499
 4224TIP3   OH236650   2.026   1.319   9.522
 4224TIP3    H136651   2.123   1.329   9.539
 4224TIP3    H236652   2.031   1.256   9.446
 4225TIP3   OH236653   1.905   1.857  10.016
 4225TIP3    H136654   1.833   1.809   9.972
 4225TIP3    H236655   1.934   1.793  10.084
 4226TIP3   OH236656   1.987   1.672  10.206
 4226TIP3    H136657   1.952   1.585  10.226
 4226TIP3    H236658   2.011   1.705  10.294
 4227TIP3   OH236659   3.743   1.751  10.500
 4227TIP3    H136660   3.747   1.766  10.596
 4227TIP3    H236661   3.812   1.812  10.469
 4228TIP3   OH236662   3.701   1.712  10.790
 4228TIP3    H136663   3.652   1.636  10.753
 4228TIP3    H236664   3.750   1.670  10.861
 4229TIP3   OH236665   3.675   1.117   9.801
 4229TIP3    H136666   3.762   1.155   9.821
 4229TIP3    H236667   3.673   1.046   9.869
 4230TIP3   OH236668   3.709   0.927   9.992
 4230TIP3    H136669   3.637   0.874  10.032
 4230TIP3    H236670   3.772   0.935  10.067
 4231TIP3   OH236671   3.686   1.193  10.489
 4231TIP3    H136672   3.767   1.154  10.452
 4231TIP3    H236673   3.701   1.288  10.470
 4232TIP3   OH236674   3.539   1.485  10.718
 4232TIP3    H136675   3.472   1.516  10.779
 4232TIP3    H236676   3.487   1.443  10.646
 4233TIP3   OH236677   3.741   0.906   9.630
 4233TIP3    H136678   3.684   0.939   9.558
 4233TIP3    H236679   3.730   0.978   9.696
 4234TIP3   OH236680   3.579   0.629   9.481
 4234TIP3    H136681   3.586   0.695   9.411
 4234TIP3    H236682   3.559   0.547   9.432
 4235TIP3   OH236683   3.493   0.771  10.050
 4235TIP3    H136684   3.479   0.675  10.044
 4235TIP3    H236685   3.461   0.791  10.139
 4236TIP3   OH236686   1.994   0.981  10.455
 4236TIP3    H136687   2.011   0.971  10.358
 4236TIP3    H236688   2.083   0.960  10.491
 4237TIP3   OH236689   3.502   0.379   9.400
 4237TIP3    H136690   3.563   0.333   9.459
 4237TIP3    H236691   3.417   0.332   9.410
 4238TIP3   OH236692   3.457   0.533   9.889
 4238TIP3    H136693   3.487   0.441   9.905
 4238TIP3    H236694   3.540   0.572   9.859
 4239TIP3   OH236695   3.523   0.585  10.436
 4239TIP3    H136696   3.620   0.605  10.437
 4239TIP3    H236697   3.505   0.594  10.531
 4240TIP3   OH236698   3.530   0.660  10.714
 4240TIP3    H136699   3.441   0.686  10.748
 4240TIP3    H236700   3.573   0.746  10.693
 4241TIP3   OH236701   3.522   0.262   9.898
 4241TIP3    H136702   3.547   0.217   9.982
 4241TIP3    H236703   3.466   0.194   9.854
 4242TIP3   OH236704   2.070   0.345  10.357
 4242TIP3    H136705   2.116   0.262  10.378
 4242TIP3    H236706   2.130   0.410  10.394
 4243TIP3   OH236707   1.903   0.638  10.458
 4243TIP3    H136708   1.960   0.613  10.383
 4243TIP3    H236709   1.950   0.718  10.485
 4244TIP3   OH236710   3.712   0.260   9.561
 4244TIP3    H136711   3.747   0.190   9.501
 4244TIP3    H236712   3.780   0.328   9.559
 4245TIP3   OH236713   1.939   0.263   9.869
 4245TIP3    H136714   1.846   0.284   9.851
 4245TIP3    H236715   1.984   0.311   9.796
 4246TIP3   OH236716   3.414   1.760  10.061
 4246TIP3    H136717   3.482   1.730   9.999
 4246TIP3    H236718   3.465   1.810  10.127
 4247TIP3   OH236719   1.944   0.153  10.701
 4247TIP3    H136720   1.877   0.118  10.761
 4247TIP3    H236721   1.891   0.204  10.638
 4248TIP3   OH236722   2.446   1.549  10.736
 4248TIP3    H136723   2.414   1.636  10.708
 4248TIP3    H236724   2.540   1.558  10.711
 4249TIP3   OH236725   3.106   1.831  -0.032
 4249TIP3    H136726   3.177   1.768  -0.054
 4249TIP3    H236727   3.146   1.861   0.051
 4250TIP3   OH236728   3.601   0.104  10.865
 4250TIP3    H136729   3.511   0.122  10.837
 4250TIP3    H236730   3.602   0.008  10.855
 4251TIP3   OH236731   2.189   1.877  10.741
 4251TIP3    H136732   2.115   1.924  10.702
 4251TIP3    H236733   2.157   1.852  10.829
 4252TIP3   OH236734   2.437   1.832  10.639
 4252TIP3    H136735   2.352   1.849  10.686
 4252TIP3    H236736   2.431   1.894  10.565
 4253TIP3   OH236737   2.908   1.822  10.566
 4253TIP3    H136738   2.863   1.878  10.499
 4253TIP3    H236739   2.921   1.887  10.638
 4254TIP3   OH236740   3.137   1.699  10.656
 4254TIP3    H136741   3.051   1.733  10.628
 4254TIP3    H236742   3.184   1.784  10.657
 4255TIP3   OH236743   3.404   1.864  10.686
 4255TIP3    H136744   3.391   1.958  10.663
 4255TIP3    H236745   3.419   1.824  10.598
 4256TIP3   OH236746   2.138   1.740  10.433
 4256TIP3    H136747   2.131   1.695  10.519
 4256TIP3    H236748   2.220   1.700  10.395
 4257TIP3   OH236749   2.345   1.610  10.298
 4257TIP3    H136750   2.329   1.517  10.322
 4257TIP3    H236751   2.431   1.626  10.344
 4258TIP3   OH236752   2.607   1.660  10.384
 4258TIP3    H136753   2.620   1.566  10.360
 4258TIP3    H236754   2.610   1.655  10.481
 4259TIP3   OH236755   2.947   0.231  10.295
 4259TIP3    H136756   2.885   0.163  10.327
 4259TIP3    H236757   3.009   0.175  10.246
 4260TIP3   OH236758   3.467   0.060  10.323
 4260TIP3    H136759   3.527   0.094  10.252
 4260TIP3    H236760   3.378   0.062  10.282
 4261TIP3   OH236761   3.634   0.159  10.132
 4261TIP3    H136762   3.698   0.098  10.093
 4261TIP3    H236763   3.685   0.243  10.144
 4262TIP3   OH236764   2.183   0.084  10.084
 4262TIP3    H136765   2.106   0.069  10.027
 4262TIP3    H236766   2.231   0.001  10.076
 4263TIP3   OH236767   2.091   0.106   9.670
 4263TIP3    H136768   2.111   0.157   9.590
 4263TIP3    H236769   2.003   0.137   9.698
 4264TIP3   OH236770   2.630   0.091  10.063
 4264TIP3    H136771   2.722   0.117  10.054
 4264TIP3    H236772   2.636   0.058  10.153
 4265TIP3   OH236773   3.205   0.083  10.228
 4265TIP3    H136774   3.201   0.090  10.132
 4265TIP3    H236775   3.171  -0.007  10.240
 4266TIP3   OH236776   3.315   0.097   9.760
 4266TIP3    H136777   3.243   0.158   9.776
 4266TIP3    H236778   3.292   0.018   9.811
 4267TIP3   OH236779   2.055   1.656   9.761
 4267TIP3    H136780   1.990   1.654   9.688
 4267TIP3    H236781   2.056   1.752   9.777
 4268TIP3   OH236782   2.245   0.259   9.504
 4268TIP3    H136783   2.298   0.197   9.452
 4268TIP3    H236784   2.310   0.284   9.572
 4269TIP3   OH236785   2.746   0.284   9.749
 4269TIP3    H136786   2.775   0.224   9.819
 4269TIP3    H236787   2.757   0.369   9.794
 4270TIP3   OH236788   2.944   1.789   9.593
 4270TIP3    H136789   3.036   1.809   9.571
 4270TIP3    H236790   2.921   1.735   9.513
 4271TIP3   OH236791   3.612   1.737   9.866
 4271TIP3    H136792   3.594   1.659   9.809
 4271TIP3    H236793   3.605   1.810   9.801
 4272TIP3   OH236794   2.235   1.755   9.454
 4272TIP3    H136795   2.209   1.781   9.544
 4272TIP3    H236796   2.313   1.699   9.469
 4273TIP3   OH236797   4.982   1.000  10.068
 4273TIP3    H136798   4.980   1.099  10.068
 4273TIP3    H236799   4.908   0.981  10.009
 4274TIP3   OH236800   4.868   0.925  10.420
 4274TIP3    H136801   4.867   0.860  10.492
 4274TIP3    H236802   4.830   0.875  10.346
 4275TIP3   OH236803   4.100   0.895  10.577
 4275TIP3    H136804   4.112   0.824  10.643
 4275TIP3    H236805   4.179   0.949  10.593
 4276TIP3   OH236806   5.239   1.217  10.252
 4276TIP3    H136807   5.194   1.149  10.300
 4276TIP3    H236808   5.238   1.292  10.315
 4277TIP3   OH236809   4.195   1.338  10.423
 4277TIP3    H136810   4.166   1.249  10.393
 4277TIP3    H236811   4.290   1.320  10.431
 4278TIP3   OH236812   3.858   0.692   9.975
 4278TIP3    H136813   3.818   0.780   9.968
 4278TIP3    H236814   3.802   0.639   9.917
 4279TIP3   OH236815   3.923   0.920  10.190
 4279TIP3    H136816   3.960   0.840  10.233
 4279TIP3    H236817   3.999   0.927  10.128
 4280TIP3   OH236818   4.951   1.740  10.275
 4280TIP3    H136819   5.012   1.670  10.240
 4280TIP3    H236820   4.927   1.700  10.358
 4281TIP3   OH236821   4.703   1.165  10.472
 4281TIP3    H136822   4.737   1.105  10.403
 4281TIP3    H236823   4.787   1.184  10.518
 4282TIP3   OH236824   5.570   0.327  10.544
 4282TIP3    H136825   5.582   0.392  10.615
 4282TIP3    H236826   5.620   0.372  10.475
 4283TIP3   OH236827   5.017   0.610  10.502
 4283TIP3    H136828   5.039   0.515  10.503
 4283TIP3    H236829   5.011   0.626  10.406
 4284TIP3   OH236830   4.334   0.421  10.221
 4284TIP3    H136831   4.344   0.506  10.171
 4284TIP3    H236832   4.292   0.367  10.151
 4285TIP3   OH236833   5.125   0.444  10.065
 4285TIP3    H136834   5.191   0.404  10.129
 4285TIP3    H236835   5.187   0.491  10.005
 4286TIP3   OH236836   3.976   0.638  10.300
 4286TIP3    H136837   4.061   0.613  10.340
 4286TIP3    H236838   4.008   0.642  10.207
 4287TIP3   OH236839   4.513   0.820  10.227
 4287TIP3    H136840   4.577   0.758  10.266
 4287TIP3    H236841   4.456   0.757  10.177
 4288TIP3   OH236842   5.627   0.493  10.767
 4288TIP3    H136843   5.546   0.548  10.755
 4288TIP3    H236844   5.609   0.461  10.857
 4289TIP3   OH236845   4.226   0.313  10.618
 4289TIP3    H136846   4.197   0.374  10.548
 4289TIP3    H236847   4.159   0.333  10.687
 4290TIP3   OH236848   4.947   1.256   9.982
 4290TIP3    H136849   4.929   1.236   9.889
 4290TIP3    H236850   4.928   1.353   9.981
 4291TIP3   OH236851   4.475   1.077  10.652
 4291TIP3    H136852   4.404   1.142  10.670
 4291TIP3    H236853   4.545   1.135  10.618
 4292TIP3   OH236854   5.287   0.367  10.261
 4292TIP3    H136855   5.267   0.288  10.314
 4292TIP3    H236856   5.358   0.407  10.313
 4293TIP3   OH236857   4.182   0.497  10.428
 4293TIP3    H136858   4.242   0.569  10.456
 4293TIP3    H236859   4.231   0.461  10.350
 4294TIP3   OH236860   4.322   1.278  10.730
 4294TIP3    H136861   4.314   1.371  10.701
 4294TIP3    H236862   4.235   1.268  10.775
 4295TIP3   OH236863   3.928   1.236   9.809
 4295TIP3    H136864   3.904   1.272   9.722
 4295TIP3    H236865   3.936   1.318   9.861
 4296TIP3   OH236866   5.289   1.405  10.486
 4296TIP3    H136867   5.192   1.416  10.497
 4296TIP3    H236868   5.315   1.496  10.465
 4297TIP3   OH236869   5.322   0.242  10.638
 4297TIP3    H136870   5.245   0.297  10.614
 4297TIP3    H236871   5.388   0.269  10.571
 4298TIP3   OH236872   4.610   0.057  10.335
 4298TIP3    H136873   4.620  -0.033  10.370
 4298TIP3    H236874   4.538   0.084  10.394
 4299TIP3   OH236875   5.117   1.582  10.147
 4299TIP3    H136876   5.153   1.512  10.089
 4299TIP3    H236877   5.158   1.661  10.104
 4300TIP3   OH236878   5.247   1.372   9.996
 4300TIP3    H136879   5.202   1.312   9.935
 4300TIP3    H236880   5.238   1.325  10.081
 4301TIP3   OH236881   5.401   1.232  10.843
 4301TIP3    H136882   5.414   1.174  10.766
 4301TIP3    H236883   5.422   1.320  10.806
 4302TIP3   OH236884   4.848   0.921   9.821
 4302TIP3    H136885   4.780   0.983   9.787
 4302TIP3    H236886   4.920   0.934   9.756
 4303TIP3   OH236887   4.856   0.783   9.522
 4303TIP3    H136888   4.927   0.783   9.587
 4303TIP3    H236889   4.886   0.710   9.466
 4304TIP3   OH236890   5.587   0.865  10.648
 4304TIP3    H136891   5.522   0.938  10.654
 4304TIP3    H236892   5.637   0.891  10.567
 4305TIP3   OH236893   5.193   0.945   9.913
 4305TIP3    H136894   5.119   0.971   9.973
 4305TIP3    H236895   5.242   0.880   9.967
 4306TIP3   OH236896   5.183   0.759  10.824
 4306TIP3    H136897   5.185   0.838  10.879
 4306TIP3    H236898   5.121   0.791  10.755
 4307TIP3   OH236899   4.369   1.022  10.099
 4307TIP3    H136900   4.318   0.973  10.031
 4307TIP3    H236901   4.408   0.943  10.144
 4308TIP3   OH236902   4.484   1.347  10.373
 4308TIP3    H136903   4.485   1.296  10.291
 4308TIP3    H236904   4.564   1.313  10.417
 4309TIP3   OH236905   4.389   0.885  10.476
 4309TIP3    H136906   4.438   0.897  10.391
 4309TIP3    H236907   4.427   0.954  10.534
 4310TIP3   OH236908   5.030   1.443  10.543
 4310TIP3    H136909   4.998   1.510  10.605
 4310TIP3    H236910   5.001   1.358  10.583
 4311TIP3   OH236911   4.494   1.350  10.931
 4311TIP3    H136912   4.446   1.403  10.996
 4311TIP3    H236913   4.420   1.317  10.876
 4312TIP3   OH236914   5.081   0.866   9.679
 4312TIP3    H136915   5.136   0.884   9.760
 4312TIP3    H236916   5.127   0.915   9.607
 4313TIP3   OH236917   4.175   0.944  10.864
 4313TIP3    H136918   4.180   1.012  10.932
 4313TIP3    H236919   4.083   0.952  10.834
 4314TIP3   OH236920   4.815   1.538  10.071
 4314TIP3    H136921   4.899   1.567  10.107
 4314TIP3    H236922   4.801   1.603  10.001
 4315TIP3   OH236923   5.455   0.047   9.681
 4315TIP3    H136924   5.358   0.052   9.689
 4315TIP3    H236925   5.477   0.122   9.622
 4316TIP3   OH236926   4.257   0.911   9.853
 4316TIP3    H136927   4.219   0.992   9.817
 4316TIP3    H236928   4.185   0.847   9.851
 4317TIP3   OH236929   5.565   1.473   9.507
 4317TIP3    H136930   5.579   1.568   9.522
 4317TIP3    H236931   5.655   1.439   9.504
 4318TIP3   OH236932   3.863   1.157  10.751
 4318TIP3    H136933   3.814   1.149  10.667
 4318TIP3    H236934   3.865   1.063  10.779
 4319TIP3   OH236935   3.836   1.431  10.433
 4319TIP3    H136936   3.931   1.417  10.433
 4319TIP3    H236937   3.828   1.510  10.488
 4320TIP3   OH236938   4.743   1.428  10.866
 4320TIP3    H136939   4.753   1.519  10.900
 4320TIP3    H236940   4.657   1.400  10.906
 4321TIP3   OH236941   4.797   1.828   9.868
 4321TIP3    H136942   4.791   1.819   9.772
 4321TIP3    H236943   4.802   1.924   9.884
 4322TIP3   OH236944   4.163   1.716  10.051
 4322TIP3    H136945   4.178   1.675  10.139
 4322TIP3    H236946   4.079   1.675  10.028
 4323TIP3   OH236947   5.106   1.750   9.570
 4323TIP3    H136948   5.149   1.674   9.525
 4323TIP3    H236949   5.106   1.718   9.662
 4324TIP3   OH236950   5.082   1.780   9.872
 4324TIP3    H136951   4.987   1.760   9.858
 4324TIP3    H236952   5.105   1.686   9.888
 4325TIP3   OH236953   4.088   1.284  10.849
 4325TIP3    H136954   4.109   1.249  10.936
 4325TIP3    H236955   3.998   1.249  10.828
 4326TIP3   OH236956   4.358   0.141  10.439
 4326TIP3    H136957   4.269   0.138  10.399
 4326TIP3    H236958   4.344   0.217  10.498
 4327TIP3   OH236959   4.821   0.114  10.791
 4327TIP3    H136960   4.856   0.059  10.861
 4327TIP3    H236961   4.725   0.093  10.800
 4328TIP3   OH236962   5.128   0.479  10.867
 4328TIP3    H136963   5.102   0.471  10.960
 4328TIP3    H236964   5.138   0.575  10.850
 4329TIP3   OH236965   5.226   0.969   9.465
 4329TIP3    H136966   5.222   0.951   9.368
 4329TIP3    H236967   5.311   1.014   9.468
 4330TIP3   OH236968   4.788   0.360   9.516
 4330TIP3    H136969   4.750   0.352   9.605
 4330TIP3    H236970   4.753   0.276   9.480
 4331TIP3   OH236971   4.366   0.635  10.573
 4331TIP3    H136972   4.290   0.633  10.635
 4331TIP3    H236973   4.358   0.723  10.530
 4332TIP3   OH236974   4.386   0.614  10.049
 4332TIP3    H136975   4.289   0.633  10.052
 4332TIP3    H236976   4.400   0.608   9.954
 4333TIP3   OH236977   4.914   0.689   9.931
 4333TIP3    H136978   4.875   0.775   9.900
 4333TIP3    H236979   4.986   0.681   9.867
 4334TIP3   OH236980   5.010   0.644  10.221
 4334TIP3    H136981   4.991   0.705  10.148
 4334TIP3    H236982   5.037   0.564  10.175
 4335TIP3   OH236983   4.125   0.662  10.744
 4335TIP3    H136984   4.136   0.698  10.833
 4335TIP3    H236985   4.088   0.574  10.761
 4336TIP3   OH236986   4.464   0.400   9.426
 4336TIP3    H136987   4.420   0.356   9.501
 4336TIP3    H236988   4.393   0.442   9.377
 4337TIP3   OH236989   3.794   0.371  10.139
 4337TIP3    H136990   3.863   0.373  10.209
 4337TIP3    H236991   3.842   0.337  10.062
 4338TIP3   OH236992   3.921   0.444   9.676
 4338TIP3    H136993   3.973   0.501   9.616
 4338TIP3    H236994   3.852   0.508   9.705
 4339TIP3   OH236995   4.943   0.800  10.682
 4339TIP3    H136996   4.977   0.734  10.618
 4339TIP3    H236997   4.888   0.746  10.742
 4340TIP3   OH236998   4.626   0.399  10.159
 4340TIP3    H136999   4.529   0.400  10.181
 4340TIP3    H237000   4.664   0.381  10.246
 4341TIP3   OH237001   4.090   0.536  10.048
 4341TIP3    H137002   4.010   0.565  10.000
 4341TIP3    H237003   4.125   0.461   9.996
 4342TIP3   OH237004   4.468   0.554   9.801
 4342TIP3    H137005   4.559   0.575   9.824
 4342TIP3    H237006   4.438   0.629   9.745
 4343TIP3   OH237007   5.060   0.328  10.480
 4343TIP3    H137008   4.992   0.328  10.551
 4343TIP3    H237009   5.011   0.291  10.405
 4344TIP3   OH237010   4.334   0.677   9.567
 4344TIP3    H137011   4.281   0.639   9.495
 4344TIP3    H237012   4.416   0.698   9.519
 4345TIP3   OH237013   4.745   0.675  10.347
 4345TIP3    H137014   4.809   0.624  10.298
 4345TIP3    H237015   4.732   0.622  10.427
 4346TIP3   OH237016   4.244   0.287   9.987
 4346TIP3    H137017   4.216   0.195   9.990
 4346TIP3    H237018   4.325   0.282   9.936
 4347TIP3   OH237019   4.609   0.506  10.592
 4347TIP3    H137020   4.529   0.561  10.595
 4347TIP3    H237021   4.667   0.545  10.660
 4348TIP3   OH237022   4.670   1.125   9.759
 4348TIP3    H137023   4.587   1.084   9.725
 4348TIP3    H237024   4.646   1.146   9.852
 4349TIP3   OH237025   5.391   1.045  10.640
 4349TIP3    H137026   5.444   1.099  10.578
 4349TIP3    H237027   5.304   1.052  10.595
 4350TIP3   OH237028   5.048   0.408   9.583
 4350TIP3    H137029   4.956   0.429   9.557
 4350TIP3    H237030   5.086   0.496   9.607
 4351TIP3   OH237031   4.819   1.158  10.874
 4351TIP3    H137032   4.786   1.115  10.955
 4351TIP3    H237033   4.788   1.250  10.885
 4352TIP3   OH237034   5.125   0.603   9.742
 4352TIP3    H137035   5.215   0.591   9.779
 4352TIP3    H237036   5.136   0.684   9.688
 4353TIP3   OH237037   4.184   1.072  10.343
 4353TIP3    H137038   4.243   1.058  10.267
 4353TIP3    H237039   4.183   0.981  10.377
 4354TIP3   OH237040   4.876   1.273   9.655
 4354TIP3    H137041   4.854   1.360   9.697
 4354TIP3    H237042   4.803   1.216   9.687
 4355TIP3   OH237043   3.876   0.913  10.865
 4355TIP3    H137044   3.896   0.869  10.949
 4355TIP3    H237045   3.818   0.850  10.819
 4356TIP3   OH237046   5.045   1.400  10.879
 4356TIP3    H137047   4.953   1.417  10.852
 4356TIP3    H237048   5.049   1.426  10.971
 4357TIP3   OH237049   5.614   0.620   9.717
 4357TIP3    H137050   5.560   0.589   9.641
 4357TIP3    H237051   5.623   0.715   9.691
 4358TIP3   OH237052   5.451   1.497   9.758
 4358TIP3    H137053   5.401   1.421   9.792
 4358TIP3    H237054   5.468   1.476   9.665
 4359TIP3   OH237055   5.166   0.980  10.468
 4359TIP3    H137056   5.072   0.961  10.455
 4359TIP3    H237057   5.208   0.906  10.420
 4360TIP3   OH237058   4.417   1.415  10.078
 4360TIP3    H137059   4.469   1.495  10.056
 4360TIP3    H237060   4.330   1.439  10.044
 4361TIP3   OH237061   3.994   0.899   9.535
 4361TIP3    H137062   4.052   0.966   9.575
 4361TIP3    H237063   3.905   0.930   9.559
 4362TIP3   OH237064   4.561   1.185  10.027
 4362TIP3    H137065   4.527   1.275  10.037
 4362TIP3    H237066   4.489   1.132  10.071
 4363TIP3   OH237067   4.602   1.603  10.672
 4363TIP3    H137068   4.652   1.681  10.642
 4363TIP3    H237069   4.665   1.562  10.733
 4364TIP3   OH237070   4.427   1.681   9.982
 4364TIP3    H137071   4.330   1.695   9.996
 4364TIP3    H237072   4.463   1.765  10.015
 4365TIP3   OH237073   4.956   1.200  10.628
 4365TIP3    H137074   4.924   1.182  10.718
 4365TIP3    H237075   5.020   1.128  10.615
 4366TIP3   OH237076   5.191   1.306   9.537
 4366TIP3    H137077   5.216   1.264   9.622
 4366TIP3    H237078   5.095   1.293   9.548
 4367TIP3   OH237079   5.214   1.684  10.859
 4367TIP3    H137080   5.167   1.616  10.809
 4367TIP3    H237081   5.255   1.739  10.789
 4368TIP3   OH237082   5.641   1.743   9.568
 4368TIP3    H137083   5.703   1.815   9.543
 4368TIP3    H237084   5.565   1.801   9.595
 4369TIP3   OH237085   4.044   0.389  10.818
 4369TIP3    H137086   3.951   0.419  10.814
 4369TIP3    H237087   4.037   0.302  10.860
 4370TIP3   OH237088   5.268   1.168   9.761
 4370TIP3    H137089   5.243   1.093   9.820
 4370TIP3    H237090   5.362   1.176   9.784
 4371TIP3   OH237091   4.007   1.562  10.661
 4371TIP3    H137092   4.036   1.469  10.662
 4371TIP3    H237093   4.035   1.590  10.750
 4372TIP3   OH237094   4.600   1.416   9.388
 4372TIP3    H137095   4.612   1.338   9.331
 4372TIP3    H237096   4.560   1.374   9.467
 4373TIP3   OH237097   4.475   1.368   9.636
 4373TIP3    H137098   4.511   1.317   9.710
 4373TIP3    H237099   4.492   1.460   9.666
 4374TIP3   OH237100   4.132   1.094   9.679
 4374TIP3    H137101   4.064   1.131   9.739
 4374TIP3    H237102   4.185   1.172   9.654
 4375TIP3   OH237103   4.913   0.359  10.711
 4375TIP3    H137104   4.986   0.363  10.774
 4375TIP3    H237105   4.876   0.270  10.727
 4376TIP3   OH237106   4.997   0.319   9.830
 4376TIP3    H137107   5.010   0.357   9.739
 4376TIP3    H237108   5.072   0.365   9.870
 4377TIP3   OH237109   4.737   1.527   9.679
 4377TIP3    H137110   4.674   1.592   9.715
 4377TIP3    H237111   4.814   1.581   9.658
 4378TIP3   OH237112   4.733   0.481   9.916
 4378TIP3    H137113   4.786   0.564   9.910
 4378TIP3    H237114   4.679   0.489   9.998
 4379TIP3   OH237115   4.784   0.605  10.819
 4379TIP3    H137116   4.775   0.650  10.903
 4379TIP3    H237117   4.828   0.521  10.837
 4380TIP3   OH237118   4.806   0.193  10.005
 4380TIP3    H137119   4.754   0.260  10.056
 4380TIP3    H237120   4.855   0.239   9.933
 4381TIP3   OH237121   4.492   1.638   9.708
 4381TIP3    H137122   4.509   1.718   9.653
 4381TIP3    H237123   4.474   1.675   9.797
 4382TIP3   OH237124   4.362   0.309   9.662
 4382TIP3    H137125   4.359   0.398   9.704
 4382TIP3    H237126   4.452   0.284   9.689
 4383TIP3   OH237127   5.392   0.418  10.856
 4383TIP3    H137128   5.295   0.416  10.869
 4383TIP3    H237129   5.407   0.366  10.775
 4384TIP3   OH237130   5.249   0.760  10.308
 4384TIP3    H137131   5.166   0.716  10.285
 4384TIP3    H237132   5.299   0.694  10.363
 4385TIP3   OH237133   4.187   1.353   9.569
 4385TIP3    H137134   4.254   1.415   9.602
 4385TIP3    H237135   4.241   1.307   9.502
 4386TIP3   OH237136   4.022   0.621   9.485
 4386TIP3    H137137   4.025   0.717   9.506
 4386TIP3    H237138   3.933   0.605   9.453
 4387TIP3   OH237139   5.355   1.687  10.476
 4387TIP3    H137140   5.346   1.755  10.406
 4387TIP3    H237141   5.451   1.693  10.494
 4388TIP3   OH237142   4.092   0.125  10.345
 4388TIP3    H137143   4.074   0.110  10.249
 4388TIP3    H237144   4.070   0.036  10.381
 4389TIP3   OH237145   3.999   1.492   9.975
 4389TIP3    H137146   3.914   1.537   9.968
 4389TIP3    H237147   4.046   1.536   9.903
 4390TIP3   OH237148   4.801   1.602   9.398
 4390TIP3    H137149   4.734   1.536   9.427
 4390TIP3    H237150   4.874   1.541   9.382
 4391TIP3   OH237151   5.258   1.574   9.419
 4391TIP3    H137152   5.285   1.498   9.474
 4391TIP3    H237153   5.336   1.595   9.367
 4392TIP3   OH237154   4.344   1.167   9.401
 4392TIP3    H137155   4.359   1.093   9.462
 4392TIP3    H237156   4.422   1.157   9.344
 4393TIP3   OH237157   4.888   1.280   9.379
 4393TIP3    H137158   4.865   1.289   9.473
 4393TIP3    H237159   4.871   1.184   9.367
 4394TIP3   OH237160   5.151   1.118  10.865
 4394TIP3    H137161   5.230   1.175  10.870
 4394TIP3    H237162   5.083   1.185  10.884
 4395TIP3   OH237163   4.468   0.969   9.648
 4395TIP3    H137164   4.415   0.916   9.710
 4395TIP3    H237165   4.497   0.902   9.582
 4396TIP3   OH237166   4.394   0.766  10.864
 4396TIP3    H137167   4.329   0.831  10.893
 4396TIP3    H237168   4.432   0.802  10.782
 4397TIP3   OH237169   4.574   0.791   9.466
 4397TIP3    H137170   4.559   0.785   9.369
 4397TIP3    H237171   4.672   0.797   9.473
 4398TIP3   OH237172   5.506   1.024   9.407
 4398TIP3    H137173   5.488   0.988   9.319
 4398TIP3    H237174   5.516   1.121   9.389
 4399TIP3   OH237175   4.402   0.533  10.952
 4399TIP3    H137176   4.453   0.461  10.914
 4399TIP3    H237177   4.433   0.609  10.898
 4400TIP3   OH237178   4.473   0.324  10.736
 4400TIP3    H137179   4.525   0.374  10.669
 4400TIP3    H237180   4.384   0.317  10.694
 4401TIP3   OH237181   4.629   0.870  10.757
 4401TIP3    H137182   4.706   0.860  10.700
 4401TIP3    H237183   4.592   0.956  10.729
 4402TIP3   OH237184   4.559   0.084  10.784
 4402TIP3    H137185   4.539   0.180  10.776
 4402TIP3    H237186   4.482   0.043  10.742
 4403TIP3   OH237187   4.559   1.864   9.577
 4403TIP3    H137188   4.656   1.869   9.580
 4403TIP3    H237189   4.544   1.921   9.500
 4404TIP3   OH237190   3.912   1.319   9.522
 4404TIP3    H137191   4.009   1.329   9.539
 4404TIP3    H237192   3.918   1.256   9.446
 4405TIP3   OH237193   3.792   1.859  10.017
 4405TIP3    H137194   3.719   1.810   9.972
 4405TIP3    H237195   3.819   1.794  10.084
 4406TIP3   OH237196   3.873   1.672  10.205
 4406TIP3    H137197   3.838   1.584  10.226
 4406TIP3    H237198   3.896   1.704  10.294
 4407TIP3   OH237199   5.628   1.750  10.500
 4407TIP3    H137200   5.632   1.766  10.596
 4407TIP3    H237201   5.697   1.809  10.468
 4408TIP3   OH237202   5.587   1.712  10.790
 4408TIP3    H137203   5.538   1.636  10.753
 4408TIP3    H237204   5.635   1.670  10.861
 4409TIP3   OH237205   5.561   1.116   9.802
 4409TIP3    H137206   5.647   1.155   9.822
 4409TIP3    H237207   5.558   1.045   9.869
 4410TIP3   OH237208   5.595   0.923   9.992
 4410TIP3    H137209   5.520   0.874  10.031
 4410TIP3    H237210   5.655   0.937  10.068
 4411TIP3   OH237211   5.571   1.193  10.490
 4411TIP3    H137212   5.653   1.154  10.452
 4411TIP3    H237213   5.586   1.288  10.471
 4412TIP3   OH237214   5.425   1.485  10.718
 4412TIP3    H137215   5.357   1.516  10.779
 4412TIP3    H237216   5.372   1.443  10.646
 4413TIP3   OH237217   5.628   0.905   9.631
 4413TIP3    H137218   5.570   0.938   9.558
 4413TIP3    H237219   5.616   0.977   9.696
 4414TIP3   OH237220   5.465   0.630   9.481
 4414TIP3    H137221   5.472   0.696   9.411
 4414TIP3    H237222   5.444   0.547   9.432
 4415TIP3   OH237223   5.376   0.771  10.049
 4415TIP3    H137224   5.365   0.675  10.046
 4415TIP3    H237225   5.348   0.792  10.140
 4416TIP3   OH237226   3.880   0.983  10.454
 4416TIP3    H137227   3.897   0.970  10.358
 4416TIP3    H237228   3.969   0.960  10.489
 4417TIP3   OH237229   5.387   0.380   9.400
 4417TIP3    H137230   5.449   0.333   9.459
 4417TIP3    H237231   5.303   0.332   9.410
 4418TIP3   OH237232   5.341   0.531   9.890
 4418TIP3    H137233   5.376   0.440   9.905
 4418TIP3    H237234   5.423   0.573   9.860
 4419TIP3   OH237235   5.410   0.585  10.436
 4419TIP3    H137236   5.506   0.606  10.437
 4419TIP3    H237237   5.391   0.594  10.531
 4420TIP3   OH237238   5.415   0.660  10.714
 4420TIP3    H137239   5.327   0.686  10.748
 4420TIP3    H237240   5.459   0.746  10.694
 4421TIP3   OH237241   5.403   0.263   9.900
 4421TIP3    H137242   5.434   0.217   9.982
 4421TIP3    H237243   5.354   0.192   9.854
 4422TIP3   OH237244   3.952   0.344  10.360
 4422TIP3    H137245   4.002   0.262  10.379
 4422TIP3    H237246   4.015   0.412  10.389
 4423TIP3   OH237247   3.783   0.639  10.462
 4423TIP3    H137248   3.843   0.612  10.387
 4423TIP3    H237249   3.835   0.717  10.485
 4424TIP3   OH237250   5.597   0.260   9.561
 4424TIP3    H137251   5.633   0.190   9.501
 4424TIP3    H237252   5.666   0.328   9.559
 4425TIP3   OH237253   3.824   0.259   9.865
 4425TIP3    H137254   3.731   0.285   9.851
 4425TIP3    H237255   3.869   0.311   9.796
 4426TIP3   OH237256   5.302   1.761  10.063
 4426TIP3    H137257   5.367   1.729   9.999
 4426TIP3    H237258   5.353   1.811  10.127
 4427TIP3   OH237259   3.828   0.149  10.700
 4427TIP3    H137260   3.760   0.119  10.761
 4427TIP3    H237261   3.778   0.206  10.638
 4428TIP3   OH237262   4.332   1.549  10.736
 4428TIP3    H137263   4.300   1.636  10.708
 4428TIP3    H237264   4.426   1.558  10.711
 4429TIP3   OH237265   4.991   1.831  -0.032
 4429TIP3    H137266   5.063   1.768  -0.054
 4429TIP3    H237267   5.032   1.861   0.051
 4430TIP3   OH237268   5.486   0.104  10.865
 4430TIP3    H137269   5.396   0.122  10.837
 4430TIP3    H237270   5.488   0.008  10.855
 4431TIP3   OH237271   4.074   1.874  10.741
 4431TIP3    H137272   4.001   1.925  10.702
 4431TIP3    H237273   4.042   1.854  10.830
 4432TIP3   OH237274   4.322   1.830  10.637
 4432TIP3    H137275   4.238   1.849  10.685
 4432TIP3    H237276   4.317   1.895  10.565
 4433TIP3   OH237277   4.792   1.823  10.569
 4433TIP3    H137278   4.749   1.878  10.501
 4433TIP3    H237279   4.807   1.889  10.640
 4434TIP3   OH237280   5.023   1.699  10.656
 4434TIP3    H137281   4.936   1.733  10.628
 4434TIP3    H237282   5.070   1.784  10.657
 4435TIP3   OH237283   5.290   1.863  10.686
 4435TIP3    H137284   5.276   1.958  10.663
 4435TIP3    H237285   5.305   1.824  10.598
 4436TIP3   OH237286   4.024   1.739  10.433
 4436TIP3    H137287   4.016   1.693  10.519
 4436TIP3    H237288   4.105   1.700  10.395
 4437TIP3   OH237289   4.232   1.610  10.298
 4437TIP3    H137290   4.215   1.517  10.322
 4437TIP3    H237291   4.318   1.626  10.343
 4438TIP3   OH237292   4.492   1.659  10.384
 4438TIP3    H137293   4.507   1.566  10.359
 4438TIP3    H237294   4.496   1.654  10.481
 4439TIP3   OH237295   4.834   0.231  10.286
 4439TIP3    H137296   4.772   0.168  10.328
 4439TIP3    H237297   4.897   0.168  10.250
 4440TIP3   OH237298   5.354   0.059  10.324
 4440TIP3    H137299   5.413   0.093  10.253
 4440TIP3    H237300   5.266   0.061  10.283
 4441TIP3   OH237301   5.519   0.160  10.131
 4441TIP3    H137302   5.582   0.097  10.093
 4441TIP3    H237303   5.571   0.242  10.145
 4442TIP3   OH237304   4.068   0.083  10.085
 4442TIP3    H137305   3.991   0.070  10.028
 4442TIP3    H237306   4.117   0.000  10.075
 4443TIP3   OH237307   3.976   0.105   9.669
 4443TIP3    H137308   3.997   0.157   9.590
 4443TIP3    H237309   3.889   0.137   9.698
 4444TIP3   OH237310   4.515   0.093  10.063
 4444TIP3    H137311   4.608   0.113  10.055
 4444TIP3    H237312   4.519   0.059  10.153
 4445TIP3   OH237313   5.084   0.087  10.226
 4445TIP3    H137314   5.090   0.084  10.130
 4445TIP3    H237315   5.058  -0.006  10.242
 4446TIP3   OH237316   5.202   0.101   9.765
 4446TIP3    H137317   5.125   0.157   9.772
 4446TIP3    H237318   5.178   0.017   9.808
 4447TIP3   OH237319   3.941   1.656   9.761
 4447TIP3    H137320   3.876   1.654   9.688
 4447TIP3    H237321   3.941   1.752   9.777
 4448TIP3   OH237322   4.130   0.260   9.505
 4448TIP3    H137323   4.183   0.198   9.452
 4448TIP3    H237324   4.196   0.284   9.573
 4449TIP3   OH237325   4.638   0.284   9.748
 4449TIP3    H137326   4.658   0.222   9.819
 4449TIP3    H237327   4.639   0.370   9.795
 4450TIP3   OH237328   4.828   1.794   9.589
 4450TIP3    H137329   4.922   1.807   9.572
 4450TIP3    H237330   4.808   1.733   9.515
 4451TIP3   OH237331   5.507   1.735   9.862
 4451TIP3    H137332   5.475   1.657   9.810
 4451TIP3    H237333   5.486   1.810   9.802
 4452TIP3   OH237334   4.120   1.756   9.454
 4452TIP3    H137335   4.094   1.781   9.544
 4452TIP3    H237336   4.199   1.699   9.469
 4453TIP3   OH237337   6.869   1.001  10.068
 4453TIP3    H137338   6.865   1.099  10.068
 4453TIP3    H237339   6.794   0.977  10.010
 4454TIP3   OH237340   6.752   0.925  10.420
 4454TIP3    H137341   6.751   0.860  10.492
 4454TIP3    H237342   6.717   0.874  10.345
 4455TIP3   OH237343   5.989   0.893  10.574
 4455TIP3    H137344   5.997   0.824  10.643
 4455TIP3    H237345   6.063   0.951  10.597
 4456TIP3   OH237346   7.118   1.222  10.247
 4456TIP3    H137347   7.083   1.149  10.299
 4456TIP3    H237348   7.127   1.290  10.316
 4457TIP3   OH237349   6.080   1.339  10.423
 4457TIP3    H137350   6.051   1.250  10.393
 4457TIP3    H237351   6.176   1.321  10.432
 4458TIP3   OH237352   5.744   0.693   9.975
 4458TIP3    H137353   5.702   0.781   9.968
 4458TIP3    H237354   5.689   0.640   9.916
 4459TIP3   OH237355   5.816   0.918  10.190
 4459TIP3    H137356   5.844   0.835  10.234
 4459TIP3    H237357   5.885   0.928  10.122
 4460TIP3   OH237358   6.832   1.736  10.273
 4460TIP3    H137359   6.898   1.669  10.243
 4460TIP3    H237360   6.813   1.701  10.361
 4461TIP3   OH237361   6.589   1.165  10.472
 4461TIP3    H137362   6.623   1.105  10.404
 4461TIP3    H237363   6.673   1.182  10.520
 4462TIP3   OH237364   7.456   0.329  10.544
 4462TIP3    H137365   7.469   0.395  10.615
 4462TIP3    H237366   7.508   0.373  10.475
 4463TIP3   OH237367   6.904   0.610  10.502
 4463TIP3    H137368   6.925   0.514  10.501
 4463TIP3    H237369   6.896   0.626  10.406
 4464TIP3   OH237370   6.220   0.423  10.220
 4464TIP3    H137371   6.231   0.507  10.170
 4464TIP3    H237372   6.179   0.365  10.152
 4465TIP3   OH237373   6.992   0.429  10.058
 4465TIP3    H137374   7.056   0.399  10.125
 4465TIP3    H237375   7.049   0.487  10.005
 4466TIP3   OH237376   5.879   0.664  10.293
 4466TIP3    H137377   5.946   0.610  10.339
 4466TIP3    H237378   5.892   0.632  10.202
 4467TIP3   OH237379   6.396   0.818  10.227
 4467TIP3    H137380   6.464   0.760  10.265
 4467TIP3    H237381   6.345   0.753  10.175
 4468TIP3   OH237382   7.511   0.489  10.769
 4468TIP3    H137383   7.431   0.546  10.754
 4468TIP3    H237384   7.494   0.459  10.858
 4469TIP3   OH237385   6.112   0.313  10.619
 4469TIP3    H137386   6.082   0.374  10.549
 4469TIP3    H237387   6.044   0.333  10.688
 4470TIP3   OH237388   6.837   1.259   9.979
 4470TIP3    H137389   6.812   1.232   9.889
 4470TIP3    H237390   6.808   1.352   9.984
 4471TIP3   OH237391   6.360   1.076  10.652
 4471TIP3    H137392   6.290   1.142  10.670
 4471TIP3    H237393   6.430   1.135  10.618
 4472TIP3   OH237394   7.173   0.369  10.259
 4472TIP3    H137395   7.150   0.290  10.310
 4472TIP3    H237396   7.243   0.408  10.312
 4473TIP3   OH237397   6.064   0.503  10.423
 4473TIP3    H137398   6.129   0.567  10.458
 4473TIP3    H237399   6.118   0.458  10.352
 4474TIP3   OH237400   6.207   1.278  10.730
 4474TIP3    H137401   6.200   1.371  10.701
 4474TIP3    H237402   6.120   1.268  10.775
 4475TIP3   OH237403   5.818   1.238   9.807
 4475TIP3    H137404   5.786   1.271   9.723
 4475TIP3    H237405   5.818   1.318   9.864
 4476TIP3   OH237406   7.173   1.406  10.486
 4476TIP3    H137407   7.076   1.417  10.496
 4476TIP3    H237408   7.200   1.497  10.465
 4477TIP3   OH237409   7.208   0.243  10.639
 4477TIP3    H137410   7.132   0.296  10.611
 4477TIP3    H237411   7.275   0.268  10.573
 4478TIP3   OH237412   6.495   0.055  10.336
 4478TIP3    H137413   6.505  -0.035  10.371
 4478TIP3    H237414   6.423   0.083  10.395
 4479TIP3   OH237415   7.000   1.583  10.143
 4479TIP3    H137416   7.043   1.511  10.093
 4479TIP3    H237417   7.046   1.661  10.105
 4480TIP3   OH237418   7.123   1.375   9.996
 4480TIP3    H137419   7.092   1.306   9.936
 4480TIP3    H237420   7.125   1.326  10.080
 4481TIP3   OH237421   7.288   1.232  10.843
 4481TIP3    H137422   7.300   1.173  10.766
 4481TIP3    H237423   7.310   1.319  10.804
 4482TIP3   OH237424   6.733   0.922   9.821
 4482TIP3    H137425   6.665   0.981   9.785
 4482TIP3    H237426   6.805   0.934   9.756
 4483TIP3   OH237427   6.742   0.782   9.522
 4483TIP3    H137428   6.812   0.780   9.589
 4483TIP3    H237429   6.772   0.709   9.466
 4484TIP3   OH237430   7.472   0.866  10.651
 4484TIP3    H137431   7.408   0.940  10.656
 4484TIP3    H237432   7.521   0.890  10.569
 4485TIP3   OH237433   7.079   0.942   9.913
 4485TIP3    H137434   7.005   0.969   9.973
 4485TIP3    H237435   7.128   0.878   9.967
 4486TIP3   OH237436   7.068   0.758  10.826
 4486TIP3    H137437   7.072   0.840  10.876
 4486TIP3    H237438   7.007   0.789  10.755
 4487TIP3   OH237439   6.239   1.011  10.105
 4487TIP3    H137440   6.207   0.972  10.020
 4487TIP3    H237441   6.301   0.942  10.139
 4488TIP3   OH237442   6.371   1.348  10.373
 4488TIP3    H137443   6.371   1.297  10.291
 4488TIP3    H237444   6.450   1.313  10.418
 4489TIP3   OH237445   6.272   0.887  10.471
 4489TIP3    H137446   6.326   0.896  10.391
 4489TIP3    H237447   6.312   0.951  10.534
 4490TIP3   OH237448   6.914   1.444  10.543
 4490TIP3    H137449   6.884   1.510  10.605
 4490TIP3    H237450   6.890   1.358  10.586
 4491TIP3   OH237451   6.380   1.350  10.931
 4491TIP3    H137452   6.332   1.403  10.997
 4491TIP3    H237453   6.306   1.317  10.876
 4492TIP3   OH237454   6.966   0.866   9.679
 4492TIP3    H137455   7.022   0.883   9.760
 4492TIP3    H237456   7.012   0.915   9.608
 4493TIP3   OH237457   6.060   0.944  10.862
 4493TIP3    H137458   6.066   1.011  10.932
 4493TIP3    H237459   5.969   0.953  10.833
 4494TIP3   OH237460   6.737   1.538  10.027
 4494TIP3    H137461   6.780   1.568  10.108
 4494TIP3    H237462   6.682   1.613  10.003
 4495TIP3   OH237463   7.341   0.046   9.681
 4495TIP3    H137464   7.244   0.052   9.689
 4495TIP3    H237465   7.362   0.122   9.622
 4496TIP3   OH237466   6.135   0.912   9.869
 4496TIP3    H137467   6.107   0.990   9.817
 4496TIP3    H237468   6.071   0.845   9.843
 4497TIP3   OH237469   7.451   1.473   9.507
 4497TIP3    H137470   7.467   1.567   9.523
 4497TIP3    H237471   7.543   1.441   9.506
 4498TIP3   OH237472   5.749   1.156  10.752
 4498TIP3    H137473   5.700   1.149  10.668
 4498TIP3    H237474   5.751   1.062  10.780
 4499TIP3   OH237475   5.722   1.431  10.434
 4499TIP3    H137476   5.817   1.417  10.433
 4499TIP3    H237477   5.714   1.510  10.488
 4500TIP3   OH237478   6.630   1.425  10.869
 4500TIP3    H137479   6.640   1.517  10.901
 4500TIP3    H237480   6.541   1.401  10.904
 4501TIP3   OH237481   6.686   1.828   9.868
 4501TIP3    H137482   6.674   1.821   9.771
 4501TIP3    H237483   6.686   1.924   9.884
 4502TIP3   OH237484   6.049   1.715  10.051
 4502TIP3    H137485   6.065   1.676  10.141
 4502TIP3    H237486   5.962   1.676  10.032
 4503TIP3   OH237487   6.991   1.750   9.567
 4503TIP3    H137488   7.037   1.674   9.524
 4503TIP3    H237489   6.995   1.724   9.661
 4504TIP3   OH237490   6.960   1.743   9.844
 4504TIP3    H137491   6.864   1.751   9.861
 4504TIP3    H237492   6.983   1.669   9.902
 4505TIP3   OH237493   5.973   1.286  10.849
 4505TIP3    H137494   5.994   1.250  10.935
 4505TIP3    H237495   5.884   1.249  10.828
 4506TIP3   OH237496   6.244   0.140  10.439
 4506TIP3    H137497   6.155   0.136  10.400
 4506TIP3    H237498   6.230   0.216  10.498
 4507TIP3   OH237499   6.706   0.114  10.791
 4507TIP3    H137500   6.742   0.059  10.861
 4507TIP3    H237501   6.611   0.093  10.800
 4508TIP3   OH237502   7.019   0.479  10.870
 4508TIP3    H137503   6.982   0.471  10.958
 4508TIP3    H237504   7.021   0.574  10.848
 4509TIP3   OH237505   7.112   0.969   9.465
 4509TIP3    H137506   7.108   0.951   9.368
 4509TIP3    H237507   7.197   1.014   9.468
 4510TIP3   OH237508   6.671   0.362   9.514
 4510TIP3    H137509   6.639   0.353   9.605
 4510TIP3    H237510   6.638   0.276   9.481
 4511TIP3   OH237511   6.250   0.634  10.571
 4511TIP3    H137512   6.177   0.633  10.637
 4511TIP3    H237513   6.245   0.724  10.533
 4512TIP3   OH237514   6.249   0.643  10.059
 4512TIP3    H137515   6.155   0.619  10.045
 4512TIP3    H237516   6.286   0.615   9.972
 4513TIP3   OH237517   6.801   0.696   9.935
 4513TIP3    H137518   6.762   0.778   9.897
 4513TIP3    H237519   6.870   0.677   9.869
 4514TIP3   OH237520   6.904   0.645  10.220
 4514TIP3    H137521   6.875   0.701  10.146
 4514TIP3    H237522   6.913   0.559  10.173
 4515TIP3   OH237523   6.011   0.662  10.742
 4515TIP3    H137524   6.022   0.698  10.832
 4515TIP3    H237525   5.974   0.574  10.761
 4516TIP3   OH237526   6.350   0.401   9.426
 4516TIP3    H137527   6.305   0.355   9.501
 4516TIP3    H237528   6.278   0.441   9.376
 4517TIP3   OH237529   5.682   0.375  10.138
 4517TIP3    H137530   5.749   0.370  10.209
 4517TIP3    H237531   5.725   0.334  10.062
 4518TIP3   OH237532   5.806   0.444   9.676
 4518TIP3    H137533   5.859   0.501   9.616
 4518TIP3    H237534   5.738   0.508   9.705
 4519TIP3   OH237535   6.828   0.800  10.681
 4519TIP3    H137536   6.863   0.734  10.618
 4519TIP3    H237537   6.774   0.746  10.742
 4520TIP3   OH237538   6.505   0.404  10.160
 4520TIP3    H137539   6.411   0.397  10.187
 4520TIP3    H237540   6.553   0.382  10.241
 4521TIP3   OH237541   5.985   0.555  10.046
 4521TIP3    H137542   5.896   0.569  10.005
 4521TIP3    H237543   6.014   0.471  10.005
 4522TIP3   OH237544   6.349   0.561   9.809
 4522TIP3    H137545   6.445   0.570   9.823
 4522TIP3    H237546   6.325   0.628   9.743
 4523TIP3   OH237547   6.947   0.326  10.481
 4523TIP3    H137548   6.877   0.327  10.549
 4523TIP3    H237549   6.899   0.293  10.404
 4524TIP3   OH237550   6.220   0.677   9.567
 4524TIP3    H137551   6.167   0.639   9.495
 4524TIP3    H237552   6.302   0.698   9.519
 4525TIP3   OH237553   6.632   0.676  10.347
 4525TIP3    H137554   6.692   0.623  10.294
 4525TIP3    H237555   6.617   0.620  10.425
 4526TIP3   OH237556   6.131   0.290   9.989
 4526TIP3    H137557   6.101   0.198   9.992
 4526TIP3    H237558   6.210   0.281   9.936
 4527TIP3   OH237559   6.495   0.507  10.589
 4527TIP3    H137560   6.414   0.562  10.594
 4527TIP3    H237561   6.552   0.544  10.659
 4528TIP3   OH237562   6.554   1.130   9.759
 4528TIP3    H137563   6.474   1.084   9.725
 4528TIP3    H237564   6.531   1.144   9.853
 4529TIP3   OH237565   7.276   1.045  10.640
 4529TIP3    H137566   7.331   1.098  10.578
 4529TIP3    H237567   7.189   1.053  10.595
 4530TIP3   OH237568   6.935   0.410   9.577
 4530TIP3    H137569   6.841   0.429   9.561
 4530TIP3    H237570   6.972   0.495   9.611
 4531TIP3   OH237571   6.710   1.158  10.880
 4531TIP3    H137572   6.666   1.114  10.954
 4531TIP3    H237573   6.674   1.249  10.883
 4532TIP3   OH237574   7.011   0.603   9.737
 4532TIP3    H137575   7.098   0.591   9.780
 4532TIP3    H237576   7.022   0.686   9.688
 4533TIP3   OH237577   6.066   1.071  10.339
 4533TIP3    H137578   6.133   1.062  10.269
 4533TIP3    H237579   6.071   0.985  10.385
 4534TIP3   OH237580   6.763   1.277   9.662
 4534TIP3    H137581   6.729   1.362   9.698
 4534TIP3    H237582   6.690   1.215   9.684
 4535TIP3   OH237583   5.762   0.913  10.865
 4535TIP3    H137584   5.782   0.868  10.949
 4535TIP3    H237585   5.703   0.850  10.819
 4536TIP3   OH237586   6.929   1.395  10.882
 4536TIP3    H137587   6.840   1.418  10.851
 4536TIP3    H237588   6.935   1.430  10.971
 4537TIP3   OH237589   7.497   0.620   9.718
 4537TIP3    H137590   7.445   0.589   9.642
 4537TIP3    H237591   7.508   0.714   9.691
 4538TIP3   OH237592   7.326   1.500   9.755
 4538TIP3    H137593   7.293   1.417   9.791
 4538TIP3    H237594   7.362   1.478   9.668
 4539TIP3   OH237595   7.050   0.981  10.468
 4539TIP3    H137596   6.956   0.961  10.455
 4539TIP3    H237597   7.094   0.908  10.422
 4540TIP3   OH237598   6.304   1.416  10.078
 4540TIP3    H137599   6.353   1.497  10.057
 4540TIP3    H237600   6.216   1.438  10.047
 4541TIP3   OH237601   5.880   0.899   9.534
 4541TIP3    H137602   5.937   0.966   9.576
 4541TIP3    H237603   5.790   0.930   9.559
 4542TIP3   OH237604   6.443   1.182  10.027
 4542TIP3    H137605   6.411   1.274  10.038
 4542TIP3    H237606   6.373   1.132  10.073
 4543TIP3   OH237607   6.488   1.603  10.672
 4543TIP3    H137608   6.536   1.682  10.643
 4543TIP3    H237609   6.550   1.562  10.733
 4544TIP3   OH237610   6.311   1.681   9.978
 4544TIP3    H137611   6.216   1.694   9.998
 4544TIP3    H237612   6.349   1.763  10.014
 4545TIP3   OH237613   6.842   1.200  10.628
 4545TIP3    H137614   6.810   1.182  10.719
 4545TIP3    H237615   6.906   1.128  10.615
 4546TIP3   OH237616   7.077   1.309   9.541
 4546TIP3    H137617   7.106   1.261   9.621
 4546TIP3    H237618   6.981   1.290   9.548
 4547TIP3   OH237619   7.099   1.684  10.859
 4547TIP3    H137620   7.053   1.616  10.809
 4547TIP3    H237621   7.140   1.740  10.789
 4548TIP3   OH237622   7.521   1.743   9.566
 4548TIP3    H137623   7.591   1.810   9.548
 4548TIP3    H237624   7.449   1.803   9.596
 4549TIP3   OH237625   5.929   0.389  10.818
 4549TIP3    H137626   5.837   0.419  10.814
 4549TIP3    H237627   5.923   0.303  10.860
 4550TIP3   OH237628   7.153   1.171   9.765
 4550TIP3    H137629   7.129   1.092   9.818
 4550TIP3    H237630   7.248   1.175   9.782
 4551TIP3   OH237631   5.893   1.562  10.661
 4551TIP3    H137632   5.922   1.469  10.663
 4551TIP3    H237633   5.920   1.591  10.750
 4552TIP3   OH237634   6.490   1.415   9.391
 4552TIP3    H137635   6.498   1.339   9.331
 4552TIP3    H237636   6.445   1.371   9.466
 4553TIP3   OH237637   6.360   1.368   9.638
 4553TIP3    H137638   6.396   1.315   9.711
 4553TIP3    H237639   6.378   1.460   9.669
 4554TIP3   OH237640   6.018   1.093   9.680
 4554TIP3    H137641   5.949   1.131   9.739
 4554TIP3    H237642   6.073   1.169   9.656
 4555TIP3   OH237643   6.798   0.359  10.711
 4555TIP3    H137644   6.871   0.362  10.773
 4555TIP3    H237645   6.762   0.270  10.726
 4556TIP3   OH237646   6.886   0.312   9.827
 4556TIP3    H137647   6.899   0.363   9.745
 4556TIP3    H237648   6.933   0.368   9.890
 4557TIP3   OH237649   6.645   1.534   9.704
 4557TIP3    H137650   6.564   1.587   9.713
 4557TIP3    H237651   6.700   1.589   9.647
 4558TIP3   OH237652   6.601   0.492   9.908
 4558TIP3    H137653   6.678   0.552   9.913
 4558TIP3    H237654   6.572   0.481  10.000
 4559TIP3   OH237655   6.668   0.605  10.819
 4559TIP3    H137656   6.661   0.651  10.903
 4559TIP3    H237657   6.714   0.521  10.836
 4560TIP3   OH237658   6.688   0.199  10.000
 4560TIP3    H137659   6.652   0.268  10.059
 4560TIP3    H237660   6.754   0.254   9.951
 4561TIP3   OH237661   6.382   1.637   9.707
 4561TIP3    H137662   6.398   1.719   9.654
 4561TIP3    H237663   6.361   1.674   9.796
 4562TIP3   OH237664   6.248   0.309   9.663
 4562TIP3    H137665   6.244   0.397   9.703
 4562TIP3    H237666   6.339   0.285   9.690
 4563TIP3   OH237667   7.278   0.416  10.860
 4563TIP3    H137668   7.181   0.416  10.865
 4563TIP3    H237669   7.296   0.368  10.776
 4564TIP3   OH237670   7.135   0.761  10.310
 4564TIP3    H137671   7.052   0.716  10.283
 4564TIP3    H237672   7.183   0.692  10.363
 4565TIP3   OH237673   6.072   1.365   9.565
 4565TIP3    H137674   6.149   1.409   9.604
 4565TIP3    H237675   6.123   1.305   9.504
 4566TIP3   OH237676   5.908   0.621   9.485
 4566TIP3    H137677   5.911   0.717   9.506
 4566TIP3    H237678   5.819   0.605   9.453
 4567TIP3   OH237679   7.241   1.687  10.477
 4567TIP3    H137680   7.232   1.756  10.408
 4567TIP3    H237681   7.337   1.694  10.494
 4568TIP3   OH237682   5.977   0.125  10.345
 4568TIP3    H137683   5.960   0.109  10.249
 4568TIP3    H237684   5.956   0.036  10.381
 4569TIP3   OH237685   5.882   1.489   9.970
 4569TIP3    H137686   5.799   1.538   9.970
 4569TIP3    H237687   5.935   1.539   9.907
 4570TIP3   OH237688   6.689   1.600   9.403
 4570TIP3    H137689   6.619   1.534   9.424
 4570TIP3    H237690   6.760   1.540   9.378
 4571TIP3   OH237691   7.144   1.575   9.421
 4571TIP3    H137692   7.173   1.497   9.472
 4571TIP3    H237693   7.221   1.597   9.366
 4572TIP3   OH237694   6.230   1.171   9.404
 4572TIP3    H137695   6.245   1.094   9.461
 4572TIP3    H237696   6.305   1.159   9.342
 4573TIP3   OH237697   6.776   1.280   9.381
 4573TIP3    H137698   6.749   1.287   9.474
 4573TIP3    H237699   6.757   1.184   9.366
 4574TIP3   OH237700   7.035   1.118  10.870
 4574TIP3    H137701   7.116   1.174  10.870
 4574TIP3    H237702   6.968   1.187  10.882
 4575TIP3   OH237703   6.352   0.970   9.647
 4575TIP3    H137704   6.302   0.915   9.709
 4575TIP3    H237705   6.383   0.904   9.581
 4576TIP3   OH237706   6.280   0.768  10.866
 4576TIP3    H137707   6.214   0.832  10.893
 4576TIP3    H237708   6.317   0.801  10.783
 4577TIP3   OH237709   6.460   0.793   9.466
 4577TIP3    H137710   6.446   0.785   9.369
 4577TIP3    H237711   6.558   0.797   9.473
 4578TIP3   OH237712   7.391   1.024   9.407
 4578TIP3    H137713   7.373   0.988   9.319
 4578TIP3    H237714   7.401   1.120   9.389
 4579TIP3   OH237715   6.287   0.534  10.953
 4579TIP3    H137716   6.338   0.462  10.914
 4579TIP3    H237717   6.318   0.610  10.899
 4580TIP3   OH237718   6.358   0.324  10.736
 4580TIP3    H137719   6.410   0.374  10.669
 4580TIP3    H237720   6.270   0.316  10.695
 4581TIP3   OH237721   6.514   0.870  10.757
 4581TIP3    H137722   6.592   0.860  10.700
 4581TIP3    H237723   6.477   0.956  10.730
 4582TIP3   OH237724   6.445   0.084  10.784
 4582TIP3    H137725   6.424   0.180  10.776
 4582TIP3    H237726   6.368   0.043  10.741
 4583TIP3   OH237727   6.443   1.863   9.575
 4583TIP3    H137728   6.540   1.870   9.581
 4583TIP3    H237729   6.429   1.922   9.499
 4584TIP3   OH237730   5.804   1.331   9.517
 4584TIP3    H137731   5.899   1.320   9.539
 4584TIP3    H237732   5.799   1.259   9.448
 4585TIP3   OH237733   5.679   1.856  10.015
 4585TIP3    H137734   5.603   1.809   9.973
 4585TIP3    H237735   5.704   1.794  10.086
 4586TIP3   OH237736   5.759   1.672  10.207
 4586TIP3    H137737   5.723   1.585  10.226
 4586TIP3    H237738   5.782   1.705  10.295
 4587TIP3   OH237739   7.508   1.750  10.501
 4587TIP3    H137740   7.518   1.765  10.596
 4587TIP3    H237741   7.581   1.806  10.468
 4588TIP3   OH237742   7.472   1.713  10.791
 4588TIP3    H137743   7.424   1.637  10.754
 4588TIP3    H237744   7.523   1.670  10.861
 4589TIP3   OH237745   7.447   1.117   9.801
 4589TIP3    H137746   7.533   1.156   9.821
 4589TIP3    H237747   7.444   1.046   9.869
 4590TIP3   OH237748   7.477   0.927   9.989
 4590TIP3    H137749   7.406   0.873  10.032
 4590TIP3    H237750   7.544   0.933  10.062
 4591TIP3   OH237751   7.445   1.198  10.486
 4591TIP3    H137752   7.529   1.154  10.459
 4591TIP3    H237753   7.472   1.291  10.470
 4592TIP3   OH237754   7.311   1.485  10.718
 4592TIP3    H137755   7.243   1.516  10.778
 4592TIP3    H237756   7.260   1.442  10.646
 4593TIP3   OH237757   7.513   0.907   9.629
 4593TIP3    H137758   7.454   0.941   9.559
 4593TIP3    H237759   7.502   0.977   9.696
 4594TIP3   OH237760   7.352   0.629   9.480
 4594TIP3    H137761   7.357   0.696   9.411
 4594TIP3    H237762   7.329   0.547   9.431
 4595TIP3   OH237763   7.266   0.771  10.052
 4595TIP3    H137764   7.250   0.676  10.045
 4595TIP3    H237765   7.232   0.791  10.141
 4596TIP3   OH237766   5.765   0.981  10.454
 4596TIP3    H137767   5.782   0.971  10.358
 4596TIP3    H237768   5.854   0.961  10.490
 4597TIP3   OH237769   7.273   0.379   9.400
 4597TIP3    H137770   7.334   0.333   9.459
 4597TIP3    H237771   7.189   0.332   9.410
 4598TIP3   OH237772   7.229   0.534   9.889
 4598TIP3    H137773   7.259   0.441   9.905
 4598TIP3    H237774   7.312   0.573   9.860
 4599TIP3   OH237775   7.292   0.584  10.437
 4599TIP3    H137776   7.389   0.604  10.433
 4599TIP3    H237777   7.278   0.595  10.532
 4600TIP3   OH237778   7.303   0.661  10.717
 4600TIP3    H137779   7.213   0.686  10.745
 4600TIP3    H237780   7.345   0.747  10.694
 4601TIP3   OH237781   7.292   0.262   9.898
 4601TIP3    H137782   7.318   0.217   9.982
 4601TIP3    H237783   7.237   0.194   9.854
 4602TIP3   OH237784   5.841   0.345  10.357
 4602TIP3    H137785   5.888   0.262  10.378
 4602TIP3    H237786   5.902   0.410  10.394
 4603TIP3   OH237787   5.674   0.638  10.458
 4603TIP3    H137788   5.732   0.613  10.383
 4603TIP3    H237789   5.721   0.718  10.485
 4604TIP3   OH237790   7.482   0.260   9.560
 4604TIP3    H137791   7.518   0.190   9.501
 4604TIP3    H237792   7.550   0.328   9.559
 4605TIP3   OH237793   5.708   0.264   9.870
 4605TIP3    H137794   5.616   0.286   9.850
 4605TIP3    H237795   5.754   0.311   9.797
 4606TIP3   OH237796   7.184   1.759  10.062
 4606TIP3    H137797   7.253   1.730   9.999
 4606TIP3    H237798   7.236   1.810  10.126
 4607TIP3   OH237799   5.714   0.149  10.700
 4607TIP3    H137800   5.646   0.119  10.762
 4607TIP3    H237801   5.663   0.205  10.639
 4608TIP3   OH237802   6.218   1.550  10.736
 4608TIP3    H137803   6.185   1.636  10.708
 4608TIP3    H237804   6.312   1.558  10.711
 4609TIP3   OH237805   6.876   1.832  -0.032
 4609TIP3    H137806   6.946   1.768  -0.054
 4609TIP3    H237807   6.917   1.861   0.051
 4610TIP3   OH237808   7.373   0.104  10.865
 4610TIP3    H137809   7.282   0.122  10.837
 4610TIP3    H237810   7.373   0.008  10.855
 4611TIP3   OH237811   5.961   1.877  10.741
 4611TIP3    H137812   5.886   1.924  10.702
 4611TIP3    H237813   5.928   1.852  10.829
 4612TIP3   OH237814   6.208   1.832  10.639
 4612TIP3    H137815   6.123   1.849  10.686
 4612TIP3    H237816   6.202   1.894  10.565
 4613TIP3   OH237817   6.678   1.823  10.567
 4613TIP3    H137818   6.635   1.877  10.498
 4613TIP3    H237819   6.693   1.887  10.638
 4614TIP3   OH237820   6.908   1.699  10.656
 4614TIP3    H137821   6.822   1.733  10.628
 4614TIP3    H237822   6.955   1.783  10.657
 4615TIP3   OH237823   7.175   1.863  10.686
 4615TIP3    H137824   7.162   1.958  10.663
 4615TIP3    H237825   7.190   1.824  10.598
 4616TIP3   OH237826   5.910   1.740  10.433
 4616TIP3    H137827   5.902   1.695  10.519
 4616TIP3    H237828   5.991   1.700  10.395
 4617TIP3   OH237829   6.117   1.610  10.298
 4617TIP3    H137830   6.100   1.517  10.322
 4617TIP3    H237831   6.202   1.626  10.344
 4618TIP3   OH237832   6.377   1.660  10.384
 4618TIP3    H137833   6.391   1.567  10.359
 4618TIP3    H237834   6.381   1.655  10.481
 4619TIP3   OH237835   6.718   0.230  10.295
 4619TIP3    H137836   6.656   0.162  10.327
 4619TIP3    H237837   6.780   0.175  10.246
 4620TIP3   OH237838   7.238   0.060  10.323
 4620TIP3    H137839   7.298   0.093  10.252
 4620TIP3    H237840   7.150   0.062  10.282
 4621TIP3   OH237841   7.404   0.157  10.130
 4621TIP3    H137842   7.470   0.097  10.093
 4621TIP3    H237843   7.455   0.240  10.145
 4622TIP3   OH237844   5.954   0.084  10.084
 4622TIP3    H137845   5.876   0.069  10.028
 4622TIP3    H237846   6.002   0.001  10.075
 4623TIP3   OH237847   5.862   0.106   9.670
 4623TIP3    H137848   5.882   0.157   9.590
 4623TIP3    H237849   5.774   0.137   9.698
 4624TIP3   OH237850   6.401   0.091  10.063
 4624TIP3    H137851   6.493   0.118  10.054
 4624TIP3    H237852   6.407   0.058  10.153
 4625TIP3   OH237853   6.976   0.083  10.228
 4625TIP3    H137854   6.972   0.090  10.132
 4625TIP3    H237855   6.943  -0.007  10.240
 4626TIP3   OH237856   7.086   0.096   9.760
 4626TIP3    H137857   7.014   0.158   9.777
 4626TIP3    H237858   7.064   0.018   9.811
 4627TIP3   OH237859   5.824   1.661   9.760
 4627TIP3    H137860   5.741   1.664   9.707
 4627TIP3    H237861   5.823   1.755   9.786
 4628TIP3   OH237862   6.016   0.259   9.504
 4628TIP3    H137863   6.069   0.197   9.452
 4628TIP3    H237864   6.081   0.284   9.572
 4629TIP3   OH237865   6.517   0.284   9.748
 4629TIP3    H137866   6.546   0.224   9.819
 4629TIP3    H237867   6.528   0.369   9.794
 4630TIP3   OH237868   6.715   1.789   9.593
 4630TIP3    H137869   6.807   1.809   9.571
 4630TIP3    H237870   6.693   1.735   9.513
 4631TIP3   OH237871   7.383   1.737   9.866
 4631TIP3    H137872   7.365   1.659   9.809
 4631TIP3    H237873   7.377   1.811   9.801
 4632TIP3   OH237874   6.000   1.742   9.460
 4632TIP3    H137875   5.990   1.799   9.539
 4632TIP3    H237876   6.093   1.708   9.465
 4633TIP3   OH237877   7.884   0.930  10.643
 4633TIP3    H137878   7.890   0.831  10.642
 4633TIP3    H237879   7.965   0.950  10.595
 4634TIP3   OH237880   7.947   1.328  10.437
 4634TIP3    H137881   7.930   1.241  10.395
 4634TIP3    H237882   8.046   1.328  10.434
 4635TIP3   OH237883   7.628   0.693   9.969
 4635TIP3    H137884   7.587   0.781   9.970
 4635TIP3    H237885   7.567   0.639   9.918
 4636TIP3   OH237886   7.690   0.916  10.150
 4636TIP3    H137887   7.714   0.855  10.224
 4636TIP3    H237888   7.779   0.933  10.116
 4637TIP3   OH237889   7.752   0.571  10.257
 4637TIP3    H137890   7.815   0.602  10.327
 4637TIP3    H237891   7.786   0.631  10.189
 4638TIP3   OH237892   7.983   0.310  10.622
 4638TIP3    H137893   7.967   0.373  10.547
 4638TIP3    H237894   7.917   0.341  10.686
 4639TIP3   OH237895   7.942   0.482  10.426
 4639TIP3    H137896   7.996   0.558  10.460
 4639TIP3    H237897   7.996   0.456  10.350
 4640TIP3   OH237898   8.076   1.312  10.734
 4640TIP3    H137899   8.067   1.398  10.692
 4640TIP3    H237900   7.987   1.294  10.771
 4641TIP3   OH237901   7.705   1.238   9.809
 4641TIP3    H137902   7.674   1.270   9.723
 4641TIP3    H237903   7.706   1.321   9.861
 4642TIP3   OH237904   7.932   0.937  10.892
 4642TIP3    H137905   7.938   1.019  10.938
 4642TIP3    H237906   7.858   0.951  10.827
 4643TIP3   OH237907   8.021   0.917   9.859
 4643TIP3    H137908   7.989   0.997   9.815
 4643TIP3    H237909   7.950   0.853   9.849
 4644TIP3   OH237910   7.626   1.156  10.753
 4644TIP3    H137911   7.588   1.147  10.664
 4644TIP3    H237912   7.641   1.062  10.776
 4645TIP3   OH237913   7.608   1.432  10.435
 4645TIP3    H137914   7.703   1.418  10.432
 4645TIP3    H237915   7.602   1.512  10.487
 4646TIP3   OH237916   7.923   1.707  10.053
 4646TIP3    H137917   7.940   1.669  10.142
 4646TIP3    H237918   7.837   1.666  10.033
 4647TIP3   OH237919   7.852   1.289  10.859
 4647TIP3    H137920   7.875   1.245  10.941
 4647TIP3    H237921   7.768   1.247  10.830
 4648TIP3   OH237922   7.904   0.664  10.751
 4648TIP3    H137923   7.900   0.703  10.839
 4648TIP3    H237924   7.865   0.576  10.758
 4649TIP3   OH237925   7.563   0.366  10.138
 4649TIP3    H137926   7.630   0.377  10.208
 4649TIP3    H237927   7.615   0.336  10.062
 4650TIP3   OH237928   7.686   0.444   9.677
 4650TIP3    H137929   7.742   0.501   9.621
 4650TIP3    H237930   7.620   0.509   9.707
 4651TIP3   OH237931   7.876   0.566  10.018
 4651TIP3    H137932   7.779   0.567  10.011
 4651TIP3    H237933   7.897   0.471  10.016
 4652TIP3   OH237934   7.966   0.286   9.973
 4652TIP3    H137935   7.965   0.192  10.000
 4652TIP3    H237936   8.062   0.300   9.968
 4653TIP3   OH237937   7.948   1.074  10.331
 4653TIP3    H137938   8.023   1.062  10.272
 4653TIP3    H237939   7.945   0.988  10.379
 4654TIP3   OH237940   7.645   0.916  10.869
 4654TIP3    H137941   7.670   0.866  10.948
 4654TIP3    H237942   7.591   0.852  10.819
 4655TIP3   OH237943   7.770   0.898   9.533
 4655TIP3    H137944   7.823   0.966   9.579
 4655TIP3    H237945   7.679   0.925   9.558
 4656TIP3   OH237946   7.814   0.386  10.827
 4656TIP3    H137947   7.724   0.417  10.808
 4656TIP3    H237948   7.802   0.295  10.858
 4657TIP3   OH237949   7.786   1.565  10.658
 4657TIP3    H137950   7.797   1.469  10.666
 4657TIP3    H237951   7.802   1.594  10.749
 4658TIP3   OH237952   7.907   1.094   9.680
 4658TIP3    H137953   7.835   1.129   9.736
 4658TIP3    H237954   7.955   1.176   9.661
 4659TIP3   OH237955   7.957   1.355   9.564
 4659TIP3    H137956   8.021   1.416   9.604
 4659TIP3    H237957   8.016   1.309   9.504
 4660TIP3   OH237958   7.797   0.620   9.486
 4660TIP3    H137959   7.798   0.716   9.504
 4660TIP3    H237960   7.706   0.604   9.461
 4661TIP3   OH237961   7.855   0.128  10.343
 4661TIP3    H137962   7.853   0.109  10.247
 4661TIP3    H237963   7.842   0.039  10.381
 4662TIP3   OH237964   7.765   1.491   9.973
 4662TIP3    H137965   7.681   1.539   9.968
 4662TIP3    H237966   7.818   1.536   9.905
 4663TIP3   OH237967   7.686   1.321   9.520
 4663TIP3    H137968   7.782   1.330   9.538
 4663TIP3    H237969   7.690   1.256   9.445
 4664TIP3   OH237970   7.561   1.858  10.017
 4664TIP3    H137971   7.488   1.808   9.972
 4664TIP3    H237972   7.591   1.794  10.084
 4665TIP3   OH237973   7.643   1.671  10.205
 4665TIP3    H137974   7.608   1.583  10.226
 4665TIP3    H237975   7.670   1.703  10.293
 4666TIP3   OH237976   7.641   1.031  10.461
 4666TIP3    H137977   7.651   0.985  10.376
 4666TIP3    H237978   7.717   0.982  10.499
 4667TIP3   OH237979   7.715   0.336  10.370
 4667TIP3    H137980   7.778   0.260  10.375
 4667TIP3    H237981   7.781   0.409  10.383
 4668TIP3   OH237982   7.554   0.638  10.455
 4668TIP3    H137983   7.615   0.609  10.384
 4668TIP3    H237984   7.608   0.715  10.482
 4669TIP3   OH237985   7.592   0.255   9.862
 4669TIP3    H137986   7.501   0.286   9.852
 4669TIP3    H237987   7.639   0.313   9.799
 4670TIP3   OH237988   7.599   0.150  10.701
 4670TIP3    H137989   7.529   0.120  10.761
 4670TIP3    H237990   7.551   0.206  10.636
 4671TIP3   OH237991   7.847   1.878  10.746
 4671TIP3    H137992   7.772   1.922  10.702
 4671TIP3    H237993   7.810   1.853  10.831
 4672TIP3   OH237994   8.074   1.801  10.617
 4672TIP3    H137995   8.008   1.831  10.683
 4672TIP3    H237996   8.089   1.883  10.568
 4673TIP3   OH237997   7.785   1.739  10.436
 4673TIP3    H137998   7.789   1.695  10.523
 4673TIP3    H237999   7.868   1.704  10.396
 4674TIP3   OH238000   7.983   1.611  10.316
 4674TIP3    H138001   7.977   1.514  10.327
 4674TIP3    H238002   8.073   1.622  10.350
 4675TIP3   OH238003   7.832   0.077  10.084
 4675TIP3    H138004   7.756   0.062  10.027
 4675TIP3    H238005   7.890  -0.001  10.076
 4676TIP3   OH238006   7.747   0.106   9.671
 4676TIP3    H138007   7.765   0.159   9.591
 4676TIP3    H238008   7.658   0.136   9.700
 4677TIP3   OH238009   7.715   1.657   9.757
 4677TIP3    H138010   7.644   1.655   9.689
 4677TIP3    H238011   7.715   1.753   9.775
 4678TIP3   OH238012   7.902   0.260   9.502
 4678TIP3    H138013   7.957   0.197   9.452
 4678TIP3    H238014   7.963   0.286   9.573
 4679TIP3   OH238015   7.897   1.765   9.454
 4679TIP3    H138016   7.868   1.784   9.545
 4679TIP3    H238017   7.966   1.699   9.470
 4680TIP3   OH238018   1.212   2.887  10.068
 4680TIP3    H138019   1.207   2.986  10.069
 4680TIP3    H238020   1.138   2.863  10.010
 4681TIP3   OH238021   1.097   2.810  10.420
 4681TIP3    H138022   1.095   2.746  10.492
 4681TIP3    H238023   1.060   2.759  10.345
 4682TIP3   OH238024   0.344   2.771  10.565
 4682TIP3    H138025   0.339   2.711  10.643
 4682TIP3    H238026   0.407   2.837  10.598
 4683TIP3   OH238027   1.466   3.106  10.249
 4683TIP3    H138028   1.421   3.036  10.298
 4683TIP3    H238029   1.464   3.178  10.315
 4684TIP3   OH238030   0.419   3.222  10.424
 4684TIP3    H138031   0.393   3.132  10.395
 4684TIP3    H238032   0.517   3.209  10.429
 4685TIP3   OH238033   0.094   2.581   9.966
 4685TIP3    H138034   0.049   2.668   9.971
 4685TIP3    H238035   0.028   2.526   9.924
 4686TIP3   OH238036   0.158   2.798  10.188
 4686TIP3    H138037   0.185   2.717  10.235
 4686TIP3    H238038   0.228   2.809  10.122
 4687TIP3   OH238039   1.186   3.629  10.278
 4687TIP3    H138040   1.240   3.554  10.243
 4687TIP3    H238041   1.148   3.583  10.354
 4688TIP3   OH238042   0.930   3.043  10.476
 4688TIP3    H138043   0.967   2.994  10.401
 4688TIP3    H238044   1.014   3.072  10.518
 4689TIP3   OH238045   1.793   2.218  10.542
 4689TIP3    H138046   1.812   2.277  10.617
 4689TIP3    H238047   1.851   2.259  10.476
 4690TIP3   OH238048   1.247   2.498  10.501
 4690TIP3    H138049   1.269   2.403  10.502
 4690TIP3    H238050   1.239   2.512  10.405
 4691TIP3   OH238051   0.563   2.307  10.220
 4691TIP3    H138052   0.571   2.391  10.171
 4691TIP3    H238053   0.523   2.251  10.150
 4692TIP3   OH238054   1.336   2.313  10.057
 4692TIP3    H138055   1.400   2.283  10.125
 4692TIP3    H238056   1.392   2.373  10.006
 4693TIP3   OH238057   0.235   2.549  10.292
 4693TIP3    H138058   0.296   2.489  10.338
 4693TIP3    H238059   0.236   2.515  10.201
 4694TIP3   OH238060   0.739   2.704  10.226
 4694TIP3    H138061   0.807   2.647  10.265
 4694TIP3    H238062   0.688   2.638  10.175
 4695TIP3   OH238063   1.855   2.375  10.766
 4695TIP3    H138064   1.776   2.433  10.754
 4695TIP3    H238065   1.838   2.349  10.857
 4696TIP3   OH238066   0.458   2.196  10.620
 4696TIP3    H138067   0.424   2.257  10.550
 4696TIP3    H238068   0.390   2.214  10.690
 4697TIP3   OH238069   1.184   3.145   9.978
 4697TIP3    H138070   1.154   3.119   9.890
 4697TIP3    H238071   1.151   3.238   9.986
 4698TIP3   OH238072   0.707   2.962  10.653
 4698TIP3    H138073   0.635   3.028  10.669
 4698TIP3    H238074   0.775   3.021  10.616
 4699TIP3   OH238075   1.516   2.250  10.259
 4699TIP3    H138076   1.495   2.173  10.311
 4699TIP3    H238077   1.585   2.293  10.313
 4700TIP3   OH238078   0.412   2.379  10.427
 4700TIP3    H138079   0.471   2.453  10.458
 4700TIP3    H238080   0.464   2.343  10.351
 4701TIP3   OH238081   0.550   3.163  10.729
 4701TIP3    H138082   0.544   3.256  10.699
 4701TIP3    H238083   0.462   3.154  10.774
 4702TIP3   OH238084   0.155   3.124   9.806
 4702TIP3    H138085   0.130   3.158   9.720
 4702TIP3    H238086   0.166   3.204   9.860
 4703TIP3   OH238087   1.519   3.290  10.486
 4703TIP3    H138088   1.421   3.301  10.496
 4703TIP3    H238089   1.545   3.382  10.465
 4704TIP3   OH238090   1.547   2.122  10.628
 4704TIP3    H138091   1.474   2.184  10.613
 4704TIP3    H238092   1.620   2.159  10.573
 4705TIP3   OH238093   0.844   1.934  10.380
 4705TIP3    H138094   0.836   1.838  10.361
 4705TIP3    H238095   0.750   1.956  10.391
 4706TIP3   OH238096   1.347   3.469  10.145
 4706TIP3    H138097   1.385   3.396  10.092
 4706TIP3    H238098   1.388   3.548  10.105
 4707TIP3   OH238099   1.466   3.261   9.996
 4707TIP3    H138100   1.435   3.192   9.936
 4707TIP3    H238101   1.469   3.212  10.080
 4708TIP3   OH238102   1.630   3.118  10.843
 4708TIP3    H138103   1.642   3.059  10.766
 4708TIP3    H238104   1.651   3.206  10.806
 4709TIP3   OH238105   1.076   2.808   9.820
 4709TIP3    H138106   1.007   2.867   9.786
 4709TIP3    H238107   1.148   2.820   9.755
 4710TIP3   OH238108   1.085   2.668   9.522
 4710TIP3    H138109   1.156   2.666   9.589
 4710TIP3    H238110   1.115   2.595   9.466
 4711TIP3   OH238111   1.816   2.750  10.648
 4711TIP3    H138112   1.751   2.823  10.655
 4711TIP3    H238113   1.865   2.776  10.568
 4712TIP3   OH238114   1.423   2.829   9.913
 4712TIP3    H138115   1.349   2.854   9.973
 4712TIP3    H238116   1.471   2.763   9.966
 4713TIP3   OH238117   1.412   2.645  10.823
 4713TIP3    H138118   1.414   2.724  10.880
 4713TIP3    H238119   1.349   2.677  10.755
 4714TIP3   OH238120   0.585   2.897  10.106
 4714TIP3    H138121   0.550   2.857  10.022
 4714TIP3    H238122   0.645   2.827  10.139
 4715TIP3   OH238123   0.698   3.212  10.383
 4715TIP3    H138124   0.715   3.187  10.291
 4715TIP3    H238125   0.791   3.212  10.415
 4716TIP3   OH238126   0.618   2.770  10.471
 4716TIP3    H138127   0.671   2.782  10.390
 4716TIP3    H238128   0.653   2.838  10.533
 4717TIP3   OH238129   1.264   3.327  10.546
 4717TIP3    H138130   1.222   3.395  10.600
 4717TIP3    H238131   1.228   3.244  10.583
 4718TIP3   OH238132   0.724   3.236  10.930
 4718TIP3    H138133   0.676   3.288  10.996
 4718TIP3    H238134   0.649   3.203  10.874
 4719TIP3   OH238135   1.310   2.752   9.679
 4719TIP3    H138136   1.365   2.769   9.760
 4719TIP3    H238137   1.356   2.801   9.608
 4720TIP3   OH238138   0.404   2.827  10.865
 4720TIP3    H138139   0.407   2.899  10.929
 4720TIP3    H238140   0.312   2.837  10.834
 4721TIP3   OH238141   1.091   3.429  10.019
 4721TIP3    H138142   1.114   3.447  10.112
 4721TIP3    H238143   1.022   3.495  10.007
 4722TIP3   OH238144   1.680   1.923   9.670
 4722TIP3    H138145   1.586   1.938   9.696
 4722TIP3    H238146   1.702   2.007   9.627
 4723TIP3   OH238147   0.483   2.798   9.867
 4723TIP3    H138148   0.451   2.876   9.818
 4723TIP3    H238149   0.416   2.732   9.845
 4724TIP3   OH238150   1.793   3.359   9.506
 4724TIP3    H138151   1.811   3.453   9.523
 4724TIP3    H238152   1.885   3.327   9.507
 4725TIP3   OH238153   0.140   2.996  10.727
 4725TIP3    H138154   0.062   3.035  10.684
 4725TIP3    H238155   0.094   2.935  10.787
 4726TIP3   OH238156   0.091   3.340  10.416
 4726TIP3    H138157   0.180   3.306  10.438
 4726TIP3    H238158   0.069   3.393  10.495
 4727TIP3   OH238159   0.973   3.312  10.869
 4727TIP3    H138160   0.982   3.405  10.898
 4727TIP3    H238161   0.885   3.287  10.904
 4728TIP3   OH238162   1.030   3.714   9.866
 4728TIP3    H138163   1.018   3.707   9.770
 4728TIP3    H238164   1.029   3.810   9.883
 4729TIP3   OH238165   0.398   3.599  10.048
 4729TIP3    H138166   0.407   3.562  10.139
 4729TIP3    H238167   0.311   3.560  10.026
 4730TIP3   OH238168   1.334   3.635   9.567
 4730TIP3    H138169   1.379   3.559   9.525
 4730TIP3    H238170   1.338   3.610   9.662
 4731TIP3   OH238171   1.303   3.629   9.846
 4731TIP3    H138172   1.207   3.635   9.863
 4731TIP3    H238173   1.325   3.554   9.904
 4732TIP3   OH238174   0.316   3.176  10.850
 4732TIP3    H138175   0.335   3.136  10.936
 4732TIP3    H238176   0.232   3.135  10.824
 4733TIP3   OH238177   0.589   2.029  10.447
 4733TIP3    H138178   0.500   2.007  10.408
 4733TIP3    H238179   0.560   2.109  10.493
 4734TIP3   OH238180   1.045   1.995  10.782
 4734TIP3    H138181   1.090   1.950  10.857
 4734TIP3    H238182   0.951   1.973  10.804
 4735TIP3   OH238183   1.356   2.369  10.866
 4735TIP3    H138184   1.331   2.356  10.959
 4735TIP3    H238185   1.364   2.466  10.852
 4736TIP3   OH238186   1.454   2.855   9.464
 4736TIP3    H138187   1.451   2.836   9.368
 4736TIP3    H238188   1.540   2.899   9.467
 4737TIP3   OH238189   1.015   2.246   9.513
 4737TIP3    H138190   0.981   2.240   9.605
 4737TIP3    H238191   0.982   2.159   9.482
 4738TIP3   OH238192   0.595   2.519  10.571
 4738TIP3    H138193   0.522   2.520  10.637
 4738TIP3    H238194   0.587   2.610  10.533
 4739TIP3   OH238195   0.593   2.529  10.059
 4739TIP3    H138196   0.498   2.507  10.046
 4739TIP3    H238197   0.628   2.501   9.972
 4740TIP3   OH238198   1.143   2.580   9.936
 4740TIP3    H138199   1.104   2.662   9.898
 4740TIP3    H238200   1.212   2.563   9.869
 4741TIP3   OH238201   1.247   2.530  10.220
 4741TIP3    H138202   1.218   2.586  10.146
 4741TIP3    H238203   1.256   2.445  10.173
 4742TIP3   OH238204   0.354   2.546  10.742
 4742TIP3    H138205   0.362   2.585  10.831
 4742TIP3    H238206   0.313   2.461  10.761
 4743TIP3   OH238207   0.694   2.284   9.425
 4743TIP3    H138208   0.649   2.240   9.500
 4743TIP3    H238209   0.622   2.326   9.376
 4744TIP3   OH238210   0.052   2.285  10.146
 4744TIP3    H138211   0.104   2.250  10.222
 4744TIP3    H238212   0.064   2.219  10.080
 4745TIP3   OH238213   0.152   2.337   9.677
 4745TIP3    H138214   0.203   2.390   9.612
 4745TIP3    H238215   0.082   2.396   9.702
 4746TIP3   OH238216   1.171   2.686  10.682
 4746TIP3    H138217   1.206   2.620  10.619
 4746TIP3    H238218   1.117   2.631  10.742
 4747TIP3   OH238219   0.845   2.283  10.161
 4747TIP3    H138220   0.750   2.287  10.188
 4747TIP3    H238221   0.895   2.270  10.243
 4748TIP3   OH238222   0.332   2.438  10.045
 4748TIP3    H138223   0.243   2.458  10.009
 4748TIP3    H238224   0.353   2.353  10.004
 4749TIP3   OH238225   0.692   2.446   9.809
 4749TIP3    H138226   0.787   2.456   9.824
 4749TIP3    H238227   0.668   2.514   9.743
 4750TIP3   OH238228   1.288   2.206  10.486
 4750TIP3    H138229   1.218   2.216  10.554
 4750TIP3    H238230   1.240   2.184  10.405
 4751TIP3   OH238231   0.562   2.563   9.566
 4751TIP3    H138232   0.509   2.525   9.494
 4751TIP3    H238233   0.645   2.584   9.519
 4752TIP3   OH238234   0.973   2.559  10.346
 4752TIP3    H138235   1.036   2.510  10.294
 4752TIP3    H238236   0.963   2.506  10.426
 4753TIP3   OH238237   0.479   2.176   9.992
 4753TIP3    H138238   0.443   2.085   9.992
 4753TIP3    H238239   0.557   2.167   9.937
 4754TIP3   OH238240   0.834   2.385  10.594
 4754TIP3    H138241   0.758   2.447  10.592
 4754TIP3    H238242   0.895   2.431  10.656
 4755TIP3   OH238243   0.898   3.016   9.759
 4755TIP3    H138244   0.818   2.970   9.725
 4755TIP3    H238245   0.874   3.029   9.853
 4756TIP3   OH238246   1.619   2.930  10.640
 4756TIP3    H138247   1.673   2.984  10.578
 4756TIP3    H238248   1.532   2.938  10.595
 4757TIP3   OH238249   1.281   2.298   9.575
 4757TIP3    H138250   1.185   2.312   9.563
 4757TIP3    H238251   1.315   2.382   9.612
 4758TIP3   OH238252   1.047   3.044  10.874
 4758TIP3    H138253   1.014   3.001  10.954
 4758TIP3    H238254   1.017   3.135  10.885
 4759TIP3   OH238255   1.354   2.490   9.738
 4759TIP3    H138256   1.442   2.476   9.780
 4759TIP3    H238257   1.365   2.572   9.687
 4760TIP3   OH238258   0.407   2.956  10.339
 4760TIP3    H138259   0.475   2.949  10.269
 4760TIP3    H238260   0.415   2.870  10.384
 4761TIP3   OH238261   1.106   3.163   9.662
 4761TIP3    H138262   1.072   3.247   9.697
 4761TIP3    H238263   1.034   3.101   9.685
 4762TIP3   OH238264   0.125   2.772  10.858
 4762TIP3    H138265   0.121   2.753  10.953
 4762TIP3    H238266   0.039   2.739  10.826
 4763TIP3   OH238267   1.273   3.286  10.879
 4763TIP3    H138268   1.182   3.303  10.850
 4763TIP3    H238269   1.277   3.311  10.971
 4764TIP3   OH238270   1.845   2.502   9.716
 4764TIP3    H138271   1.787   2.475   9.642
 4764TIP3    H238272   1.852   2.597   9.693
 4765TIP3   OH238273   1.669   3.386   9.755
 4765TIP3    H138274   1.636   3.302   9.791
 4765TIP3    H238275   1.706   3.363   9.668
 4766TIP3   OH238276   1.395   2.867  10.467
 4766TIP3    H138277   1.301   2.847  10.455
 4766TIP3    H238278   1.437   2.792  10.421
 4767TIP3   OH238279   0.646   3.299  10.074
 4767TIP3    H138280   0.698   3.380  10.062
 4767TIP3    H238281   0.558   3.326  10.045
 4768TIP3   OH238282   0.220   2.784   9.538
 4768TIP3    H138283   0.283   2.848   9.576
 4768TIP3    H238284   0.135   2.819   9.566
 4769TIP3   OH238285   0.785   3.069  10.024
 4769TIP3    H138286   0.757   3.161  10.041
 4769TIP3    H238287   0.717   3.019  10.074
 4770TIP3   OH238288   0.826   3.493  10.681
 4770TIP3    H138289   0.880   3.562  10.638
 4770TIP3    H238290   0.895   3.445  10.729
 4771TIP3   OH238291   0.656   3.567   9.977
 4771TIP3    H138292   0.560   3.578   9.998
 4771TIP3    H238293   0.693   3.648  10.016
 4772TIP3   OH238294   1.188   3.086  10.629
 4772TIP3    H138295   1.151   3.067  10.718
 4772TIP3    H238296   1.249   3.013  10.615
 4773TIP3   OH238297   1.420   3.195   9.541
 4773TIP3    H138298   1.449   3.146   9.621
 4773TIP3    H238299   1.325   3.175   9.548
 4774TIP3   OH238300   1.444   3.569  10.860
 4774TIP3    H138301   1.396   3.502  10.809
 4774TIP3    H238302   1.483   3.625  10.788
 4775TIP3   OH238303   1.865   3.629   9.567
 4775TIP3    H138304   1.933   3.695   9.545
 4775TIP3    H238305   1.793   3.689   9.595
 4776TIP3   OH238306   0.274   2.269  10.817
 4776TIP3    H138307   0.185   2.305  10.816
 4776TIP3    H238308   0.261   2.187  10.866
 4777TIP3   OH238309   1.496   3.057   9.765
 4777TIP3    H138310   1.472   2.978   9.818
 4777TIP3    H238311   1.592   3.060   9.782
 4778TIP3   OH238312   0.236   3.446  10.658
 4778TIP3    H138313   0.265   3.353  10.664
 4778TIP3    H238314   0.259   3.477  10.747
 4779TIP3   OH238315   0.830   3.303   9.388
 4779TIP3    H138316   0.842   3.224   9.332
 4779TIP3    H238317   0.786   3.260   9.465
 4780TIP3   OH238318   0.708   3.253   9.636
 4780TIP3    H138319   0.737   3.202   9.712
 4780TIP3    H238320   0.718   3.346   9.668
 4781TIP3   OH238321   0.363   2.977   9.685
 4781TIP3    H138322   0.291   3.016   9.739
 4781TIP3    H238323   0.411   3.056   9.654
 4782TIP3   OH238324   1.141   2.244  10.712
 4782TIP3    H138325   1.216   2.253  10.773
 4782TIP3    H238326   1.109   2.154  10.733
 4783TIP3   OH238327   1.223   2.200   9.825
 4783TIP3    H138328   1.242   2.250   9.743
 4783TIP3    H238329   1.276   2.250   9.889
 4784TIP3   OH238330   0.989   3.419   9.704
 4784TIP3    H138331   0.907   3.473   9.713
 4784TIP3    H238332   1.043   3.475   9.647
 4785TIP3   OH238333   0.944   2.377   9.907
 4785TIP3    H138334   1.021   2.438   9.912
 4785TIP3    H238335   0.916   2.365  10.000
 4786TIP3   OH238336   1.008   2.487  10.818
 4786TIP3    H138337   1.004   2.537  10.901
 4786TIP3    H238338   1.060   2.407  10.838
 4787TIP3   OH238339   1.028   2.082   9.992
 4787TIP3    H138340   0.995   2.148  10.055
 4787TIP3    H238341   1.097   2.139   9.950
 4788TIP3   OH238342   0.729   3.522   9.708
 4788TIP3    H138343   0.739   3.603   9.652
 4788TIP3    H238344   0.703   3.559   9.795
 4789TIP3   OH238345   0.594   2.197   9.666
 4789TIP3    H138346   0.589   2.286   9.706
 4789TIP3    H238347   0.684   2.171   9.692
 4790TIP3   OH238348   1.621   2.299  10.858
 4790TIP3    H138349   1.524   2.303  10.867
 4790TIP3    H238350   1.636   2.253  10.775
 4791TIP3   OH238351   1.478   2.646  10.310
 4791TIP3    H138352   1.396   2.602  10.284
 4791TIP3    H238353   1.527   2.578  10.363
 4792TIP3   OH238354   0.418   3.239   9.569
 4792TIP3    H138355   0.485   3.300   9.602
 4792TIP3    H238356   0.471   3.191   9.502
 4793TIP3   OH238357   0.250   2.507   9.482
 4793TIP3    H138358   0.251   2.602   9.506
 4793TIP3    H238359   0.161   2.490   9.451
 4794TIP3   OH238360   1.584   3.573  10.477
 4794TIP3    H138361   1.575   3.641  10.408
 4794TIP3    H238362   1.681   3.579  10.494
 4795TIP3   OH238363   0.336   1.987  10.355
 4795TIP3    H138364   0.311   1.985  10.260
 4795TIP3    H238365   0.294   1.902  10.384
 4796TIP3   OH238366   0.230   3.374   9.973
 4796TIP3    H138367   0.146   3.422   9.969
 4796TIP3    H238368   0.278   3.423   9.905
 4797TIP3   OH238369   1.032   3.486   9.403
 4797TIP3    H138370   0.962   3.420   9.425
 4797TIP3    H238371   1.103   3.425   9.378
 4798TIP3   OH238372   1.487   3.459   9.421
 4798TIP3    H138373   1.516   3.382   9.472
 4798TIP3    H238374   1.563   3.481   9.366
 4799TIP3   OH238375   0.575   3.054   9.402
 4799TIP3    H138376   0.589   2.978   9.461
 4799TIP3    H238377   0.651   3.042   9.341
 4800TIP3   OH238378   1.118   3.165   9.381
 4800TIP3    H138379   1.092   3.172   9.474
 4800TIP3    H238380   1.100   3.070   9.366
 4801TIP3   OH238381   1.380   3.004  10.866
 4801TIP3    H138382   1.459   3.061  10.870
 4801TIP3    H238383   1.312   3.070  10.884
 4802TIP3   OH238384   0.696   2.856   9.647
 4802TIP3    H138385   0.644   2.801   9.709
 4802TIP3    H238386   0.727   2.789   9.582
 4803TIP3   OH238387   0.623   2.650  10.865
 4803TIP3    H138388   0.558   2.716  10.893
 4803TIP3    H238389   0.661   2.686  10.783
 4804TIP3   OH238390   0.803   2.678   9.466
 4804TIP3    H138391   0.788   2.670   9.370
 4804TIP3    H238392   0.901   2.683   9.473
 4805TIP3   OH238393   1.735   2.910   9.407
 4805TIP3    H138394   1.717   2.872   9.319
 4805TIP3    H238395   1.745   3.006   9.388
 4806TIP3   OH238396   0.631   2.415  10.951
 4806TIP3    H138397   0.684   2.345  10.912
 4806TIP3    H238398   0.661   2.494  10.901
 4807TIP3   OH238399   0.698   2.215  10.739
 4807TIP3    H138400   0.746   2.277  10.679
 4807TIP3    H238401   0.605   2.218  10.706
 4808TIP3   OH238402   0.858   2.754  10.756
 4808TIP3    H138403   0.935   2.745  10.700
 4808TIP3    H238404   0.821   2.841  10.729
 4809TIP3   OH238405   0.784   1.954  10.776
 4809TIP3    H138406   0.758   2.045  10.802
 4809TIP3    H238407   0.702   1.910  10.745
 4810TIP3   OH238408   0.786   3.749   9.575
 4810TIP3    H138409   0.883   3.756   9.581
 4810TIP3    H238410   0.773   3.808   9.500
 4811TIP3   OH238411   0.145   3.204   9.523
 4811TIP3    H138412   0.242   3.216   9.539
 4811TIP3    H238413   0.150   3.139   9.450
 4812TIP3   OH238414   0.035   3.754  10.006
 4812TIP3    H138415  -0.046   3.707   9.977
 4812TIP3    H238416   0.054   3.694  10.080
 4813TIP3   OH238417   0.123   3.560  10.198
 4813TIP3    H138418   0.075   3.477  10.214
 4813TIP3    H238419   0.134   3.596  10.288
 4814TIP3   OH238420   1.857   3.635  10.500
 4814TIP3    H138421   1.861   3.651  10.596
 4814TIP3    H238422   1.925   3.695  10.468
 4815TIP3   OH238423   1.815   3.598  10.790
 4815TIP3    H138424   1.767   3.521  10.753
 4815TIP3    H238425   1.864   3.555  10.861
 4816TIP3   OH238426   1.790   3.002   9.802
 4816TIP3    H138427   1.876   3.041   9.821
 4816TIP3    H238428   1.787   2.931   9.869
 4817TIP3   OH238429   1.825   2.810   9.992
 4817TIP3    H138430   1.750   2.761  10.031
 4817TIP3    H238431   1.885   2.822  10.068
 4818TIP3   OH238432   1.802   3.077  10.491
 4818TIP3    H138433   1.882   3.039  10.452
 4818TIP3    H238434   1.814   3.173  10.471
 4819TIP3   OH238435   1.654   3.370  10.718
 4819TIP3    H138436   1.586   3.402  10.779
 4819TIP3    H238437   1.601   3.329  10.646
 4820TIP3   OH238438   1.855   2.792   9.630
 4820TIP3    H138439   1.798   2.825   9.558
 4820TIP3    H238440   1.845   2.863   9.696
 4821TIP3   OH238441   1.694   2.513   9.481
 4821TIP3    H138442   1.701   2.580   9.411
 4821TIP3    H238443   1.674   2.431   9.431
 4822TIP3   OH238444   1.607   2.657  10.049
 4822TIP3    H138445   1.593   2.561  10.044
 4822TIP3    H238446   1.576   2.677  10.139
 4823TIP3   OH238447   0.108   2.861  10.451
 4823TIP3    H138448   0.129   2.856  10.357
 4823TIP3    H238449   0.195   2.851  10.494
 4824TIP3   OH238450   1.618   2.262   9.395
 4824TIP3    H138451   1.677   2.218   9.459
 4824TIP3    H238452   1.532   2.221   9.410
 4825TIP3   OH238453   1.571   2.415   9.889
 4825TIP3    H138454   1.603   2.323   9.906
 4825TIP3    H238455   1.654   2.456   9.860
 4826TIP3   OH238456   1.638   2.469  10.437
 4826TIP3    H138457   1.735   2.492  10.437
 4826TIP3    H238458   1.620   2.483  10.531
 4827TIP3   OH238459   1.645   2.544  10.715
 4827TIP3    H138460   1.556   2.571  10.748
 4827TIP3    H238461   1.688   2.630  10.694
 4828TIP3   OH238462   1.642   2.143   9.898
 4828TIP3    H138463   1.664   2.101   9.984
 4828TIP3    H238464   1.582   2.079   9.855
 4829TIP3   OH238465   0.190   2.224  10.360
 4829TIP3    H138466   0.236   2.142  10.382
 4829TIP3    H238467   0.245   2.293  10.399
 4830TIP3   OH238468   0.042   2.531  10.471
 4830TIP3    H138469   0.085   2.509  10.386
 4830TIP3    H238470   0.073   2.621  10.484
 4831TIP3   OH238471   1.822   2.147   9.555
 4831TIP3    H138472   1.863   2.076   9.500
 4831TIP3    H238473   1.893   2.213   9.560
 4832TIP3   OH238474   0.075   2.132   9.817
 4832TIP3    H138475  -0.018   2.156   9.832
 4832TIP3    H238476   0.112   2.213   9.775
 4833TIP3   OH238477   1.528   3.646  10.061
 4833TIP3    H138478   1.597   3.616   9.999
 4833TIP3    H238479   1.580   3.695  10.126
 4834TIP3   OH238480   0.067   2.034  10.712
 4834TIP3    H138481  -0.006   1.995  10.761
 4834TIP3    H238482   0.013   2.090  10.652
 4835TIP3   OH238483   0.558   3.435  10.737
 4835TIP3    H138484   0.526   3.521  10.705
 4835TIP3    H238485   0.653   3.443  10.710
 4836TIP3   OH238486   1.220   3.717  -0.032
 4836TIP3    H138487   1.291   3.654  -0.054
 4836TIP3    H238488   1.261   3.746   0.052
 4837TIP3   OH238489   1.729   1.969  10.862
 4837TIP3    H138490   1.639   1.993  10.833
 4837TIP3    H238491   1.741   1.881  10.820
 4838TIP3   OH238492   0.306   3.764  10.741
 4838TIP3    H138493   0.230   3.807  10.699
 4838TIP3    H238494   0.271   3.740  10.828
 4839TIP3   OH238495   0.553   3.722  10.643
 4839TIP3    H138496   0.466   3.734  10.687
 4839TIP3    H238497   0.545   3.779  10.565
 4840TIP3   OH238498   1.021   3.708  10.567
 4840TIP3    H138499   0.978   3.761  10.498
 4840TIP3    H238500   1.034   3.773  10.638
 4841TIP3   OH238501   1.251   3.585  10.660
 4841TIP3    H138502   1.165   3.616  10.626
 4841TIP3    H238503   1.297   3.670  10.655
 4842TIP3   OH238504   1.519   3.749  10.686
 4842TIP3    H138505   1.505   3.844  10.663
 4842TIP3    H238506   1.533   3.709  10.598
 4843TIP3   OH238507   0.256   3.629  10.431
 4843TIP3    H138508   0.244   3.582  10.517
 4843TIP3    H238509   0.334   3.586  10.392
 4844TIP3   OH238510   0.455   3.494  10.297
 4844TIP3    H138511   0.445   3.400  10.322
 4844TIP3    H238512   0.543   3.512  10.342
 4845TIP3   OH238513   0.696   3.542  10.392
 4845TIP3    H138514   0.747   3.465  10.357
 4845TIP3    H238515   0.729   3.540  10.482
 4846TIP3   OH238516   1.063   2.109  10.300
 4846TIP3    H138517   0.998   2.042  10.325
 4846TIP3    H238518   1.121   2.058  10.242
 4847TIP3   OH238519   1.579   1.913  10.305
 4847TIP3    H138520   1.640   1.972  10.254
 4847TIP3    H238521   1.490   1.950  10.282
 4848TIP3   OH238522   1.744   2.040  10.132
 4848TIP3    H138523   1.813   1.982  10.092
 4848TIP3    H238524   1.796   2.123  10.145
 4849TIP3   OH238525   0.307   1.971  10.082
 4849TIP3    H138526   0.226   1.952  10.031
 4849TIP3    H238527   0.351   1.884  10.078
 4850TIP3   OH238528   0.179   1.944   9.655
 4850TIP3    H138529   0.229   2.010   9.603
 4850TIP3    H238530   0.128   2.003   9.715
 4851TIP3   OH238531   0.748   1.966  10.064
 4851TIP3    H138532   0.838   2.001  10.053
 4851TIP3    H238533   0.746   1.941  10.156
 4852TIP3   OH238534   1.322   1.967  10.227
 4852TIP3    H138535   1.317   1.979  10.132
 4852TIP3    H238536   1.284   1.876  10.239
 4853TIP3   OH238537   1.447   1.969   9.790
 4853TIP3    H138538   1.373   2.031   9.781
 4853TIP3    H238539   1.406   1.886   9.823
 4854TIP3   OH238540   0.169   3.548   9.761
 4854TIP3    H138541   0.110   3.545   9.685
 4854TIP3    H238542   0.169   3.644   9.776
 4855TIP3   OH238543   0.364   2.141   9.509
 4855TIP3    H138544   0.417   2.080   9.454
 4855TIP3    H238545   0.433   2.172   9.571
 4856TIP3   OH238546   0.866   2.163   9.748
 4856TIP3    H138547   0.889   2.109   9.825
 4856TIP3    H238548   0.873   2.251   9.791
 4857TIP3   OH238549   1.058   3.675   9.592
 4857TIP3    H138550   1.150   3.695   9.571
 4857TIP3    H238551   1.036   3.621   9.513
 4858TIP3   OH238552   1.727   3.623   9.865
 4858TIP3    H138553   1.708   3.544   9.809
 4858TIP3    H238554   1.720   3.696   9.801
 4859TIP3   OH238555   0.348   3.635   9.451
 4859TIP3    H138556   0.325   3.667   9.540
 4859TIP3    H238557   0.429   3.585   9.470
 4860TIP3   OH238558   3.097   2.886  10.068
 4860TIP3    H138559   3.094   2.984  10.068
 4860TIP3    H238560   3.023   2.863  10.010
 4861TIP3   OH238561   2.981   2.810  10.420
 4861TIP3    H138562   2.981   2.745  10.491
 4861TIP3    H238563   2.946   2.761  10.344
 4862TIP3   OH238564   2.218   2.779  10.574
 4862TIP3    H138565   2.226   2.710  10.643
 4862TIP3    H238566   2.292   2.836  10.597
 4863TIP3   OH238567   3.350   3.107  10.249
 4863TIP3    H138568   3.309   3.036  10.298
 4863TIP3    H238569   3.352   3.177  10.316
 4864TIP3   OH238570   2.309   3.224  10.423
 4864TIP3    H138571   2.279   3.136  10.393
 4864TIP3    H238572   2.405   3.206  10.432
 4865TIP3   OH238573   1.973   2.579   9.975
 4865TIP3    H138574   1.930   2.666   9.968
 4865TIP3    H238575   1.917   2.525   9.917
 4866TIP3   OH238576   2.045   2.802  10.191
 4866TIP3    H138577   2.073   2.719  10.234
 4866TIP3    H238578   2.113   2.813  10.123
 4867TIP3   OH238579   3.062   3.622  10.274
 4867TIP3    H138580   3.127   3.554  10.243
 4867TIP3    H238581   3.042   3.587  10.361
 4868TIP3   OH238582   2.818   3.051  10.471
 4868TIP3    H138583   2.852   2.990  10.404
 4868TIP3    H238584   2.901   3.068  10.520
 4869TIP3   OH238585   3.674   2.220  10.540
 4869TIP3    H138586   3.699   2.275  10.617
 4869TIP3    H238587   3.739   2.259  10.478
 4870TIP3   OH238588   3.131   2.497  10.503
 4870TIP3    H138589   3.154   2.402  10.502
 4870TIP3    H238590   3.124   2.512  10.407
 4871TIP3   OH238591   2.447   2.307  10.220
 4871TIP3    H138592   2.459   2.390  10.170
 4871TIP3    H238593   2.408   2.250  10.151
 4872TIP3   OH238594   3.222   2.314  10.057
 4872TIP3    H138595   3.285   2.283  10.126
 4872TIP3    H238596   3.280   2.373  10.006
 4873TIP3   OH238597   2.109   2.549  10.293
 4873TIP3    H138598   2.176   2.495  10.339
 4873TIP3    H238599   2.121   2.517  10.202
 4874TIP3   OH238600   2.625   2.704  10.228
 4874TIP3    H138601   2.693   2.645  10.267
 4874TIP3    H238602   2.575   2.639  10.175
 4875TIP3   OH238603   3.735   2.373  10.766
 4875TIP3    H138604   3.660   2.435  10.755
 4875TIP3    H238605   3.726   2.350  10.859
 4876TIP3   OH238606   2.340   2.195  10.620
 4876TIP3    H138607   2.311   2.256  10.549
 4876TIP3    H238608   2.274   2.218  10.690
 4877TIP3   OH238609   3.066   3.144   9.979
 4877TIP3    H138610   3.041   3.118   9.889
 4877TIP3    H238611   3.036   3.238   9.984
 4878TIP3   OH238612   2.590   2.962  10.652
 4878TIP3    H138613   2.519   3.027  10.670
 4878TIP3    H238614   2.659   3.021  10.618
 4879TIP3   OH238615   3.401   2.250  10.259
 4879TIP3    H138616   3.381   2.172  10.312
 4879TIP3    H238617   3.472   2.293  10.312
 4880TIP3   OH238618   2.294   2.383  10.425
 4880TIP3    H138619   2.357   2.451  10.458
 4880TIP3    H238620   2.347   2.342  10.352
 4881TIP3   OH238621   2.436   3.163  10.730
 4881TIP3    H138622   2.429   3.256  10.701
 4881TIP3    H238623   2.349   3.154  10.775
 4882TIP3   OH238624   2.043   3.122   9.808
 4882TIP3    H138625   2.018   3.158   9.721
 4882TIP3    H238626   2.051   3.204   9.861
 4883TIP3   OH238627   3.403   3.291  10.486
 4883TIP3    H138628   3.306   3.301  10.496
 4883TIP3    H238629   3.430   3.382  10.465
 4884TIP3   OH238630   3.433   2.123  10.628
 4884TIP3    H138631   3.360   2.185  10.612
 4884TIP3    H238632   3.507   2.160  10.575
 4885TIP3   OH238633   2.731   1.931  10.369
 4885TIP3    H138634   2.716   1.834  10.363
 4885TIP3    H238635   2.644   1.961  10.403
 4886TIP3   OH238636   3.229   3.469  10.143
 4886TIP3    H138637   3.272   3.396  10.093
 4886TIP3    H238638   3.275   3.547  10.105
 4887TIP3   OH238639   3.351   3.261   9.996
 4887TIP3    H138640   3.320   3.192   9.936
 4887TIP3    H238641   3.354   3.212  10.080
 4888TIP3   OH238642   3.515   3.118  10.843
 4888TIP3    H138643   3.528   3.059  10.766
 4888TIP3    H238644   3.537   3.206  10.806
 4889TIP3   OH238645   2.962   2.809   9.821
 4889TIP3    H138646   2.893   2.868   9.785
 4889TIP3    H238647   3.033   2.819   9.755
 4890TIP3   OH238648   2.971   2.668   9.522
 4890TIP3    H138649   3.041   2.666   9.589
 4890TIP3    H238650   3.001   2.595   9.466
 4891TIP3   OH238651   3.701   2.752  10.649
 4891TIP3    H138652   3.636   2.825  10.654
 4891TIP3    H238653   3.751   2.774  10.568
 4892TIP3   OH238654   3.306   2.830   9.913
 4892TIP3    H138655   3.232   2.855   9.973
 4892TIP3    H238656   3.354   2.764   9.966
 4893TIP3   OH238657   3.294   2.644  10.827
 4893TIP3    H138658   3.302   2.725  10.878
 4893TIP3    H238659   3.238   2.678  10.754
 4894TIP3   OH238660   2.468   2.897  10.105
 4894TIP3    H138661   2.436   2.857  10.020
 4894TIP3    H238662   2.529   2.827  10.139
 4895TIP3   OH238663   2.599   3.233  10.373
 4895TIP3    H138664   2.600   3.182  10.291
 4895TIP3    H238665   2.679   3.199  10.418
 4896TIP3   OH238666   2.502   2.771  10.473
 4896TIP3    H138667   2.555   2.781  10.391
 4896TIP3    H238668   2.541   2.837  10.534
 4897TIP3   OH238669   3.144   3.328  10.543
 4897TIP3    H138670   3.113   3.395  10.605
 4897TIP3    H238671   3.116   3.244  10.586
 4898TIP3   OH238672   2.609   3.235  10.931
 4898TIP3    H138673   2.561   3.288  10.997
 4898TIP3    H238674   2.534   3.203  10.875
 4899TIP3   OH238675   3.195   2.752   9.679
 4899TIP3    H138676   3.249   2.769   9.760
 4899TIP3    H238677   3.241   2.801   9.607
 4900TIP3   OH238678   2.290   2.830  10.862
 4900TIP3    H138679   2.295   2.897  10.932
 4900TIP3    H238680   2.197   2.838  10.834
 4901TIP3   OH238681   2.966   3.423  10.028
 4901TIP3    H138682   3.009   3.454  10.108
 4901TIP3    H238683   2.911   3.498  10.003
 4902TIP3   OH238684   3.568   1.924   9.672
 4902TIP3    H138685   3.472   1.933   9.694
 4902TIP3    H238686   3.587   2.008   9.627
 4903TIP3   OH238687   2.364   2.798   9.869
 4903TIP3    H138688   2.336   2.876   9.817
 4903TIP3    H238689   2.299   2.731   9.843
 4904TIP3   OH238690   3.679   3.359   9.506
 4904TIP3    H138691   3.696   3.453   9.523
 4904TIP3    H238692   3.771   3.327   9.506
 4905TIP3   OH238693   1.977   3.042  10.750
 4905TIP3    H138694   1.928   3.034  10.666
 4905TIP3    H238695   1.979   2.948  10.779
 4906TIP3   OH238696   1.951   3.316  10.434
 4906TIP3    H138697   2.046   3.303  10.433
 4906TIP3    H238698   1.943   3.396  10.488
 4907TIP3   OH238699   2.857   3.313  10.866
 4907TIP3    H138700   2.868   3.404  10.900
 4907TIP3    H238701   2.771   3.286  10.906
 4908TIP3   OH238702   2.915   3.714   9.868
 4908TIP3    H138703   2.903   3.706   9.772
 4908TIP3    H238704   2.914   3.810   9.885
 4909TIP3   OH238705   2.278   3.602  10.052
 4909TIP3    H138706   2.293   3.561  10.139
 4909TIP3    H238707   2.193   3.561  10.028
 4910TIP3   OH238708   3.220   3.635   9.567
 4910TIP3    H138709   3.266   3.560   9.524
 4910TIP3    H238710   3.224   3.610   9.661
 4911TIP3   OH238711   3.189   3.629   9.845
 4911TIP3    H138712   3.093   3.637   9.861
 4911TIP3    H238713   3.212   3.554   9.902
 4912TIP3   OH238714   2.202   3.171  10.848
 4912TIP3    H138715   2.223   3.135  10.936
 4912TIP3    H238716   2.113   3.135  10.828
 4913TIP3   OH238717   2.471   2.023  10.442
 4913TIP3    H138718   2.380   2.008  10.409
 4913TIP3    H238719   2.458   2.103  10.496
 4914TIP3   OH238720   2.933   1.999  10.787
 4914TIP3    H138721   2.973   1.947  10.858
 4914TIP3    H238722   2.837   1.976  10.797
 4915TIP3   OH238723   3.237   2.370  10.865
 4915TIP3    H138724   3.223   2.355  10.960
 4915TIP3    H238725   3.255   2.466  10.852
 4916TIP3   OH238726   3.340   2.854   9.465
 4916TIP3    H138727   3.336   2.836   9.368
 4916TIP3    H238728   3.426   2.899   9.467
 4917TIP3   OH238729   2.899   2.247   9.513
 4917TIP3    H138730   2.867   2.240   9.605
 4917TIP3    H238731   2.868   2.159   9.482
 4918TIP3   OH238732   2.478   2.519  10.571
 4918TIP3    H138733   2.406   2.518  10.637
 4918TIP3    H238734   2.473   2.610  10.533
 4919TIP3   OH238735   2.477   2.528  10.058
 4919TIP3    H138736   2.383   2.505  10.045
 4919TIP3    H238737   2.514   2.501   9.972
 4920TIP3   OH238738   3.029   2.581   9.936
 4920TIP3    H138739   2.990   2.663   9.898
 4920TIP3    H238740   3.097   2.563   9.869
 4921TIP3   OH238741   3.133   2.530  10.220
 4921TIP3    H138742   3.103   2.586  10.146
 4921TIP3    H238743   3.141   2.445  10.173
 4922TIP3   OH238744   2.239   2.545  10.743
 4922TIP3    H138745   2.250   2.583  10.832
 4922TIP3    H238746   2.203   2.458  10.761
 4923TIP3   OH238747   2.579   2.282   9.425
 4923TIP3    H138748   2.534   2.241   9.500
 4923TIP3    H238749   2.509   2.327   9.376
 4924TIP3   OH238750   1.909   2.253  10.139
 4924TIP3    H138751   1.978   2.248  10.209
 4924TIP3    H238752   1.954   2.217  10.060
 4925TIP3   OH238753   2.035   2.325   9.673
 4925TIP3    H138754   2.087   2.385   9.617
 4925TIP3    H238755   1.967   2.388   9.704
 4926TIP3   OH238756   3.057   2.686  10.683
 4926TIP3    H138757   3.092   2.622  10.616
 4926TIP3    H238758   3.002   2.630  10.738
 4927TIP3   OH238759   2.731   2.287  10.160
 4927TIP3    H138760   2.638   2.286  10.188
 4927TIP3    H238761   2.780   2.268  10.242
 4928TIP3   OH238762   2.213   2.440  10.046
 4928TIP3    H138763   2.125   2.456  10.006
 4928TIP3    H238764   2.242   2.356  10.005
 4929TIP3   OH238765   2.577   2.446   9.809
 4929TIP3    H138766   2.673   2.456   9.823
 4929TIP3    H238767   2.553   2.514   9.743
 4930TIP3   OH238768   3.174   2.209  10.486
 4930TIP3    H138769   3.102   2.215  10.552
 4930TIP3    H238770   3.125   2.183  10.406
 4931TIP3   OH238771   2.449   2.563   9.567
 4931TIP3    H138772   2.395   2.525   9.495
 4931TIP3    H238773   2.530   2.584   9.519
 4932TIP3   OH238774   2.860   2.561  10.347
 4932TIP3    H138775   2.920   2.508  10.293
 4932TIP3    H238776   2.846   2.505  10.424
 4933TIP3   OH238777   2.361   2.176   9.991
 4933TIP3    H138778   2.330   2.083   9.992
 4933TIP3    H238779   2.441   2.168   9.936
 4934TIP3   OH238780   2.723   2.392  10.588
 4934TIP3    H138781   2.641   2.445  10.592
 4934TIP3    H238782   2.780   2.430  10.657
 4935TIP3   OH238783   2.783   3.015   9.759
 4935TIP3    H138784   2.703   2.970   9.725
 4935TIP3    H238785   2.760   3.029   9.853
 4936TIP3   OH238786   3.505   2.931  10.641
 4936TIP3    H138787   3.559   2.984  10.578
 4936TIP3    H238788   3.418   2.938  10.595
 4937TIP3   OH238789   3.165   2.297   9.577
 4937TIP3    H138790   3.070   2.313   9.563
 4937TIP3    H238791   3.200   2.382   9.612
 4938TIP3   OH238792   2.933   3.043  10.875
 4938TIP3    H138793   2.899   3.003  10.956
 4938TIP3    H238794   2.903   3.135  10.884
 4939TIP3   OH238795   3.239   2.490   9.737
 4939TIP3    H138796   3.327   2.477   9.780
 4939TIP3    H238797   3.250   2.573   9.687
 4940TIP3   OH238798   2.295   2.957  10.339
 4940TIP3    H138799   2.361   2.947  10.268
 4940TIP3    H238800   2.300   2.870  10.384
 4941TIP3   OH238801   2.992   3.163   9.662
 4941TIP3    H138802   2.958   3.247   9.697
 4941TIP3    H238803   2.919   3.101   9.684
 4942TIP3   OH238804   1.991   2.799  10.864
 4942TIP3    H138805   2.010   2.755  10.948
 4942TIP3    H238806   1.932   2.735  10.819
 4943TIP3   OH238807   3.159   3.286  10.879
 4943TIP3    H138808   3.068   3.303  10.852
 4943TIP3    H238809   3.164   3.311  10.971
 4944TIP3   OH238810   3.734   2.504   9.716
 4944TIP3    H138811   3.674   2.474   9.645
 4944TIP3    H238812   3.735   2.599   9.690
 4945TIP3   OH238813   3.554   3.386   9.755
 4945TIP3    H138814   3.522   3.302   9.791
 4945TIP3    H238815   3.591   3.363   9.668
 4946TIP3   OH238816   3.281   2.867  10.467
 4946TIP3    H138817   3.187   2.848  10.454
 4946TIP3    H238818   3.323   2.792  10.421
 4947TIP3   OH238819   2.532   3.302  10.078
 4947TIP3    H138820   2.581   3.382  10.057
 4947TIP3    H238821   2.444   3.324  10.044
 4948TIP3   OH238822   2.109   2.785   9.535
 4948TIP3    H138823   2.166   2.851   9.576
 4948TIP3    H238824   2.019   2.816   9.559
 4949TIP3   OH238825   2.672   3.068  10.027
 4949TIP3    H138826   2.640   3.159  10.038
 4949TIP3    H238827   2.602   3.017  10.073
 4950TIP3   OH238828   2.716   3.489  10.672
 4950TIP3    H138829   2.766   3.567  10.643
 4950TIP3    H238830   2.779   3.447  10.733
 4951TIP3   OH238831   2.541   3.566   9.981
 4951TIP3    H138832   2.445   3.581   9.995
 4951TIP3    H238833   2.578   3.650  10.015
 4952TIP3   OH238834   3.071   3.086  10.628
 4952TIP3    H138835   3.038   3.067  10.718
 4952TIP3    H238836   3.135   3.015  10.615
 4953TIP3   OH238837   3.306   3.194   9.541
 4953TIP3    H138838   3.335   3.146   9.621
 4953TIP3    H238839   3.210   3.175   9.548
 4954TIP3   OH238840   3.329   3.570  10.859
 4954TIP3    H138841   3.282   3.502  10.810
 4954TIP3    H238842   3.369   3.625  10.789
 4955TIP3   OH238843   3.751   3.628   9.567
 4955TIP3    H138844   3.819   3.695   9.545
 4955TIP3    H238845   3.679   3.689   9.595
 4956TIP3   OH238846   2.160   2.273  10.818
 4956TIP3    H138847   2.067   2.305  10.814
 4956TIP3    H238848   2.153   2.188  10.863
 4957TIP3   OH238849   3.382   3.056   9.765
 4957TIP3    H138850   3.358   2.978   9.819
 4957TIP3    H238851   3.477   3.060   9.782
 4958TIP3   OH238852   2.122   3.448  10.661
 4958TIP3    H138853   2.150   3.355  10.663
 4958TIP3    H238854   2.149   3.476  10.750
 4959TIP3   OH238855   2.718   3.301   9.391
 4959TIP3    H138856   2.727   3.225   9.331
 4959TIP3    H238857   2.672   3.258   9.466
 4960TIP3   OH238858   2.593   3.253   9.636
 4960TIP3    H138859   2.622   3.202   9.713
 4960TIP3    H238860   2.604   3.346   9.669
 4961TIP3   OH238861   2.249   2.978   9.685
 4961TIP3    H138862   2.177   3.018   9.737
 4961TIP3    H238863   2.299   3.056   9.654
 4962TIP3   OH238864   3.024   2.249  10.720
 4962TIP3    H138865   3.105   2.247  10.771
 4962TIP3    H238866   2.992   2.156  10.728
 4963TIP3   OH238867   3.105   2.203   9.825
 4963TIP3    H138868   3.129   2.248   9.742
 4963TIP3    H238869   3.163   2.247   9.888
 4964TIP3   OH238870   2.875   3.419   9.705
 4964TIP3    H138871   2.793   3.472   9.713
 4964TIP3    H238872   2.929   3.475   9.647
 4965TIP3   OH238873   2.829   2.378   9.907
 4965TIP3    H138874   2.906   2.437   9.912
 4965TIP3    H238875   2.802   2.365  10.000
 4966TIP3   OH238876   2.886   2.483  10.801
 4966TIP3    H138877   2.894   2.552  10.866
 4966TIP3    H238878   2.948   2.407  10.810
 4967TIP3   OH238879   2.913   2.084   9.994
 4967TIP3    H138880   2.881   2.149  10.057
 4967TIP3    H238881   2.983   2.138   9.950
 4968TIP3   OH238882   2.616   3.522   9.709
 4968TIP3    H138883   2.624   3.604   9.653
 4968TIP3    H238884   2.587   3.559   9.795
 4969TIP3   OH238885   2.479   2.195   9.666
 4969TIP3    H138886   2.474   2.285   9.705
 4969TIP3    H238887   2.570   2.170   9.692
 4970TIP3   OH238888   3.504   2.297  10.859
 4970TIP3    H138889   3.407   2.301  10.865
 4970TIP3    H238890   3.524   2.254  10.775
 4971TIP3   OH238891   3.361   2.648  10.313
 4971TIP3    H138892   3.281   2.601  10.284
 4971TIP3    H238893   3.412   2.579  10.362
 4972TIP3   OH238894   2.302   3.239   9.570
 4972TIP3    H138895   2.370   3.300   9.602
 4972TIP3    H238896   2.355   3.192   9.502
 4973TIP3   OH238897   2.137   2.506   9.482
 4973TIP3    H138898   2.140   2.601   9.506
 4973TIP3    H238899   2.047   2.490   9.454
 4974TIP3   OH238900   3.470   3.573  10.477
 4974TIP3    H138901   3.461   3.641  10.408
 4974TIP3    H238902   3.566   3.579  10.494
 4975TIP3   OH238903   2.217   1.985  10.360
 4975TIP3    H138904   2.200   1.986  10.263
 4975TIP3    H238905   2.178   1.899  10.384
 4976TIP3   OH238906   2.114   3.377   9.975
 4976TIP3    H138907   2.029   3.421   9.968
 4976TIP3    H238908   2.161   3.422   9.903
 4977TIP3   OH238909   2.917   3.486   9.403
 4977TIP3    H138910   2.847   3.420   9.424
 4977TIP3    H238911   2.989   3.426   9.378
 4978TIP3   OH238912   3.372   3.460   9.422
 4978TIP3    H138913   3.402   3.382   9.472
 4978TIP3    H238914   3.449   3.481   9.366
 4979TIP3   OH238915   2.461   3.054   9.402
 4979TIP3    H138916   2.475   2.978   9.461
 4979TIP3    H238917   2.536   3.042   9.341
 4980TIP3   OH238918   3.004   3.165   9.381
 4980TIP3    H138919   2.977   3.172   9.474
 4980TIP3    H238920   2.986   3.070   9.366
 4981TIP3   OH238921   3.265   3.003  10.866
 4981TIP3    H138922   3.345   3.060  10.870
 4981TIP3    H238923   3.197   3.070  10.884
 4982TIP3   OH238924   2.581   2.856   9.647
 4982TIP3    H138925   2.530   2.801   9.709
 4982TIP3    H238926   2.612   2.789   9.582
 4983TIP3   OH238927   2.513   2.653  10.866
 4983TIP3    H138928   2.443   2.715  10.893
 4983TIP3    H238929   2.543   2.687  10.781
 4984TIP3   OH238930   2.689   2.678   9.466
 4984TIP3    H138931   2.674   2.670   9.369
 4984TIP3    H238932   2.787   2.683   9.473
 4985TIP3   OH238933   3.620   2.910   9.407
 4985TIP3    H138934   3.603   2.872   9.319
 4985TIP3    H238935   3.631   3.006   9.388
 4986TIP3   OH238936   2.528   2.419  10.956
 4986TIP3    H138937   2.564   2.343  10.907
 4986TIP3    H238938   2.545   2.494  10.895
 4987TIP3   OH238939   2.587   2.213  10.738
 4987TIP3    H138940   2.638   2.258  10.666
 4987TIP3    H238941   2.500   2.201  10.696
 4988TIP3   OH238942   2.749   2.755  10.760
 4988TIP3    H138943   2.820   2.747  10.697
 4988TIP3    H238944   2.706   2.839  10.731
 4989TIP3   OH238945   2.669   1.955  10.775
 4989TIP3    H138946   2.649   2.051  10.773
 4989TIP3    H238947   2.593   1.919  10.728
 4990TIP3   OH238948   2.672   3.749   9.575
 4990TIP3    H138949   2.768   3.756   9.581
 4990TIP3    H238950   2.658   3.807   9.499
 4991TIP3   OH238951   2.026   3.204   9.521
 4991TIP3    H138952   2.123   3.214   9.539
 4991TIP3    H238953   2.031   3.141   9.446
 4992TIP3   OH238954   1.905   3.743  10.017
 4992TIP3    H138955   1.833   3.695   9.972
 4992TIP3    H238956   1.933   3.679  10.084
 4993TIP3   OH238957   1.987   3.558  10.206
 4993TIP3    H138958   1.952   3.470  10.226
 4993TIP3    H238959   2.011   3.591  10.294
 4994TIP3   OH238960   3.742   3.635  10.500
 4994TIP3    H138961   3.747   3.651  10.596
 4994TIP3    H238962   3.811   3.695  10.468
 4995TIP3   OH238963   3.701   3.598  10.790
 4995TIP3    H138964   3.652   3.521  10.753
 4995TIP3    H238965   3.750   3.555  10.861
 4996TIP3   OH238966   3.677   3.000   9.800
 4996TIP3    H138967   3.761   3.043   9.821
 4996TIP3    H238968   3.672   2.932   9.870
 4997TIP3   OH238969   3.711   2.813   9.992
 4997TIP3    H138970   3.634   2.764  10.029
 4997TIP3    H238971   3.768   2.824  10.071
 4998TIP3   OH238972   3.686   3.077  10.490
 4998TIP3    H138973   3.767   3.039  10.453
 4998TIP3    H238974   3.700   3.172  10.470
 4999TIP3   OH238975   3.540   3.370  10.718
 4999TIP3    H138976   3.472   3.402  10.779
 4999TIP3    H238977   3.487   3.329  10.646
 5000TIP3   OH238978   3.741   2.792   9.632
 5000TIP3    H138979   3.685   2.824   9.558
 5000TIP3    H238980   3.729   2.865   9.696
 5001TIP3   OH238981   3.579   2.514   9.481
 5001TIP3    H138982   3.586   2.580   9.411
 5001TIP3    H238983   3.560   2.432   9.432
 5002TIP3   OH238984   3.495   2.656  10.050
 5002TIP3    H138985   3.477   2.561  10.044
 5002TIP3    H238986   3.461   2.677  10.138
 5003TIP3   OH238987   1.994   2.867  10.455
 5003TIP3    H138988   2.011   2.857  10.358
 5003TIP3    H238989   2.083   2.846  10.490
 5004TIP3   OH238990   3.503   2.262   9.395
 5004TIP3    H138991   3.562   2.217   9.459
 5004TIP3    H238992   3.417   2.221   9.410
 5005TIP3   OH238993   3.455   2.414   9.890
 5005TIP3    H138994   3.489   2.323   9.906
 5005TIP3    H238995   3.536   2.456   9.858
 5006TIP3   OH238996   3.521   2.470  10.437
 5006TIP3    H138997   3.619   2.491  10.435
 5006TIP3    H238998   3.507   2.482  10.532
 5007TIP3   OH238999   3.531   2.544  10.717
 5007TIP3    H139000   3.442   2.571  10.748
 5007TIP3    H239001   3.575   2.629  10.693
 5008TIP3   OH239002   3.528   2.144   9.898
 5008TIP3    H139003   3.549   2.102   9.984
 5008TIP3    H239004   3.468   2.080   9.855
 5009TIP3   OH239005   2.074   2.224  10.356
 5009TIP3    H139006   2.121   2.141  10.380
 5009TIP3    H239007   2.131   2.293  10.393
 5010TIP3   OH239008   1.903   2.523  10.457
 5010TIP3    H139009   1.960   2.498  10.382
 5010TIP3    H239010   1.950   2.603  10.485
 5011TIP3   OH239011   3.708   2.147   9.554
 5011TIP3    H139012   3.749   2.076   9.500
 5011TIP3    H239013   3.779   2.213   9.559
 5012TIP3   OH239014   1.939   2.152   9.867
 5012TIP3    H139015   1.845   2.168   9.850
 5012TIP3    H239016   1.981   2.200   9.793
 5013TIP3   OH239017   3.414   3.646  10.061
 5013TIP3    H139018   3.482   3.616   9.999
 5013TIP3    H239019   3.465   3.695  10.127
 5014TIP3   OH239020   1.936   2.020  10.695
 5014TIP3    H139021   1.868   1.997  10.762
 5014TIP3    H239022   1.888   2.085  10.641
 5015TIP3   OH239023   2.446   3.435  10.736
 5015TIP3    H139024   2.414   3.522  10.708
 5015TIP3    H239025   2.541   3.444  10.711
 5016TIP3   OH239026   3.105   3.716  -0.032
 5016TIP3    H139027   3.176   3.653  -0.054
 5016TIP3    H239028   3.146   3.745   0.052
 5017TIP3   OH239029   3.614   1.968  10.863
 5017TIP3    H139030   3.524   1.992  10.833
 5017TIP3    H239031   3.626   1.881  10.820
 5018TIP3   OH239032   2.189   3.763  10.741
 5018TIP3    H139033   2.115   3.810  10.702
 5018TIP3    H239034   2.157   3.738  10.829
 5019TIP3   OH239035   2.437   3.717  10.639
 5019TIP3    H139036   2.352   3.734  10.686
 5019TIP3    H239037   2.431   3.780  10.565
 5020TIP3   OH239038   2.908   3.708  10.566
 5020TIP3    H139039   2.863   3.764  10.499
 5020TIP3    H239040   2.921   3.772  10.638
 5021TIP3   OH239041   3.137   3.585  10.656
 5021TIP3    H139042   3.051   3.619  10.628
 5021TIP3    H239043   3.184   3.669  10.657
 5022TIP3   OH239044   3.407   3.750  10.687
 5022TIP3    H139045   3.390   3.844  10.663
 5022TIP3    H239046   3.419   3.710  10.599
 5023TIP3   OH239047   2.139   3.625  10.433
 5023TIP3    H139048   2.131   3.580  10.519
 5023TIP3    H239049   2.220   3.585  10.395
 5024TIP3   OH239050   2.345   3.496  10.298
 5024TIP3    H139051   2.329   3.402  10.322
 5024TIP3    H239052   2.431   3.512  10.344
 5025TIP3   OH239053   2.607   3.545  10.384
 5025TIP3    H139054   2.620   3.452  10.360
 5025TIP3    H239055   2.611   3.540  10.481
 5026TIP3   OH239056   2.951   2.109  10.301
 5026TIP3    H139057   2.883   2.046  10.328
 5026TIP3    H239058   3.005   2.056  10.242
 5027TIP3   OH239059   3.464   1.915  10.307
 5027TIP3    H139060   3.525   1.972  10.254
 5027TIP3    H239061   3.376   1.949  10.282
 5028TIP3   OH239062   3.631   2.038  10.136
 5028TIP3    H139063   3.699   1.982  10.092
 5028TIP3    H239064   3.682   2.122  10.146
 5029TIP3   OH239065   2.189   1.971  10.084
 5029TIP3    H139066   2.109   1.953  10.032
 5029TIP3    H239067   2.234   1.885  10.079
 5030TIP3   OH239068   2.064   1.947   9.656
 5030TIP3    H139069   2.114   2.012   9.603
 5030TIP3    H239070   2.009   2.004   9.710
 5031TIP3   OH239071   2.634   1.964  10.063
 5031TIP3    H139072   2.724   2.000  10.054
 5031TIP3    H239073   2.632   1.943  10.157
 5032TIP3   OH239074   3.208   1.966  10.225
 5032TIP3    H139075   3.200   1.978  10.130
 5032TIP3    H239076   3.169   1.876  10.238
 5033TIP3   OH239077   3.333   1.969   9.794
 5033TIP3    H139078   3.258   2.028   9.779
 5033TIP3    H239079   3.289   1.884   9.819
 5034TIP3   OH239080   2.055   3.542   9.761
 5034TIP3    H139081   1.990   3.540   9.688
 5034TIP3    H239082   2.056   3.637   9.777
 5035TIP3   OH239083   2.247   2.141   9.508
 5035TIP3    H139084   2.300   2.080   9.455
 5035TIP3    H239085   2.313   2.174   9.571
 5036TIP3   OH239086   2.749   2.165   9.748
 5036TIP3    H139087   2.775   2.108   9.822
 5036TIP3    H239088   2.758   2.252   9.793
 5037TIP3   OH239089   2.944   3.674   9.593
 5037TIP3    H139090   3.036   3.695   9.571
 5037TIP3    H239091   2.921   3.621   9.513
 5038TIP3   OH239092   3.612   3.623   9.866
 5038TIP3    H139093   3.594   3.544   9.809
 5038TIP3    H239094   3.606   3.696   9.801
 5039TIP3   OH239095   2.235   3.641   9.454
 5039TIP3    H139096   2.209   3.667   9.544
 5039TIP3    H239097   2.313   3.584   9.469
 5040TIP3   OH239098   4.983   2.886  10.068
 5040TIP3    H139099   4.980   2.984  10.068
 5040TIP3    H239100   4.909   2.863  10.010
 5041TIP3   OH239101   4.861   2.813  10.421
 5041TIP3    H139102   4.870   2.746  10.491
 5041TIP3    H239103   4.835   2.758  10.345
 5042TIP3   OH239104   4.108   2.778  10.570
 5042TIP3    H139105   4.109   2.709  10.641
 5042TIP3    H239106   4.177   2.835  10.603
 5043TIP3   OH239107   5.235   3.106  10.249
 5043TIP3    H139108   5.194   3.034  10.299
 5043TIP3    H239109   5.239   3.177  10.316
 5044TIP3   OH239110   4.194   3.223  10.426
 5044TIP3    H139111   4.163   3.137  10.392
 5044TIP3    H239112   4.290   3.211  10.431
 5045TIP3   OH239113   3.826   2.576   9.979
 5045TIP3    H139114   3.788   2.666   9.965
 5045TIP3    H239115   3.782   2.525   9.909
 5046TIP3   OH239116   3.931   2.799  10.185
 5046TIP3    H139117   3.958   2.720  10.237
 5046TIP3    H239118   4.004   2.821  10.128
 5047TIP3   OH239119   4.947   3.622  10.274
 5047TIP3    H139120   5.012   3.554  10.243
 5047TIP3    H239121   4.928   3.587  10.361
 5048TIP3   OH239122   4.699   3.045  10.471
 5048TIP3    H139123   4.742   2.990  10.403
 5048TIP3    H239124   4.782   3.069  10.519
 5049TIP3   OH239125   5.564   2.218  10.542
 5049TIP3    H139126   5.582   2.277  10.617
 5049TIP3    H239127   5.622   2.259  10.476
 5050TIP3   OH239128   5.018   2.498  10.501
 5050TIP3    H139129   5.038   2.403  10.502
 5050TIP3    H239130   5.010   2.512  10.405
 5051TIP3   OH239131   4.349   2.299  10.209
 5051TIP3    H139132   4.342   2.389  10.174
 5051TIP3    H239133   4.293   2.246  10.150
 5052TIP3   OH239134   5.106   2.318  10.060
 5052TIP3    H139135   5.171   2.281  10.124
 5052TIP3    H239136   5.164   2.374  10.006
 5053TIP3   OH239137   3.994   2.556  10.289
 5053TIP3    H139138   4.056   2.501  10.345
 5053TIP3    H239139   4.005   2.506  10.209
 5054TIP3   OH239140   4.506   2.705  10.232
 5054TIP3    H139141   4.579   2.647  10.263
 5054TIP3    H239142   4.461   2.639  10.175
 5055TIP3   OH239143   5.626   2.375  10.766
 5055TIP3    H139144   5.547   2.434  10.754
 5055TIP3    H239145   5.609   2.349  10.857
 5056TIP3   OH239146   4.246   2.184  10.626
 5056TIP3    H139147   4.207   2.239  10.556
 5056TIP3    H239148   4.174   2.205  10.687
 5057TIP3   OH239149   4.952   3.144   9.979
 5057TIP3    H139150   4.928   3.118   9.889
 5057TIP3    H239151   4.922   3.238   9.984
 5058TIP3   OH239152   4.475   2.964  10.650
 5058TIP3    H139153   4.407   3.027  10.685
 5058TIP3    H239154   4.551   3.024  10.634
 5059TIP3   OH239155   5.289   2.249  10.257
 5059TIP3    H139156   5.266   2.173  10.311
 5059TIP3    H239157   5.356   2.293  10.313
 5060TIP3   OH239158   4.197   2.417  10.384
 5060TIP3    H139159   4.248   2.448  10.460
 5060TIP3    H239160   4.245   2.339  10.352
 5061TIP3   OH239161   4.321   3.161  10.722
 5061TIP3    H139162   4.315   3.257  10.703
 5061TIP3    H239163   4.237   3.153  10.775
 5062TIP3   OH239164   3.929   3.119   9.809
 5062TIP3    H139165   3.904   3.156   9.722
 5062TIP3    H239166   3.936   3.202   9.860
 5063TIP3   OH239167   5.289   3.291  10.486
 5063TIP3    H139168   5.192   3.301  10.496
 5063TIP3    H239169   5.315   3.382  10.465
 5064TIP3   OH239170   5.319   2.122  10.628
 5064TIP3    H139171   5.246   2.184  10.612
 5064TIP3    H239172   5.391   2.159  10.573
 5065TIP3   OH239173   4.617   1.931  10.369
 5065TIP3    H139174   4.602   1.834  10.363
 5065TIP3    H239175   4.530   1.961  10.402
 5066TIP3   OH239176   5.115   3.469  10.143
 5066TIP3    H139177   5.157   3.396  10.093
 5066TIP3    H239178   5.160   3.547  10.105
 5067TIP3   OH239179   5.237   3.261   9.996
 5067TIP3    H139180   5.206   3.192   9.936
 5067TIP3    H239181   5.240   3.212  10.080
 5068TIP3   OH239182   5.400   3.118  10.843
 5068TIP3    H139183   5.414   3.059  10.766
 5068TIP3    H239184   5.422   3.205  10.806
 5069TIP3   OH239185   4.845   2.808   9.821
 5069TIP3    H139186   4.777   2.868   9.785
 5069TIP3    H239187   4.918   2.819   9.756
 5070TIP3   OH239188   4.856   2.668   9.522
 5070TIP3    H139189   4.927   2.666   9.589
 5070TIP3    H239190   4.886   2.595   9.466
 5071TIP3   OH239191   5.587   2.750  10.647
 5071TIP3    H139192   5.522   2.823  10.655
 5071TIP3    H239193   5.636   2.776  10.567
 5072TIP3   OH239194   5.194   2.830   9.913
 5072TIP3    H139195   5.120   2.854   9.973
 5072TIP3    H239196   5.241   2.763   9.967
 5073TIP3   OH239197   5.183   2.645  10.824
 5073TIP3    H139198   5.185   2.724  10.879
 5073TIP3    H239199   5.120   2.677  10.755
 5074TIP3   OH239200   4.352   2.895  10.111
 5074TIP3    H139201   4.323   2.860  10.023
 5074TIP3    H239202   4.417   2.826  10.137
 5075TIP3   OH239203   4.479   3.215  10.379
 5075TIP3    H139204   4.490   3.193  10.285
 5075TIP3    H239205   4.570   3.207  10.414
 5076TIP3   OH239206   4.384   2.762  10.470
 5076TIP3    H139207   4.443   2.759  10.391
 5076TIP3    H239208   4.429   2.804  10.545
 5077TIP3   OH239209   5.029   3.328  10.544
 5077TIP3    H139210   4.999   3.395  10.605
 5077TIP3    H239211   5.001   3.243  10.586
 5078TIP3   OH239212   4.493   3.236  10.930
 5078TIP3    H139213   4.448   3.290  10.996
 5078TIP3    H239214   4.417   3.204  10.878
 5079TIP3   OH239215   5.081   2.752   9.680
 5079TIP3    H139216   5.136   2.769   9.760
 5079TIP3    H239217   5.127   2.801   9.608
 5080TIP3   OH239218   4.177   2.835  10.856
 5080TIP3    H139219   4.179   2.896  10.932
 5080TIP3    H239220   4.082   2.835  10.835
 5081TIP3   OH239221   4.851   3.422  10.029
 5081TIP3    H139222   4.894   3.454  10.109
 5081TIP3    H239223   4.796   3.498  10.003
 5082TIP3   OH239224   5.455   1.921   9.671
 5082TIP3    H139225   5.360   1.932   9.695
 5082TIP3    H239226   5.474   2.006   9.627
 5083TIP3   OH239227   4.240   2.799   9.878
 5083TIP3    H139228   4.227   2.878   9.819
 5083TIP3    H239229   4.192   2.733   9.829
 5084TIP3   OH239230   5.564   3.359   9.506
 5084TIP3    H139231   5.582   3.453   9.523
 5084TIP3    H239232   5.656   3.327   9.507
 5085TIP3   OH239233   3.862   3.042  10.751
 5085TIP3    H139234   3.814   3.035  10.667
 5085TIP3    H239235   3.865   2.949  10.779
 5086TIP3   OH239236   3.836   3.316  10.434
 5086TIP3    H139237   3.932   3.304  10.432
 5086TIP3    H239238   3.828   3.396  10.488
 5087TIP3   OH239239   4.743   3.314  10.866
 5087TIP3    H139240   4.754   3.404  10.900
 5087TIP3    H239241   4.657   3.286  10.906
 5088TIP3   OH239242   4.800   3.713   9.868
 5088TIP3    H139243   4.788   3.706   9.772
 5088TIP3    H239244   4.800   3.810   9.885
 5089TIP3   OH239245   4.163   3.602  10.051
 5089TIP3    H139246   4.178   3.561  10.139
 5089TIP3    H239247   4.079   3.561  10.028
 5090TIP3   OH239248   5.105   3.635   9.567
 5090TIP3    H139249   5.151   3.560   9.524
 5090TIP3    H239250   5.109   3.610   9.661
 5091TIP3   OH239251   5.075   3.629   9.845
 5091TIP3    H139252   4.979   3.637   9.861
 5091TIP3    H239253   5.097   3.554   9.902
 5092TIP3   OH239254   4.090   3.168  10.845
 5092TIP3    H139255   4.110   3.136  10.934
 5092TIP3    H239256   3.998   3.136  10.828
 5093TIP3   OH239257   4.359   2.022  10.438
 5093TIP3    H139258   4.266   2.008  10.408
 5093TIP3    H239259   4.344   2.099  10.497
 5094TIP3   OH239260   4.819   1.995  10.784
 5094TIP3    H139261   4.858   1.948  10.859
 5094TIP3    H239262   4.723   1.978  10.798
 5095TIP3   OH239263   5.128   2.369  10.866
 5095TIP3    H139264   5.102   2.356  10.959
 5095TIP3    H239265   5.135   2.466  10.852
 5096TIP3   OH239266   5.225   2.855   9.464
 5096TIP3    H139267   5.222   2.835   9.368
 5096TIP3    H239268   5.311   2.899   9.467
 5097TIP3   OH239269   4.784   2.247   9.513
 5097TIP3    H139270   4.752   2.240   9.604
 5097TIP3    H239271   4.754   2.159   9.482
 5098TIP3   OH239272   4.365   2.516  10.578
 5098TIP3    H139273   4.287   2.512  10.636
 5098TIP3    H239274   4.355   2.602  10.532
 5099TIP3   OH239275   4.359   2.540  10.053
 5099TIP3    H139276   4.272   2.497  10.048
 5099TIP3    H239277   4.403   2.501   9.974
 5100TIP3   OH239278   4.915   2.581   9.936
 5100TIP3    H139279   4.876   2.663   9.898
 5100TIP3    H239280   4.983   2.563   9.869
 5101TIP3   OH239281   5.019   2.530  10.220
 5101TIP3    H139282   4.989   2.586  10.146
 5101TIP3    H239283   5.028   2.445  10.173
 5102TIP3   OH239284   4.130   2.552  10.746
 5102TIP3    H139285   4.133   2.581  10.838
 5102TIP3    H239286   4.087   2.464  10.751
 5103TIP3   OH239287   4.466   2.282   9.424
 5103TIP3    H139288   4.420   2.241   9.500
 5103TIP3    H239289   4.395   2.327   9.376
 5104TIP3   OH239290   3.796   2.259  10.135
 5104TIP3    H139291   3.861   2.247  10.209
 5104TIP3    H239292   3.839   2.212  10.061
 5105TIP3   OH239293   3.926   2.330   9.680
 5105TIP3    H139294   3.972   2.383   9.612
 5105TIP3    H239295   3.850   2.389   9.699
 5106TIP3   OH239296   4.942   2.686  10.682
 5106TIP3    H139297   4.977   2.620  10.619
 5106TIP3    H239298   4.888   2.631  10.742
 5107TIP3   OH239299   4.620   2.287  10.160
 5107TIP3    H139300   4.525   2.285  10.186
 5107TIP3    H239301   4.666   2.268  10.242
 5108TIP3   OH239302   4.105   2.428  10.041
 5108TIP3    H139303   4.010   2.416  10.025
 5108TIP3    H239304   4.137   2.339  10.012
 5109TIP3   OH239305   4.461   2.448   9.810
 5109TIP3    H139306   4.558   2.454   9.823
 5109TIP3    H239307   4.442   2.513   9.740
 5110TIP3   OH239308   5.060   2.208  10.484
 5110TIP3    H139309   4.989   2.215  10.552
 5110TIP3    H239310   5.010   2.183  10.405
 5111TIP3   OH239311   4.332   2.564   9.567
 5111TIP3    H139312   4.281   2.525   9.494
 5111TIP3    H239313   4.415   2.584   9.520
 5112TIP3   OH239314   4.744   2.563  10.348
 5112TIP3    H139315   4.805   2.511  10.294
 5112TIP3    H239316   4.733   2.505  10.425
 5113TIP3   OH239317   4.244   2.176   9.987
 5113TIP3    H139318   4.217   2.082   9.991
 5113TIP3    H239319   4.327   2.167   9.938
 5114TIP3   OH239320   4.610   2.394  10.587
 5114TIP3    H139321   4.526   2.443  10.596
 5114TIP3    H239322   4.665   2.429  10.659
 5115TIP3   OH239323   4.669   3.016   9.759
 5115TIP3    H139324   4.589   2.970   9.725
 5115TIP3    H239325   4.646   3.029   9.853
 5116TIP3   OH239326   5.391   2.931  10.640
 5116TIP3    H139327   5.444   2.984  10.578
 5116TIP3    H239328   5.304   2.938  10.595
 5117TIP3   OH239329   5.051   2.300   9.574
 5117TIP3    H139330   4.956   2.314   9.563
 5117TIP3    H239331   5.085   2.383   9.612
 5118TIP3   OH239332   4.812   3.043  10.870
 5118TIP3    H139333   4.786   3.001  10.953
 5118TIP3    H239334   4.790   3.136  10.886
 5119TIP3   OH239335   5.125   2.491   9.738
 5119TIP3    H139336   5.213   2.477   9.780
 5119TIP3    H239337   5.137   2.573   9.687
 5120TIP3   OH239338   4.197   2.955  10.347
 5120TIP3    H139339   4.239   2.942  10.260
 5120TIP3    H239340   4.179   2.866  10.382
 5121TIP3   OH239341   4.877   3.162   9.662
 5121TIP3    H139342   4.843   3.247   9.697
 5121TIP3    H239343   4.804   3.101   9.684
 5122TIP3   OH239344   3.873   2.800  10.867
 5122TIP3    H139345   3.897   2.753  10.948
 5122TIP3    H239346   3.819   2.734  10.819
 5123TIP3   OH239347   5.044   3.286  10.879
 5123TIP3    H139348   4.953   3.303  10.852
 5123TIP3    H239349   5.049   3.311  10.971
 5124TIP3   OH239350   5.616   2.502   9.716
 5124TIP3    H139351   5.558   2.475   9.642
 5124TIP3    H239352   5.623   2.597   9.693
 5125TIP3   OH239353   5.440   3.386   9.755
 5125TIP3    H139354   5.408   3.302   9.791
 5125TIP3    H239355   5.477   3.363   9.668
 5126TIP3   OH239356   5.166   2.867  10.468
 5126TIP3    H139357   5.072   2.847  10.455
 5126TIP3    H239358   5.208   2.792  10.421
 5127TIP3   OH239359   4.417   3.302  10.082
 5127TIP3    H139360   4.467   3.382  10.056
 5127TIP3    H239361   4.330   3.324  10.043
 5128TIP3   OH239362   3.996   2.781   9.542
 5128TIP3    H139363   4.052   2.854   9.573
 5128TIP3    H239364   3.905   2.817   9.555
 5129TIP3   OH239365   4.559   3.068  10.032
 5129TIP3    H139366   4.527   3.160  10.035
 5129TIP3    H239367   4.484   3.018  10.070
 5130TIP3   OH239368   4.602   3.486  10.670
 5130TIP3    H139369   4.651   3.566  10.643
 5130TIP3    H239370   4.664   3.447  10.733
 5131TIP3   OH239371   4.427   3.566   9.981
 5131TIP3    H139372   4.330   3.581   9.995
 5131TIP3    H239373   4.463   3.649  10.015
 5132TIP3   OH239374   4.952   3.083  10.626
 5132TIP3    H139375   4.925   3.068  10.719
 5132TIP3    H239376   5.020   3.014  10.614
 5133TIP3   OH239377   5.191   3.195   9.541
 5133TIP3    H139378   5.220   3.146   9.621
 5133TIP3    H239379   5.096   3.175   9.548
 5134TIP3   OH239380   5.214   3.570  10.859
 5134TIP3    H139381   5.167   3.502  10.809
 5134TIP3    H239382   5.255   3.625  10.789
 5135TIP3   OH239383   5.636   3.629   9.567
 5135TIP3    H139384   5.704   3.695   9.545
 5135TIP3    H239385   5.565   3.689   9.595
 5136TIP3   OH239386   4.038   2.272  10.872
 5136TIP3    H139387   3.969   2.304  10.810
 5136TIP3    H239388   4.035   2.177  10.861
 5137TIP3   OH239389   5.267   3.057   9.765
 5137TIP3    H139390   5.243   2.978   9.818
 5137TIP3    H239391   5.363   3.061   9.782
 5138TIP3   OH239392   4.007   3.450  10.663
 5138TIP3    H139393   4.035   3.356  10.665
 5138TIP3    H239394   4.036   3.479  10.751
 5139TIP3   OH239395   4.604   3.301   9.391
 5139TIP3    H139396   4.613   3.225   9.332
 5139TIP3    H239397   4.557   3.258   9.467
 5140TIP3   OH239398   4.479   3.253   9.636
 5140TIP3    H139399   4.508   3.202   9.713
 5140TIP3    H239400   4.489   3.346   9.669
 5141TIP3   OH239401   4.136   2.977   9.689
 5141TIP3    H139402   4.062   3.020   9.736
 5141TIP3    H239403   4.184   3.054   9.653
 5142TIP3   OH239404   4.915   2.245  10.712
 5142TIP3    H139405   4.986   2.250  10.776
 5142TIP3    H239406   4.876   2.157  10.730
 5143TIP3   OH239407   4.990   2.203   9.825
 5143TIP3    H139408   5.014   2.249   9.742
 5143TIP3    H239409   5.049   2.247   9.888
 5144TIP3   OH239410   4.760   3.419   9.705
 5144TIP3    H139411   4.678   3.472   9.713
 5144TIP3    H239412   4.814   3.475   9.647
 5145TIP3   OH239413   4.715   2.378   9.907
 5145TIP3    H139414   4.792   2.437   9.912
 5145TIP3    H239415   4.687   2.364  10.000
 5146TIP3   OH239416   4.780   2.489  10.820
 5146TIP3    H139417   4.779   2.538  10.903
 5146TIP3    H239418   4.829   2.406  10.835
 5147TIP3   OH239419   4.800   2.083   9.994
 5147TIP3    H139420   4.766   2.149  10.057
 5147TIP3    H239421   4.870   2.138   9.950
 5148TIP3   OH239422   4.501   3.522   9.709
 5148TIP3    H139423   4.510   3.604   9.653
 5148TIP3    H239424   4.473   3.559   9.795
 5149TIP3   OH239425   4.365   2.194   9.665
 5149TIP3    H139426   4.361   2.284   9.703
 5149TIP3    H239427   4.456   2.169   9.692
 5150TIP3   OH239428   5.392   2.298  10.858
 5150TIP3    H139429   5.295   2.303  10.867
 5150TIP3    H239430   5.408   2.253  10.775
 5151TIP3   OH239431   5.250   2.646  10.310
 5151TIP3    H139432   5.167   2.601  10.283
 5151TIP3    H239433   5.298   2.578  10.362
 5152TIP3   OH239434   4.188   3.239   9.569
 5152TIP3    H139435   4.255   3.300   9.602
 5152TIP3    H239436   4.240   3.192   9.501
 5153TIP3   OH239437   4.020   2.507   9.488
 5153TIP3    H139438   4.024   2.603   9.503
 5153TIP3    H239439   3.933   2.490   9.450
 5154TIP3   OH239440   5.356   3.573  10.477
 5154TIP3    H139441   5.346   3.641  10.408
 5154TIP3    H239442   5.452   3.579  10.494
 5155TIP3   OH239443   4.108   1.979  10.359
 5155TIP3    H139444   4.085   1.988  10.264
 5155TIP3    H239445   4.062   1.897  10.383
 5156TIP3   OH239446   4.000   3.377   9.975
 5156TIP3    H139447   3.914   3.421   9.968
 5156TIP3    H239448   4.047   3.422   9.903
 5157TIP3   OH239449   4.803   3.486   9.403
 5157TIP3    H139450   4.733   3.420   9.424
 5157TIP3    H239451   4.874   3.425   9.378
 5158TIP3   OH239452   5.258   3.460   9.421
 5158TIP3    H139453   5.287   3.382   9.472
 5158TIP3    H239454   5.334   3.481   9.366
 5159TIP3   OH239455   4.347   3.054   9.402
 5159TIP3    H139456   4.361   2.979   9.462
 5159TIP3    H239457   4.422   3.042   9.342
 5160TIP3   OH239458   4.890   3.165   9.381
 5160TIP3    H139459   4.863   3.172   9.474
 5160TIP3    H239460   4.871   3.070   9.366
 5161TIP3   OH239461   5.150   3.003  10.865
 5161TIP3    H139462   5.230   3.060  10.870
 5161TIP3    H239463   5.083   3.071  10.885
 5162TIP3   OH239464   4.466   2.856   9.647
 5162TIP3    H139465   4.417   2.801   9.708
 5162TIP3    H239466   4.497   2.790   9.581
 5163TIP3   OH239467   4.401   2.658  10.873
 5163TIP3    H139468   4.327   2.717  10.893
 5163TIP3    H239469   4.428   2.682  10.783
 5164TIP3   OH239470   4.575   2.679   9.465
 5164TIP3    H139471   4.561   2.669   9.368
 5164TIP3    H239472   4.673   2.683   9.473
 5165TIP3   OH239473   5.506   2.910   9.407
 5165TIP3    H139474   5.488   2.872   9.319
 5165TIP3    H239475   5.516   3.006   9.388
 5166TIP3   OH239476   4.411   2.419  10.955
 5166TIP3    H139477   4.451   2.344  10.909
 5166TIP3    H239478   4.431   2.493  10.895
 5167TIP3   OH239479   4.481   2.211  10.739
 5167TIP3    H139480   4.527   2.260  10.667
 5167TIP3    H239481   4.391   2.203  10.699
 5168TIP3   OH239482   4.627   2.753  10.752
 5168TIP3    H139483   4.709   2.744  10.703
 5168TIP3    H239484   4.597   2.843  10.733
 5169TIP3   OH239485   4.555   1.955  10.777
 5169TIP3    H139486   4.537   2.052  10.775
 5169TIP3    H239487   4.479   1.921  10.728
 5170TIP3   OH239488   4.557   3.749   9.575
 5170TIP3    H139489   4.654   3.756   9.581
 5170TIP3    H239490   4.543   3.807   9.499
 5171TIP3   OH239491   3.912   3.204   9.521
 5171TIP3    H139492   4.008   3.214   9.538
 5171TIP3    H239493   3.917   3.141   9.445
 5172TIP3   OH239494   3.791   3.743  10.017
 5172TIP3    H139495   3.719   3.695   9.972
 5172TIP3    H239496   3.819   3.679  10.084
 5173TIP3   OH239497   3.873   3.558  10.206
 5173TIP3    H139498   3.838   3.470  10.226
 5173TIP3    H239499   3.896   3.591  10.294
 5174TIP3   OH239500   5.628   3.635  10.500
 5174TIP3    H139501   5.632   3.651  10.596
 5174TIP3    H239502   5.697   3.695  10.468
 5175TIP3   OH239503   5.586   3.597  10.790
 5175TIP3    H139504   5.538   3.521  10.752
 5175TIP3    H239505   5.635   3.555  10.861
 5176TIP3   OH239506   5.561   3.002   9.802
 5176TIP3    H139507   5.648   3.041   9.821
 5176TIP3    H239508   5.559   2.931   9.869
 5177TIP3   OH239509   5.596   2.810   9.991
 5177TIP3    H139510   5.521   2.760  10.031
 5177TIP3    H239511   5.656   2.822  10.068
 5178TIP3   OH239512   5.572   3.078  10.490
 5178TIP3    H139513   5.653   3.039  10.452
 5178TIP3    H239514   5.586   3.173  10.471
 5179TIP3   OH239515   5.425   3.370  10.718
 5179TIP3    H139516   5.357   3.402  10.779
 5179TIP3    H239517   5.373   3.328  10.646
 5180TIP3   OH239518   5.627   2.792   9.630
 5180TIP3    H139519   5.569   2.825   9.558
 5180TIP3    H239520   5.616   2.863   9.696
 5181TIP3   OH239521   5.464   2.514   9.481
 5181TIP3    H139522   5.472   2.580   9.412
 5181TIP3    H239523   5.445   2.431   9.431
 5182TIP3   OH239524   5.379   2.657  10.049
 5182TIP3    H139525   5.364   2.561  10.044
 5182TIP3    H239526   5.347   2.677  10.139
 5183TIP3   OH239527   3.881   2.869  10.453
 5183TIP3    H139528   3.896   2.854  10.358
 5183TIP3    H239529   3.966   2.843  10.492
 5184TIP3   OH239530   5.390   2.260   9.395
 5184TIP3    H139531   5.448   2.216   9.461
 5184TIP3    H239532   5.302   2.221   9.411
 5185TIP3   OH239533   5.342   2.415   9.889
 5185TIP3    H139534   5.374   2.323   9.906
 5185TIP3    H239535   5.425   2.456   9.860
 5186TIP3   OH239536   5.410   2.469  10.437
 5186TIP3    H139537   5.506   2.492  10.437
 5186TIP3    H239538   5.391   2.483  10.531
 5187TIP3   OH239539   5.417   2.544  10.715
 5187TIP3    H139540   5.328   2.571  10.748
 5187TIP3    H239541   5.459   2.630  10.693
 5188TIP3   OH239542   5.414   2.145   9.899
 5188TIP3    H139543   5.435   2.101   9.985
 5188TIP3    H239544   5.353   2.081   9.856
 5189TIP3   OH239545   3.974   2.217  10.322
 5189TIP3    H139546   4.001   2.141  10.377
 5189TIP3    H239547   3.998   2.286  10.389
 5190TIP3   OH239548   3.782   2.532  10.447
 5190TIP3    H139549   3.849   2.494  10.388
 5190TIP3    H239550   3.836   2.600  10.489
 5191TIP3   OH239551   5.594   2.148   9.555
 5191TIP3    H139552   5.634   2.078   9.499
 5191TIP3    H239553   5.665   2.213   9.559
 5192TIP3   OH239554   3.826   2.158   9.870
 5192TIP3    H139555   3.731   2.165   9.850
 5192TIP3    H239556   3.866   2.198   9.791
 5193TIP3   OH239557   5.299   3.646  10.061
 5193TIP3    H139558   5.368   3.616   9.999
 5193TIP3    H239559   5.351   3.695  10.127
 5194TIP3   OH239560   3.820   2.017  10.693
 5194TIP3    H139561   3.753   2.001  10.762
 5194TIP3    H239562   3.779   2.089  10.641
 5195TIP3   OH239563   4.331   3.430  10.729
 5195TIP3    H139564   4.299   3.519  10.712
 5195TIP3    H239565   4.427   3.446  10.714
 5196TIP3   OH239566   4.991   3.716  -0.030
 5196TIP3    H139567   5.063   3.654  -0.054
 5196TIP3    H239568   5.033   3.747   0.052
 5197TIP3   OH239569   5.500   1.969  10.862
 5197TIP3    H139570   5.410   1.993  10.833
 5197TIP3    H239571   5.512   1.881  10.820
 5198TIP3   OH239572   4.073   3.759  10.738
 5198TIP3    H139573   3.999   3.812  10.704
 5198TIP3    H239574   4.046   3.740  10.830
 5199TIP3   OH239575   4.321   3.717  10.638
 5199TIP3    H139576   4.238   3.734  10.689
 5199TIP3    H239577   4.316   3.782  10.567
 5200TIP3   OH239578   4.791   3.707  10.565
 5200TIP3    H139579   4.748   3.764  10.499
 5200TIP3    H239580   4.806   3.772  10.638
 5201TIP3   OH239581   5.023   3.585  10.656
 5201TIP3    H139582   4.936   3.619  10.628
 5201TIP3    H239583   5.070   3.670  10.657
 5202TIP3   OH239584   5.290   3.749  10.686
 5202TIP3    H139585   5.276   3.844  10.663
 5202TIP3    H239586   5.304   3.709  10.598
 5203TIP3   OH239587   4.024   3.625  10.432
 5203TIP3    H139588   4.016   3.580  10.520
 5203TIP3    H239589   4.106   3.585  10.395
 5204TIP3   OH239590   4.232   3.495  10.297
 5204TIP3    H139591   4.214   3.403  10.323
 5204TIP3    H239592   4.316   3.514  10.344
 5205TIP3   OH239593   4.492   3.546  10.384
 5205TIP3    H139594   4.507   3.453  10.359
 5205TIP3    H239595   4.496   3.542  10.481
 5206TIP3   OH239596   4.836   2.110  10.302
 5206TIP3    H139597   4.768   2.046  10.328
 5206TIP3    H239598   4.890   2.057  10.242
 5207TIP3   OH239599   5.350   1.914  10.306
 5207TIP3    H139600   5.411   1.973  10.254
 5207TIP3    H239601   5.261   1.949  10.282
 5208TIP3   OH239602   5.517   2.039  10.134
 5208TIP3    H139603   5.584   1.981  10.091
 5208TIP3    H239604   5.569   2.123  10.144
 5209TIP3   OH239605   4.074   1.971  10.085
 5209TIP3    H139606   3.995   1.953  10.032
 5209TIP3    H239607   4.119   1.885  10.079
 5210TIP3   OH239608   3.949   1.947   9.656
 5210TIP3    H139609   4.000   2.012   9.603
 5210TIP3    H239610   3.894   2.005   9.711
 5211TIP3   OH239611   4.519   1.965  10.064
 5211TIP3    H139612   4.610   1.998  10.055
 5211TIP3    H239613   4.517   1.944  10.158
 5212TIP3   OH239614   5.094   1.965  10.223
 5212TIP3    H139615   5.086   1.975  10.128
 5212TIP3    H239616   5.053   1.875  10.237
 5213TIP3   OH239617   5.224   1.978   9.790
 5213TIP3    H139618   5.143   2.030   9.778
 5213TIP3    H239619   5.182   1.893   9.820
 5214TIP3   OH239620   3.941   3.542   9.761
 5214TIP3    H139621   3.876   3.540   9.688
 5214TIP3    H239622   3.941   3.637   9.777
 5215TIP3   OH239623   4.132   2.141   9.509
 5215TIP3    H139624   4.185   2.080   9.455
 5215TIP3    H239625   4.199   2.174   9.571
 5216TIP3   OH239626   4.633   2.166   9.749
 5216TIP3    H139627   4.661   2.109   9.823
 5216TIP3    H239628   4.644   2.253   9.793
 5217TIP3   OH239629   4.829   3.674   9.593
 5217TIP3    H139630   4.922   3.695   9.571
 5217TIP3    H239631   4.807   3.621   9.513
 5218TIP3   OH239632   5.497   3.623   9.866
 5218TIP3    H139633   5.479   3.544   9.809
 5218TIP3    H239634   5.491   3.696   9.801
 5219TIP3   OH239635   4.120   3.641   9.454
 5219TIP3    H139636   4.094   3.667   9.544
 5219TIP3    H239637   4.199   3.585   9.469
 5220TIP3   OH239638   6.869   2.886  10.068
 5220TIP3    H139639   6.865   2.984  10.068
 5220TIP3    H239640   6.795   2.863  10.010
 5221TIP3   OH239641   6.753   2.812  10.419
 5221TIP3    H139642   6.753   2.748  10.491
 5221TIP3    H239643   6.717   2.760  10.344
 5222TIP3   OH239644   5.989   2.778  10.574
 5222TIP3    H139645   5.997   2.710  10.643
 5222TIP3    H239646   6.063   2.836  10.597
 5223TIP3   OH239647   7.121   3.107  10.248
 5223TIP3    H139648   7.079   3.036  10.297
 5223TIP3    H239649   7.124   3.177  10.316
 5224TIP3   OH239650   6.081   3.224  10.423
 5224TIP3    H139651   6.051   3.136  10.393
 5224TIP3    H239652   6.176   3.206  10.432
 5225TIP3   OH239653   5.744   2.579   9.975
 5225TIP3    H139654   5.701   2.666   9.968
 5225TIP3    H239655   5.688   2.525   9.917
 5226TIP3   OH239656   5.816   2.802  10.191
 5226TIP3    H139657   5.844   2.719  10.234
 5226TIP3    H239658   5.884   2.813  10.123
 5227TIP3   OH239659   6.833   3.622  10.274
 5227TIP3    H139660   6.898   3.554  10.243
 5227TIP3    H239661   6.813   3.587  10.361
 5228TIP3   OH239662   6.590   3.050  10.473
 5228TIP3    H139663   6.623   2.991  10.404
 5228TIP3    H239664   6.673   3.068  10.520
 5229TIP3   OH239665   7.450   2.219  10.542
 5229TIP3    H139666   7.467   2.278  10.618
 5229TIP3    H239667   7.510   2.258  10.476
 5230TIP3   OH239668   6.899   2.494  10.502
 5230TIP3    H139669   6.928   2.401  10.498
 5230TIP3    H239670   6.897   2.513  10.405
 5231TIP3   OH239671   6.218   2.307  10.220
 5231TIP3    H139672   6.230   2.390  10.170
 5231TIP3    H239673   6.179   2.250  10.151
 5232TIP3   OH239674   6.992   2.314  10.057
 5232TIP3    H139675   7.056   2.283  10.125
 5232TIP3    H239676   7.049   2.373  10.006
 5233TIP3   OH239677   5.881   2.549  10.293
 5233TIP3    H139678   5.947   2.495  10.339
 5233TIP3    H239679   5.892   2.517  10.202
 5234TIP3   OH239680   6.396   2.704  10.227
 5234TIP3    H139681   6.464   2.646  10.265
 5234TIP3    H239682   6.346   2.639  10.175
 5235TIP3   OH239683   7.511   2.376  10.765
 5235TIP3    H139684   7.432   2.434  10.754
 5235TIP3    H239685   7.497   2.348  10.857
 5236TIP3   OH239686   6.114   2.198  10.621
 5236TIP3    H139687   6.081   2.255  10.549
 5236TIP3    H239688   6.044   2.217  10.689
 5237TIP3   OH239689   6.838   3.144   9.979
 5237TIP3    H139690   6.813   3.118   9.889
 5237TIP3    H239691   6.808   3.238   9.984
 5238TIP3   OH239692   6.360   2.961  10.652
 5238TIP3    H139693   6.290   3.027  10.670
 5238TIP3    H239694   6.431   3.020  10.619
 5239TIP3   OH239695   7.171   2.252  10.262
 5239TIP3    H139696   7.153   2.173  10.312
 5239TIP3    H239697   7.243   2.293  10.312
 5240TIP3   OH239698   6.065   2.383  10.425
 5240TIP3    H139699   6.127   2.453  10.457
 5240TIP3    H239700   6.118   2.342  10.352
 5241TIP3   OH239701   6.208   3.163  10.730
 5241TIP3    H139702   6.200   3.256  10.701
 5241TIP3    H239703   6.120   3.154  10.775
 5242TIP3   OH239704   5.814   3.122   9.808
 5242TIP3    H139705   5.789   3.157   9.721
 5242TIP3    H239706   5.822   3.204   9.861
 5243TIP3   OH239707   7.174   3.291  10.486
 5243TIP3    H139708   7.077   3.301  10.497
 5243TIP3    H239709   7.201   3.382  10.465
 5244TIP3   OH239710   7.203   2.122  10.628
 5244TIP3    H139711   7.132   2.185  10.612
 5244TIP3    H239712   7.276   2.158  10.574
 5245TIP3   OH239713   6.502   1.931  10.370
 5245TIP3    H139714   6.488   1.835  10.363
 5245TIP3    H239715   6.414   1.960  10.401
 5246TIP3   OH239716   7.001   3.469  10.144
 5246TIP3    H139717   7.043   3.396  10.093
 5246TIP3    H239718   7.046   3.547  10.106
 5247TIP3   OH239719   7.122   3.261   9.996
 5247TIP3    H139720   7.092   3.192   9.935
 5247TIP3    H239721   7.125   3.212  10.080
 5248TIP3   OH239722   7.288   3.118  10.843
 5248TIP3    H139723   7.298   3.059  10.766
 5248TIP3    H239724   7.309   3.206  10.806
 5249TIP3   OH239725   6.732   2.808   9.821
 5249TIP3    H139726   6.664   2.868   9.785
 5249TIP3    H239727   6.804   2.819   9.756
 5250TIP3   OH239728   6.742   2.668   9.522
 5250TIP3    H139729   6.812   2.666   9.589
 5250TIP3    H239730   6.772   2.595   9.467
 5251TIP3   OH239731   7.474   2.749  10.648
 5251TIP3    H139732   7.411   2.824  10.657
 5251TIP3    H239733   7.521   2.777  10.567
 5252TIP3   OH239734   7.080   2.829   9.912
 5252TIP3    H139735   7.006   2.854   9.972
 5252TIP3    H239736   7.127   2.763   9.966
 5253TIP3   OH239737   7.065   2.643  10.831
 5253TIP3    H139738   7.070   2.728  10.877
 5253TIP3    H239739   7.010   2.675  10.756
 5254TIP3   OH239740   6.239   2.896  10.106
 5254TIP3    H139741   6.207   2.857  10.021
 5254TIP3    H239742   6.301   2.827  10.139
 5255TIP3   OH239743   6.371   3.233  10.373
 5255TIP3    H139744   6.371   3.182  10.291
 5255TIP3    H239745   6.450   3.199  10.418
 5256TIP3   OH239746   6.275   2.770  10.473
 5256TIP3    H139747   6.327   2.781  10.391
 5256TIP3    H239748   6.313   2.837  10.535
 5257TIP3   OH239749   6.916   3.328  10.544
 5257TIP3    H139750   6.884   3.395  10.605
 5257TIP3    H239751   6.888   3.244  10.586
 5258TIP3   OH239752   6.380   3.235  10.931
 5258TIP3    H139753   6.332   3.288  10.996
 5258TIP3    H239754   6.305   3.203  10.876
 5259TIP3   OH239755   6.966   2.752   9.680
 5259TIP3    H139756   7.022   2.769   9.760
 5259TIP3    H239757   7.013   2.801   9.608
 5260TIP3   OH239758   6.061   2.831  10.862
 5260TIP3    H139759   6.066   2.897  10.932
 5260TIP3    H239760   5.969   2.838  10.834
 5261TIP3   OH239761   6.737   3.423  10.027
 5261TIP3    H139762   6.780   3.454  10.108
 5261TIP3    H239763   6.682   3.498  10.002
 5262TIP3   OH239764   7.340   1.924   9.671
 5262TIP3    H139765   7.245   1.934   9.694
 5262TIP3    H239766   7.357   2.009   9.628
 5263TIP3   OH239767   6.134   2.798   9.870
 5263TIP3    H139768   6.107   2.876   9.817
 5263TIP3    H239769   6.071   2.731   9.843
 5264TIP3   OH239770   7.451   3.358   9.511
 5264TIP3    H139771   7.467   3.453   9.521
 5264TIP3    H239772   7.543   3.327   9.505
 5265TIP3   OH239773   5.749   3.042  10.750
 5265TIP3    H139774   5.699   3.034  10.666
 5265TIP3    H239775   5.751   2.948  10.779
 5266TIP3   OH239776   5.722   3.316  10.434
 5266TIP3    H139777   5.817   3.303  10.432
 5266TIP3    H239778   5.714   3.396  10.488
 5267TIP3   OH239779   6.628   3.313  10.866
 5267TIP3    H139780   6.639   3.404  10.900
 5267TIP3    H239781   6.542   3.286  10.906
 5268TIP3   OH239782   6.686   3.714   9.868
 5268TIP3    H139783   6.674   3.706   9.772
 5268TIP3    H239784   6.685   3.810   9.884
 5269TIP3   OH239785   6.049   3.602  10.052
 5269TIP3    H139786   6.064   3.561  10.139
 5269TIP3    H239787   5.964   3.561  10.028
 5270TIP3   OH239788   6.991   3.637   9.568
 5270TIP3    H139789   7.036   3.561   9.523
 5270TIP3    H239790   6.995   3.609   9.662
 5271TIP3   OH239791   6.960   3.629   9.845
 5271TIP3    H139792   6.864   3.637   9.861
 5271TIP3    H239793   6.983   3.554   9.902
 5272TIP3   OH239794   5.974   3.170  10.848
 5272TIP3    H139795   5.994   3.135  10.936
 5272TIP3    H239796   5.884   3.135  10.828
 5273TIP3   OH239797   6.243   2.024  10.443
 5273TIP3    H139798   6.153   2.008  10.409
 5273TIP3    H239799   6.227   2.104  10.495
 5274TIP3   OH239800   6.702   2.003  10.788
 5274TIP3    H139801   6.745   1.948  10.857
 5274TIP3    H239802   6.608   1.974  10.797
 5275TIP3   OH239803   7.015   2.370  10.869
 5275TIP3    H139804   6.982   2.355  10.959
 5275TIP3    H239805   7.019   2.466  10.850
 5276TIP3   OH239806   7.113   2.852   9.465
 5276TIP3    H139807   7.107   2.838   9.368
 5276TIP3    H239808   7.196   2.902   9.467
 5277TIP3   OH239809   6.670   2.247   9.513
 5277TIP3    H139810   6.638   2.240   9.605
 5277TIP3    H239811   6.640   2.159   9.482
 5278TIP3   OH239812   6.253   2.520  10.574
 5278TIP3    H139813   6.176   2.518  10.635
 5278TIP3    H239814   6.245   2.609  10.532
 5279TIP3   OH239815   6.249   2.528  10.059
 5279TIP3    H139816   6.154   2.505  10.045
 5279TIP3    H239817   6.285   2.501   9.972
 5280TIP3   OH239818   6.801   2.580   9.936
 5280TIP3    H139819   6.762   2.663   9.898
 5280TIP3    H239820   6.869   2.562   9.869
 5281TIP3   OH239821   6.905   2.530  10.220
 5281TIP3    H139822   6.875   2.586  10.146
 5281TIP3    H239823   6.914   2.445  10.172
 5282TIP3   OH239824   6.010   2.546  10.742
 5282TIP3    H139825   6.022   2.583  10.832
 5282TIP3    H239826   5.974   2.458  10.761
 5283TIP3   OH239827   6.351   2.282   9.424
 5283TIP3    H139828   6.305   2.241   9.501
 5283TIP3    H239829   6.280   2.327   9.376
 5284TIP3   OH239830   5.680   2.253  10.139
 5284TIP3    H139831   5.749   2.249  10.209
 5284TIP3    H239832   5.725   2.217  10.061
 5285TIP3   OH239833   5.806   2.325   9.672
 5285TIP3    H139834   5.859   2.386   9.617
 5285TIP3    H239835   5.738   2.389   9.704
 5286TIP3   OH239836   6.833   2.690  10.679
 5286TIP3    H139837   6.866   2.622  10.616
 5286TIP3    H239838   6.777   2.639  10.741
 5287TIP3   OH239839   6.503   2.287  10.159
 5287TIP3    H139840   6.410   2.286  10.188
 5287TIP3    H239841   6.552   2.267  10.240
 5288TIP3   OH239842   5.984   2.440  10.046
 5288TIP3    H139843   5.896   2.456  10.006
 5288TIP3    H239844   6.013   2.356  10.005
 5289TIP3   OH239845   6.348   2.446   9.809
 5289TIP3    H139846   6.444   2.456   9.823
 5289TIP3    H239847   6.325   2.514   9.742
 5290TIP3   OH239848   6.944   2.209  10.488
 5290TIP3    H139849   6.871   2.214  10.552
 5290TIP3    H239850   6.899   2.183  10.406
 5291TIP3   OH239851   6.220   2.563   9.567
 5291TIP3    H139852   6.166   2.524   9.495
 5291TIP3    H239853   6.302   2.584   9.519
 5292TIP3   OH239854   6.631   2.561  10.348
 5292TIP3    H139855   6.691   2.510  10.292
 5292TIP3    H239856   6.619   2.504  10.424
 5293TIP3   OH239857   6.133   2.176   9.991
 5293TIP3    H139858   6.101   2.083   9.992
 5293TIP3    H239859   6.212   2.168   9.936
 5294TIP3   OH239860   6.492   2.390  10.603
 5294TIP3    H139861   6.412   2.445  10.588
 5294TIP3    H239862   6.553   2.452  10.645
 5295TIP3   OH239863   6.554   3.015   9.759
 5295TIP3    H139864   6.474   2.970   9.725
 5295TIP3    H239865   6.531   3.029   9.853
 5296TIP3   OH239866   7.277   2.931  10.641
 5296TIP3    H139867   7.331   2.985  10.580
 5296TIP3    H239868   7.190   2.938  10.595
 5297TIP3   OH239869   6.937   2.297   9.576
 5297TIP3    H139870   6.842   2.313   9.563
 5297TIP3    H239871   6.971   2.382   9.612
 5298TIP3   OH239872   6.704   3.044  10.874
 5298TIP3    H139873   6.671   3.002  10.955
 5298TIP3    H239874   6.674   3.136  10.885
 5299TIP3   OH239875   7.010   2.491   9.737
 5299TIP3    H139876   7.098   2.477   9.780
 5299TIP3    H239877   7.022   2.573   9.687
 5300TIP3   OH239878   6.066   2.957  10.339
 5300TIP3    H139879   6.132   2.947  10.268
 5300TIP3    H239880   6.071   2.870  10.384
 5301TIP3   OH239881   6.763   3.162   9.662
 5301TIP3    H139882   6.729   3.247   9.697
 5301TIP3    H239883   6.690   3.101   9.684
 5302TIP3   OH239884   5.762   2.799  10.864
 5302TIP3    H139885   5.781   2.755  10.949
 5302TIP3    H239886   5.703   2.735  10.819
 5303TIP3   OH239887   6.930   3.286  10.879
 5303TIP3    H139888   6.839   3.303  10.852
 5303TIP3    H239889   6.935   3.311  10.972
 5304TIP3   OH239890   7.499   2.503   9.718
 5304TIP3    H139891   7.442   2.476   9.644
 5304TIP3    H239892   7.510   2.597   9.693
 5305TIP3   OH239893   7.326   3.386   9.755
 5305TIP3    H139894   7.293   3.302   9.791
 5305TIP3    H239895   7.362   3.364   9.668
 5306TIP3   OH239896   7.052   2.867  10.468
 5306TIP3    H139897   6.958   2.848  10.455
 5306TIP3    H239898   7.094   2.792  10.421
 5307TIP3   OH239899   6.303   3.302  10.078
 5307TIP3    H139900   6.353   3.382  10.057
 5307TIP3    H239901   6.215   3.324  10.044
 5308TIP3   OH239902   5.880   2.785   9.533
 5308TIP3    H139903   5.937   2.851   9.576
 5308TIP3    H239904   5.791   2.815   9.558
 5309TIP3   OH239905   6.443   3.068  10.027
 5309TIP3    H139906   6.411   3.159  10.039
 5309TIP3    H239907   6.373   3.017  10.073
 5310TIP3   OH239908   6.488   3.489  10.672
 5310TIP3    H139909   6.537   3.567  10.643
 5310TIP3    H239910   6.550   3.447  10.733
 5311TIP3   OH239911   6.312   3.566   9.981
 5311TIP3    H139912   6.216   3.581   9.995
 5311TIP3    H239913   6.349   3.650  10.015
 5312TIP3   OH239914   6.842   3.084  10.629
 5312TIP3    H139915   6.809   3.065  10.718
 5312TIP3    H239916   6.905   3.011  10.616
 5313TIP3   OH239917   7.076   3.194   9.541
 5313TIP3    H139918   7.104   3.145   9.621
 5313TIP3    H239919   6.981   3.176   9.546
 5314TIP3   OH239920   7.100   3.570  10.859
 5314TIP3    H139921   7.053   3.502  10.809
 5314TIP3    H239922   7.140   3.625  10.789
 5315TIP3   OH239923   7.522   3.629   9.566
 5315TIP3    H139924   7.591   3.696   9.545
 5315TIP3    H239925   7.450   3.689   9.595
 5316TIP3   OH239926   5.931   2.273  10.817
 5316TIP3    H139927   5.839   2.305  10.814
 5316TIP3    H239928   5.924   2.188  10.863
 5317TIP3   OH239929   7.153   3.057   9.765
 5317TIP3    H139930   7.129   2.978   9.818
 5317TIP3    H239931   7.248   3.061   9.782
 5318TIP3   OH239932   5.892   3.448  10.662
 5318TIP3    H139933   5.921   3.355  10.663
 5318TIP3    H239934   5.920   3.476  10.750
 5319TIP3   OH239935   6.489   3.301   9.391
 5319TIP3    H139936   6.498   3.225   9.332
 5319TIP3    H239937   6.443   3.258   9.467
 5320TIP3   OH239938   6.365   3.253   9.636
 5320TIP3    H139939   6.394   3.202   9.713
 5320TIP3    H239940   6.375   3.346   9.669
 5321TIP3   OH239941   6.020   2.978   9.685
 5321TIP3    H139942   5.948   3.018   9.737
 5321TIP3    H239943   6.070   3.056   9.654
 5322TIP3   OH239944   6.787   2.249  10.723
 5322TIP3    H139945   6.874   2.249  10.766
 5322TIP3    H239946   6.768   2.152  10.726
 5323TIP3   OH239947   6.876   2.203   9.825
 5323TIP3    H139948   6.899   2.248   9.742
 5323TIP3    H239949   6.935   2.248   9.887
 5324TIP3   OH239950   6.646   3.419   9.705
 5324TIP3    H139951   6.564   3.472   9.712
 5324TIP3    H239952   6.700   3.475   9.647
 5325TIP3   OH239953   6.601   2.378   9.906
 5325TIP3    H139954   6.678   2.437   9.912
 5325TIP3    H239955   6.573   2.365   9.999
 5326TIP3   OH239956   6.689   2.517  10.827
 5326TIP3    H139957   6.662   2.552  10.914
 5326TIP3    H239958   6.744   2.440  10.840
 5327TIP3   OH239959   6.684   2.084   9.994
 5327TIP3    H139960   6.652   2.150  10.057
 5327TIP3    H239961   6.755   2.138   9.950
 5328TIP3   OH239962   6.387   3.522   9.709
 5328TIP3    H139963   6.395   3.604   9.653
 5328TIP3    H239964   6.359   3.559   9.795
 5329TIP3   OH239965   6.251   2.196   9.665
 5329TIP3    H139966   6.246   2.285   9.705
 5329TIP3    H239967   6.341   2.170   9.692
 5330TIP3   OH239968   7.277   2.302  10.857
 5330TIP3    H139969   7.180   2.299  10.863
 5330TIP3    H239970   7.297   2.251  10.777
 5331TIP3   OH239971   7.135   2.646  10.311
 5331TIP3    H139972   7.053   2.602  10.283
 5331TIP3    H239973   7.184   2.578  10.362
 5332TIP3   OH239974   6.074   3.239   9.570
 5332TIP3    H139975   6.141   3.300   9.602
 5332TIP3    H239976   6.126   3.192   9.502
 5333TIP3   OH239977   5.908   2.507   9.484
 5333TIP3    H139978   5.910   2.602   9.507
 5333TIP3    H239979   5.819   2.490   9.453
 5334TIP3   OH239980   7.241   3.572  10.477
 5334TIP3    H139981   7.232   3.641  10.408
 5334TIP3    H239982   7.337   3.579  10.494
 5335TIP3   OH239983   5.990   1.985  10.360
 5335TIP3    H139984   5.972   1.986  10.264
 5335TIP3    H239985   5.949   1.899  10.385
 5336TIP3   OH239986   5.886   3.377   9.975
 5336TIP3    H139987   5.800   3.421   9.968
 5336TIP3    H239988   5.932   3.422   9.903
 5337TIP3   OH239989   6.686   3.487   9.407
 5337TIP3    H139990   6.618   3.418   9.425
 5337TIP3    H239991   6.759   3.429   9.376
 5338TIP3   OH239992   7.149   3.464   9.426
 5338TIP3    H139993   7.173   3.380   9.468
 5338TIP3    H239994   7.218   3.477   9.360
 5339TIP3   OH239995   6.232   3.054   9.402
 5339TIP3    H139996   6.247   2.978   9.462
 5339TIP3    H239997   6.307   3.042   9.341
 5340TIP3   OH239998   6.770   3.163   9.381
 5340TIP3    H139999   6.749   3.172   9.475
 5340TIP3    H240000   6.757   3.067   9.366
 5341TIP3   OH240001   7.038   3.002  10.869
 5341TIP3    H140002   7.117   3.060  10.871
 5341TIP3    H240003   6.969   3.069  10.884
 5342TIP3   OH240004   6.352   2.856   9.647
 5342TIP3    H140005   6.301   2.801   9.709
 5342TIP3    H240006   6.383   2.789   9.582
 5343TIP3   OH240007   6.281   2.650  10.862
 5343TIP3    H140008   6.215   2.715  10.894
 5343TIP3    H240009   6.315   2.690  10.782
 5344TIP3   OH240010   6.460   2.679   9.465
 5344TIP3    H140011   6.446   2.670   9.369
 5344TIP3    H240012   6.558   2.683   9.473
 5345TIP3   OH240013   7.394   2.908   9.407
 5345TIP3    H140014   7.372   2.875   9.318
 5345TIP3    H240015   7.399   3.006   9.390
 5346TIP3   OH240016   6.295   2.418  10.955
 5346TIP3    H140017   6.332   2.343  10.909
 5346TIP3    H240018   6.315   2.495  10.898
 5347TIP3   OH240019   6.362   2.215  10.738
 5347TIP3    H140020   6.404   2.256  10.659
 5347TIP3    H240021   6.271   2.200  10.701
 5348TIP3   OH240022   6.513   2.752  10.754
 5348TIP3    H140023   6.593   2.749  10.701
 5348TIP3    H240024   6.476   2.840  10.731
 5349TIP3   OH240025   6.442   1.960  10.775
 5349TIP3    H140026   6.415   2.053  10.771
 5349TIP3    H240027   6.367   1.918  10.730
 5350TIP3   OH240028   6.442   3.749   9.575
 5350TIP3    H140029   6.539   3.756   9.581
 5350TIP3    H240030   6.429   3.807   9.499
 5351TIP3   OH240031   5.797   3.205   9.522
 5351TIP3    H140032   5.894   3.214   9.539
 5351TIP3    H240033   5.802   3.141   9.446
 5352TIP3   OH240034   5.677   3.743  10.017
 5352TIP3    H140035   5.604   3.695   9.972
 5352TIP3    H240036   5.705   3.679  10.084
 5353TIP3   OH240037   5.759   3.558  10.206
 5353TIP3    H140038   5.723   3.470  10.226
 5353TIP3    H240039   5.782   3.591  10.294
 5354TIP3   OH240040   7.508   3.636  10.501
 5354TIP3    H140041   7.520   3.648  10.597
 5354TIP3    H240042   7.581   3.691  10.468
 5355TIP3   OH240043   7.474   3.597  10.790
 5355TIP3    H140044   7.423   3.522  10.754
 5355TIP3    H240045   7.523   3.553  10.861
 5356TIP3   OH240046   7.447   3.002   9.802
 5356TIP3    H140047   7.533   3.041   9.821
 5356TIP3    H240048   7.444   2.931   9.869
 5357TIP3   OH240049   7.480   2.810   9.991
 5357TIP3    H140050   7.405   2.760  10.031
 5357TIP3    H240051   7.541   2.821  10.067
 5358TIP3   OH240052   7.458   3.077  10.491
 5358TIP3    H140053   7.540   3.040  10.453
 5358TIP3    H240054   7.471   3.172  10.470
 5359TIP3   OH240055   7.311   3.370  10.718
 5359TIP3    H140056   7.244   3.401  10.779
 5359TIP3    H240057   7.260   3.329  10.646
 5360TIP3   OH240058   7.513   2.792   9.630
 5360TIP3    H140059   7.455   2.826   9.559
 5360TIP3    H240060   7.502   2.863   9.696
 5361TIP3   OH240061   7.354   2.513   9.481
 5361TIP3    H140062   7.356   2.582   9.413
 5361TIP3    H240063   7.327   2.433   9.432
 5362TIP3   OH240064   7.263   2.656  10.050
 5362TIP3    H140065   7.250   2.561  10.045
 5362TIP3    H240066   7.232   2.677  10.139
 5363TIP3   OH240067   5.766   2.867  10.455
 5363TIP3    H140068   5.782   2.857  10.358
 5363TIP3    H240069   5.854   2.846  10.491
 5364TIP3   OH240070   7.273   2.264   9.397
 5364TIP3    H140071   7.330   2.218   9.462
 5364TIP3    H240072   7.186   2.222   9.410
 5365TIP3   OH240073   7.228   2.415   9.889
 5365TIP3    H140074   7.260   2.323   9.906
 5365TIP3    H240075   7.310   2.456   9.859
 5366TIP3   OH240076   7.294   2.469  10.438
 5366TIP3    H140077   7.390   2.492  10.435
 5366TIP3    H240078   7.277   2.483  10.532
 5367TIP3   OH240079   7.301   2.545  10.720
 5367TIP3    H140080   7.211   2.572  10.744
 5367TIP3    H240081   7.345   2.629  10.691
 5368TIP3   OH240082   7.297   2.145   9.899
 5368TIP3    H140083   7.320   2.102   9.984
 5368TIP3    H240084   7.238   2.079   9.855
 5369TIP3   OH240085   5.845   2.224  10.356
 5369TIP3    H140086   5.892   2.142  10.380
 5369TIP3    H240087   5.903   2.293  10.393
 5370TIP3   OH240088   5.674   2.523  10.457
 5370TIP3    H140089   5.732   2.498  10.382
 5370TIP3    H240090   5.721   2.603  10.485
 5371TIP3   OH240091   7.479   2.150   9.550
 5371TIP3    H140092   7.523   2.074   9.507
 5371TIP3    H240093   7.550   2.214   9.565
 5372TIP3   OH240094   5.712   2.154   9.867
 5372TIP3    H140095   5.617   2.168   9.850
 5372TIP3    H240096   5.753   2.200   9.792
 5373TIP3   OH240097   7.185   3.645  10.062
 5373TIP3    H140098   7.253   3.616   9.999
 5373TIP3    H240099   7.236   3.695  10.127
 5374TIP3   OH240100   5.707   2.020  10.696
 5374TIP3    H140101   5.639   1.997  10.762
 5374TIP3    H240102   5.660   2.085  10.641
 5375TIP3   OH240103   6.217   3.435  10.736
 5375TIP3    H140104   6.185   3.522  10.708
 5375TIP3    H240105   6.312   3.444  10.711
 5376TIP3   OH240106   6.877   3.717  -0.032
 5376TIP3    H140107   6.948   3.654  -0.054
 5376TIP3    H240108   6.918   3.746   0.052
 5377TIP3   OH240109   7.387   1.968  10.861
 5377TIP3    H140110   7.297   1.991  10.833
 5377TIP3    H240111   7.398   1.881  10.820
 5378TIP3   OH240112   5.961   3.762  10.741
 5378TIP3    H140113   5.886   3.810  10.701
 5378TIP3    H240114   5.928   3.738  10.829
 5379TIP3   OH240115   6.208   3.717  10.639
 5379TIP3    H140116   6.123   3.734  10.686
 5379TIP3    H240117   6.202   3.780  10.565
 5380TIP3   OH240118   6.679   3.708  10.566
 5380TIP3    H140119   6.634   3.764  10.499
 5380TIP3    H240120   6.692   3.773  10.638
 5381TIP3   OH240121   6.909   3.585  10.656
 5381TIP3    H140122   6.822   3.619  10.628
 5381TIP3    H240123   6.955   3.670  10.657
 5382TIP3   OH240124   7.177   3.750  10.686
 5382TIP3    H140125   7.162   3.844  10.663
 5382TIP3    H240126   7.190   3.710  10.598
 5383TIP3   OH240127   5.910   3.625  10.433
 5383TIP3    H140128   5.902   3.580  10.519
 5383TIP3    H240129   5.991   3.585  10.395
 5384TIP3   OH240130   6.117   3.496  10.298
 5384TIP3    H140131   6.101   3.402  10.322
 5384TIP3    H240132   6.202   3.512  10.344
 5385TIP3   OH240133   6.378   3.545  10.384
 5385TIP3    H140134   6.392   3.452  10.360
 5385TIP3    H240135   6.382   3.540  10.481
 5386TIP3   OH240136   6.722   2.109  10.304
 5386TIP3    H140137   6.653   2.045  10.327
 5386TIP3    H240138   6.777   2.058  10.243
 5387TIP3   OH240139   7.236   1.915  10.306
 5387TIP3    H140140   7.297   1.973  10.254
 5387TIP3    H240141   7.147   1.949  10.282
 5388TIP3   OH240142   7.402   2.040  10.132
 5388TIP3    H140143   7.471   1.982  10.093
 5388TIP3    H240144   7.454   2.123  10.145
 5389TIP3   OH240145   5.960   1.972  10.086
 5389TIP3    H140146   5.880   1.955  10.034
 5389TIP3    H240147   6.005   1.885  10.080
 5390TIP3   OH240148   5.835   1.947   9.655
 5390TIP3    H140149   5.885   2.014   9.604
 5390TIP3    H240150   5.780   2.004   9.711
 5391TIP3   OH240151   6.405   1.964  10.063
 5391TIP3    H140152   6.495   2.000  10.054
 5391TIP3    H240153   6.403   1.942  10.156
 5392TIP3   OH240154   6.978   1.966  10.227
 5392TIP3    H140155   6.972   1.978  10.131
 5392TIP3    H240156   6.940   1.876  10.238
 5393TIP3   OH240157   7.104   1.969   9.794
 5393TIP3    H140158   7.029   2.028   9.779
 5393TIP3    H240159   7.061   1.884   9.819
 5394TIP3   OH240160   5.827   3.542   9.761
 5394TIP3    H140161   5.761   3.540   9.688
 5394TIP3    H240162   5.827   3.637   9.777
 5395TIP3   OH240163   6.017   2.136   9.511
 5395TIP3    H140164   6.073   2.082   9.453
 5395TIP3    H240165   6.083   2.174   9.571
 5396TIP3   OH240166   6.521   2.165   9.748
 5396TIP3    H140167   6.546   2.108   9.822
 5396TIP3    H240168   6.529   2.252   9.793
 5397TIP3   OH240169   6.715   3.675   9.592
 5397TIP3    H140170   6.807   3.695   9.571
 5397TIP3    H240171   6.693   3.620   9.514
 5398TIP3   OH240172   7.382   3.623   9.866
 5398TIP3    H140173   7.365   3.544   9.808
 5398TIP3    H240174   7.377   3.696   9.801
 5399TIP3   OH240175   6.006   3.641   9.454
 5399TIP3    H140176   5.980   3.667   9.544
 5399TIP3    H240177   6.084   3.584   9.469
 5400TIP3   OH240178   7.873   2.781  10.574
 5400TIP3    H140179   7.885   2.712  10.642
 5400TIP3    H240180   7.950   2.835  10.596
 5401TIP3   OH240181   7.946   3.214  10.430
 5401TIP3    H140182   7.931   3.125  10.394
 5401TIP3    H240183   8.044   3.214  10.436
 5402TIP3   OH240184   7.627   2.578   9.974
 5402TIP3    H140185   7.586   2.667   9.968
 5402TIP3    H240186   7.570   2.525   9.917
 5403TIP3   OH240187   7.702   2.803  10.190
 5403TIP3    H140188   7.729   2.720  10.234
 5403TIP3    H240189   7.772   2.813  10.123
 5404TIP3   OH240190   7.762   2.546  10.294
 5404TIP3    H140191   7.832   2.495  10.339
 5404TIP3    H240192   7.781   2.517  10.203
 5405TIP3   OH240193   7.976   2.194  10.619
 5405TIP3    H140194   7.963   2.259  10.546
 5405TIP3    H240195   7.917   2.227  10.688
 5406TIP3   OH240196   7.939   2.370  10.417
 5406TIP3    H140197   7.994   2.441  10.460
 5406TIP3    H240198   7.999   2.340  10.346
 5407TIP3   OH240199   8.057   3.191  10.701
 5407TIP3    H140200   8.072   3.286  10.704
 5407TIP3    H240201   8.001   3.172  10.778
 5408TIP3   OH240202   7.705   3.123   9.810
 5408TIP3    H140203   7.674   3.156   9.724
 5408TIP3    H240204   7.706   3.206   9.862
 5409TIP3   OH240205   7.925   2.801  10.866
 5409TIP3    H140206   7.951   2.880  10.919
 5409TIP3    H240207   7.844   2.837  10.829
 5410TIP3   OH240208   8.018   2.802   9.863
 5410TIP3    H140209   7.990   2.882   9.816
 5410TIP3    H240210   7.951   2.737   9.843
 5411TIP3   OH240211   7.626   3.038  10.753
 5411TIP3    H140212   7.586   3.032  10.665
 5411TIP3    H240213   7.636   2.945  10.781
 5412TIP3   OH240214   7.608   3.317  10.436
 5412TIP3    H140215   7.704   3.304  10.432
 5412TIP3    H240216   7.602   3.397  10.488
 5413TIP3   OH240217   7.923   3.592  10.053
 5413TIP3    H140218   7.940   3.554  10.142
 5413TIP3    H240219   7.837   3.552  10.033
 5414TIP3   OH240220   7.802   3.212  10.846
 5414TIP3    H140221   7.858   3.171  10.915
 5414TIP3    H240222   7.753   3.132  10.816
 5415TIP3   OH240223   7.901   2.545  10.748
 5415TIP3    H140224   7.900   2.587  10.836
 5415TIP3    H240225   7.862   2.457  10.763
 5416TIP3   OH240226   7.563   2.252  10.138
 5416TIP3    H140227   7.631   2.249  10.209
 5416TIP3    H240228   7.611   2.218  10.060
 5417TIP3   OH240229   7.687   2.324   9.672
 5417TIP3    H140230   7.741   2.385   9.619
 5417TIP3    H240231   7.620   2.389   9.705
 5418TIP3   OH240232   7.866   2.445  10.044
 5418TIP3    H140233   7.777   2.453  10.005
 5418TIP3    H240234   7.899   2.358  10.014
 5419TIP3   OH240235   7.969   2.170   9.971
 5419TIP3    H140236   7.964   2.076   9.999
 5419TIP3    H240237   8.065   2.178   9.964
 5420TIP3   OH240238   7.946   2.956  10.333
 5420TIP3    H140239   8.022   2.950  10.273
 5420TIP3    H240240   7.956   2.873  10.385
 5421TIP3   OH240241   7.644   2.800  10.865
 5421TIP3    H140242   7.671   2.755  10.947
 5421TIP3    H240243   7.591   2.734  10.818
 5422TIP3   OH240244   7.770   2.783   9.535
 5422TIP3    H140245   7.823   2.853   9.577
 5422TIP3    H240246   7.679   2.812   9.557
 5423TIP3   OH240247   7.813   2.274  10.826
 5423TIP3    H140248   7.722   2.305  10.810
 5423TIP3    H240249   7.801   2.185  10.862
 5424TIP3   OH240250   7.785   3.449  10.657
 5424TIP3    H140251   7.796   3.353  10.667
 5424TIP3    H240252   7.801   3.477  10.748
 5425TIP3   OH240253   7.907   2.979   9.680
 5425TIP3    H140254   7.835   3.014   9.736
 5425TIP3    H240255   7.955   3.061   9.661
 5426TIP3   OH240256   7.957   3.242   9.563
 5426TIP3    H140257   8.022   3.301   9.604
 5426TIP3    H240258   8.017   3.195   9.504
 5427TIP3   OH240259   7.796   2.503   9.489
 5427TIP3    H140260   7.799   2.601   9.502
 5427TIP3    H240261   7.707   2.491   9.457
 5428TIP3   OH240262   7.873   1.985  10.361
 5428TIP3    H140263   7.862   1.989  10.264
 5428TIP3    H240264   7.836   1.898  10.385
 5429TIP3   OH240265   7.764   3.377   9.973
 5429TIP3    H140266   7.681   3.425   9.968
 5429TIP3    H240267   7.817   3.421   9.906
 5430TIP3   OH240268   7.687   3.206   9.519
 5430TIP3    H140269   7.783   3.215   9.538
 5430TIP3    H240270   7.690   3.141   9.445
 5431TIP3   OH240271   7.561   3.743  10.017
 5431TIP3    H140272   7.488   3.694   9.972
 5431TIP3    H240273   7.591   3.679  10.084
 5432TIP3   OH240274   7.643   3.556  10.205
 5432TIP3    H140275   7.608   3.469  10.226
 5432TIP3    H240276   7.670   3.589  10.293
 5433TIP3   OH240277   7.652   2.868  10.453
 5433TIP3    H140278   7.673   2.854  10.358
 5433TIP3    H240279   7.740   2.848  10.493
 5434TIP3   OH240280   7.728   2.223  10.356
 5434TIP3    H140281   7.780   2.143  10.376
 5434TIP3    H240282   7.790   2.292  10.389
 5435TIP3   OH240283   7.556   2.522  10.456
 5435TIP3    H140284   7.617   2.499  10.382
 5435TIP3    H240285   7.603   2.602  10.485
 5436TIP3   OH240286   7.596   2.149   9.865
 5436TIP3    H140287   7.502   2.167   9.850
 5436TIP3    H240288   7.637   2.202   9.796
 5437TIP3   OH240289   7.591   2.020  10.697
 5437TIP3    H140290   7.522   1.998  10.762
 5437TIP3    H240291   7.545   2.085  10.640
 5438TIP3   OH240292   7.849   3.769  10.746
 5438TIP3    H140293   7.771   3.807  10.701
 5438TIP3    H240294   7.811   3.739  10.830
 5439TIP3   OH240295   8.075   3.688  10.617
 5439TIP3    H140296   8.008   3.718  10.682
 5439TIP3    H240297   8.089   3.770  10.567
 5440TIP3   OH240298   7.785   3.628  10.434
 5440TIP3    H140299   7.788   3.583  10.521
 5440TIP3    H240300   7.867   3.589  10.396
 5441TIP3   OH240301   7.982   3.497  10.317
 5441TIP3    H140302   7.976   3.399  10.328
 5441TIP3    H240303   8.073   3.508  10.350
 5442TIP3   OH240304   7.838   1.966  10.086
 5442TIP3    H140305   7.759   1.948  10.033
 5442TIP3    H240306   7.889   1.884  10.082
 5443TIP3   OH240307   7.716   1.948   9.649
 5443TIP3    H140308   7.771   2.017   9.606
 5443TIP3    H240309   7.666   2.001   9.713
 5444TIP3   OH240310   7.714   3.543   9.756
 5444TIP3    H140311   7.644   3.541   9.688
 5444TIP3    H240312   7.715   3.638   9.775
 5445TIP3   OH240313   7.902   2.137   9.513
 5445TIP3    H140314   7.960   2.082   9.456
 5445TIP3    H240315   7.965   2.180   9.572
 5446TIP3   OH240316   7.897   3.648   9.454
 5446TIP3    H140317   7.868   3.671   9.544
 5446TIP3    H240318   7.967   3.584   9.472
 5447TIP3   OH240319   1.212   4.772  10.068
 5447TIP3    H140320   1.208   4.870  10.068
 5447TIP3    H240321   1.138   4.749  10.010
 5448TIP3   OH240322   1.096   4.696  10.420
 5448TIP3    H140323   1.095   4.631  10.492
 5448TIP3    H240324   1.060   4.645  10.345
 5449TIP3   OH240325   0.344   4.658  10.565
 5449TIP3    H140326   0.339   4.598  10.643
 5449TIP3    H240327   0.408   4.722  10.597
 5450TIP3   OH240328   1.464   4.992  10.249
 5450TIP3    H140329   1.423   4.920  10.299
 5450TIP3    H240330   1.467   5.062  10.316
 5451TIP3   OH240331   0.422   5.109  10.420
 5451TIP3    H140332   0.393   5.019  10.395
 5451TIP3    H240333   0.517   5.092  10.431
 5452TIP3   OH240334   0.094   4.467   9.966
 5452TIP3    H140335   0.049   4.554   9.970
 5452TIP3    H240336   0.028   4.412   9.923
 5453TIP3   OH240337   0.159   4.684  10.188
 5453TIP3    H140338   0.186   4.602  10.234
 5453TIP3    H240339   0.228   4.695  10.122
 5454TIP3   OH240340   1.176   5.509  10.274
 5454TIP3    H140341   1.241   5.440  10.243
 5454TIP3    H240342   1.156   5.473  10.361
 5455TIP3   OH240343   0.932   4.936  10.471
 5455TIP3    H140344   0.966   4.876  10.404
 5455TIP3    H240345   1.015   4.953  10.520
 5456TIP3   OH240346   1.793   4.104  10.542
 5456TIP3    H140347   1.811   4.163  10.617
 5456TIP3    H240348   1.851   4.144  10.476
 5457TIP3   OH240349   1.247   4.383  10.502
 5457TIP3    H140350   1.267   4.288  10.502
 5457TIP3    H240351   1.239   4.398  10.405
 5458TIP3   OH240352   0.562   4.193  10.220
 5458TIP3    H140353   0.572   4.277  10.171
 5458TIP3    H240354   0.524   4.135  10.151
 5459TIP3   OH240355   1.335   4.200  10.058
 5459TIP3    H140356   1.400   4.168  10.125
 5459TIP3    H240357   1.392   4.259  10.006
 5460TIP3   OH240358   0.236   4.435  10.291
 5460TIP3    H140359   0.297   4.375  10.337
 5460TIP3    H240360   0.237   4.400  10.201
 5461TIP3   OH240361   0.739   4.589  10.227
 5461TIP3    H140362   0.807   4.531  10.265
 5461TIP3    H240363   0.688   4.524  10.175
 5462TIP3   OH240364   1.855   4.260  10.766
 5462TIP3    H140365   1.776   4.319  10.753
 5462TIP3    H240366   1.838   4.234  10.857
 5463TIP3   OH240367   0.455   4.081  10.620
 5463TIP3    H140368   0.426   4.142  10.550
 5463TIP3    H240369   0.389   4.101  10.691
 5464TIP3   OH240370   1.181   5.030   9.979
 5464TIP3    H140371   1.156   5.004   9.889
 5464TIP3    H240372   1.151   5.124   9.984
 5465TIP3   OH240373   0.707   4.848  10.652
 5465TIP3    H140374   0.634   4.912  10.670
 5465TIP3    H240375   0.775   4.907  10.618
 5466TIP3   OH240376   1.518   4.136  10.257
 5466TIP3    H140377   1.495   4.059  10.311
 5466TIP3    H240378   1.585   4.179  10.313
 5467TIP3   OH240379   0.412   4.266  10.426
 5467TIP3    H140380   0.472   4.337  10.458
 5467TIP3    H240381   0.465   4.228  10.352
 5468TIP3   OH240382   0.549   5.048  10.729
 5468TIP3    H140383   0.542   5.142  10.701
 5468TIP3    H240384   0.462   5.039  10.775
 5469TIP3   OH240385   0.155   5.009   9.806
 5469TIP3    H140386   0.130   5.044   9.720
 5469TIP3    H240387   0.165   5.090   9.860
 5470TIP3   OH240388   1.517   5.176  10.486
 5470TIP3    H140389   1.420   5.187  10.497
 5470TIP3    H240390   1.544   5.268  10.465
 5471TIP3   OH240391   1.549   4.009  10.631
 5471TIP3    H140392   1.475   4.069  10.613
 5471TIP3    H240393   1.620   4.044  10.574
 5472TIP3   OH240394   0.844   3.815  10.368
 5472TIP3    H140395   0.833   3.718  10.363
 5472TIP3    H240396   0.757   3.844  10.403
 5473TIP3   OH240397   1.343   5.355  10.143
 5473TIP3    H140398   1.386   5.282  10.093
 5473TIP3    H240399   1.389   5.433  10.105
 5474TIP3   OH240400   1.466   5.147   9.996
 5474TIP3    H140401   1.435   5.077   9.936
 5474TIP3    H240402   1.469   5.097  10.080
 5475TIP3   OH240403   1.629   5.004  10.843
 5475TIP3    H140404   1.642   4.945  10.766
 5475TIP3    H240405   1.651   5.091  10.806
 5476TIP3   OH240406   1.076   4.694   9.821
 5476TIP3    H140407   1.007   4.753   9.785
 5476TIP3    H240408   1.148   4.705   9.755
 5477TIP3   OH240409   1.085   4.553   9.522
 5477TIP3    H140410   1.155   4.552   9.589
 5477TIP3    H240411   1.115   4.480   9.466
 5478TIP3   OH240412   1.816   4.636  10.647
 5478TIP3    H140413   1.751   4.709  10.654
 5478TIP3    H240414   1.865   4.662  10.567
 5479TIP3   OH240415   1.423   4.715   9.913
 5479TIP3    H140416   1.348   4.740   9.973
 5479TIP3    H240417   1.470   4.649   9.967
 5480TIP3   OH240418   1.412   4.531  10.823
 5480TIP3    H140419   1.414   4.609  10.879
 5480TIP3    H240420   1.349   4.563  10.755
 5481TIP3   OH240421   0.585   4.783  10.105
 5481TIP3    H140422   0.549   4.742  10.022
 5481TIP3    H240423   0.645   4.713  10.139
 5482TIP3   OH240424   0.714   5.119  10.373
 5482TIP3    H140425   0.714   5.068  10.291
 5482TIP3    H240426   0.793   5.085  10.418
 5483TIP3   OH240427   0.617   4.656  10.471
 5483TIP3    H140428   0.671   4.667  10.390
 5483TIP3    H240429   0.654   4.723  10.534
 5484TIP3   OH240430   1.258   5.214  10.543
 5484TIP3    H140431   1.227   5.281  10.605
 5484TIP3    H240432   1.230   5.129  10.586
 5485TIP3   OH240433   0.723   5.121  10.931
 5485TIP3    H140434   0.675   5.174  10.996
 5485TIP3    H240435   0.649   5.088  10.876
 5486TIP3   OH240436   1.310   4.637   9.679
 5486TIP3    H140437   1.365   4.655   9.760
 5486TIP3    H240438   1.356   4.687   9.608
 5487TIP3   OH240439   0.404   4.712  10.866
 5487TIP3    H140440   0.409   4.783  10.931
 5487TIP3    H240441   0.313   4.723  10.833
 5488TIP3   OH240442   1.081   5.309  10.028
 5488TIP3    H140443   1.123   5.340  10.108
 5488TIP3    H240444   1.025   5.384  10.003
 5489TIP3   OH240445   1.682   3.810   9.672
 5489TIP3    H140446   1.587   3.820   9.695
 5489TIP3    H240447   1.702   3.893   9.627
 5490TIP3   OH240448   0.483   4.684   9.867
 5490TIP3    H140449   0.451   4.762   9.818
 5490TIP3    H240450   0.416   4.618   9.846
 5491TIP3   OH240451   1.793   5.245   9.506
 5491TIP3    H140452   1.810   5.339   9.523
 5491TIP3    H240453   1.885   5.213   9.506
 5492TIP3   OH240454   0.142   4.880  10.730
 5492TIP3    H140455   0.066   4.919  10.683
 5492TIP3    H240456   0.095   4.813  10.783
 5493TIP3   OH240457   0.089   5.225  10.418
 5493TIP3    H140458   0.178   5.191  10.439
 5493TIP3    H240459   0.070   5.280  10.495
 5494TIP3   OH240460   0.972   5.199  10.866
 5494TIP3    H140461   0.982   5.290  10.900
 5494TIP3    H240462   0.886   5.172  10.906
 5495TIP3   OH240463   1.029   5.600   9.868
 5495TIP3    H140464   1.018   5.592   9.772
 5495TIP3    H240465   1.029   5.695   9.885
 5496TIP3   OH240466   0.397   5.484  10.048
 5496TIP3    H140467   0.407   5.447  10.138
 5496TIP3    H240468   0.311   5.446  10.026
 5497TIP3   OH240469   1.334   5.521   9.567
 5497TIP3    H140470   1.380   5.445   9.524
 5497TIP3    H240471   1.338   5.495   9.661
 5498TIP3   OH240472   1.304   5.515   9.845
 5498TIP3    H140473   1.207   5.522   9.861
 5498TIP3    H240474   1.326   5.440   9.902
 5499TIP3   OH240475   0.316   5.063  10.851
 5499TIP3    H140476   0.336   5.021  10.935
 5499TIP3    H240477   0.234   5.019  10.822
 5500TIP3   OH240478   0.586   3.910  10.441
 5500TIP3    H140479   0.494   3.895  10.409
 5500TIP3    H240480   0.572   3.989  10.496
 5501TIP3   OH240481   1.048   3.880  10.784
 5501TIP3    H140482   1.087   3.833  10.860
 5501TIP3    H240483   0.952   3.863  10.798
 5502TIP3   OH240484   1.357   4.254  10.866
 5502TIP3    H140485   1.331   4.242  10.959
 5502TIP3    H240486   1.364   4.351  10.852
 5503TIP3   OH240487   1.454   4.740   9.464
 5503TIP3    H140488   1.451   4.721   9.368
 5503TIP3    H240489   1.540   4.785   9.467
 5504TIP3   OH240490   1.013   4.133   9.512
 5504TIP3    H140491   0.983   4.127   9.605
 5504TIP3    H240492   0.983   4.044   9.483
 5505TIP3   OH240493   0.594   4.405  10.571
 5505TIP3    H140494   0.522   4.404  10.637
 5505TIP3    H240495   0.588   4.495  10.533
 5506TIP3   OH240496   0.593   4.415  10.058
 5506TIP3    H140497   0.498   4.392  10.045
 5506TIP3    H240498   0.629   4.386   9.972
 5507TIP3   OH240499   1.143   4.466   9.936
 5507TIP3    H140500   1.104   4.548   9.898
 5507TIP3    H240501   1.212   4.448   9.869
 5508TIP3   OH240502   1.248   4.416  10.220
 5508TIP3    H140503   1.218   4.472  10.146
 5508TIP3    H240504   1.256   4.331  10.173
 5509TIP3   OH240505   0.354   4.432  10.742
 5509TIP3    H140506   0.363   4.470  10.831
 5509TIP3    H240507   0.314   4.346  10.762
 5510TIP3   OH240508   0.694   4.168   9.424
 5510TIP3    H140509   0.648   4.127   9.501
 5510TIP3    H240510   0.623   4.212   9.376
 5511TIP3   OH240511   0.053   4.171  10.146
 5511TIP3    H140512   0.104   4.136  10.222
 5511TIP3    H240513   0.064   4.104  10.080
 5512TIP3   OH240514   0.153   4.223   9.679
 5512TIP3    H140515   0.202   4.276   9.613
 5512TIP3    H240516   0.081   4.281   9.702
 5513TIP3   OH240517   1.171   4.572  10.682
 5513TIP3    H140518   1.206   4.505  10.618
 5513TIP3    H240519   1.117   4.517  10.742
 5514TIP3   OH240520   0.847   4.173  10.159
 5514TIP3    H140521   0.753   4.171  10.188
 5514TIP3    H240522   0.895   4.153  10.241
 5515TIP3   OH240523   0.332   4.324  10.045
 5515TIP3    H140524   0.243   4.343  10.009
 5515TIP3    H240525   0.353   4.238  10.005
 5516TIP3   OH240526   0.692   4.331   9.809
 5516TIP3    H140527   0.787   4.342   9.823
 5516TIP3    H240528   0.668   4.399   9.743
 5517TIP3   OH240529   1.288   4.094  10.485
 5517TIP3    H140530   1.218   4.101  10.553
 5517TIP3    H240531   1.238   4.068  10.406
 5518TIP3   OH240532   0.563   4.448   9.566
 5518TIP3    H140533   0.510   4.409   9.495
 5518TIP3    H240534   0.645   4.469   9.519
 5519TIP3   OH240535   0.975   4.447  10.347
 5519TIP3    H140536   1.035   4.394  10.294
 5519TIP3    H240537   0.961   4.391  10.425
 5520TIP3   OH240538   0.479   4.062   9.991
 5520TIP3    H140539   0.443   3.971   9.992
 5520TIP3    H240540   0.558   4.052   9.937
 5521TIP3   OH240541   0.839   4.279  10.588
 5521TIP3    H140542   0.756   4.331  10.595
 5521TIP3    H240543   0.895   4.315  10.659
 5522TIP3   OH240544   0.898   4.901   9.759
 5522TIP3    H140545   0.817   4.855   9.725
 5522TIP3    H240546   0.874   4.915   9.853
 5523TIP3   OH240547   1.619   4.816  10.640
 5523TIP3    H140548   1.673   4.870  10.578
 5523TIP3    H240549   1.532   4.824  10.595
 5524TIP3   OH240550   1.280   4.182   9.577
 5524TIP3    H140551   1.185   4.199   9.563
 5524TIP3    H240552   1.314   4.267   9.612
 5525TIP3   OH240553   1.047   4.929  10.874
 5525TIP3    H140554   1.014   4.886  10.955
 5525TIP3    H240555   1.017   5.021  10.885
 5526TIP3   OH240556   1.354   4.376   9.737
 5526TIP3    H140557   1.441   4.363   9.780
 5526TIP3    H240558   1.365   4.458   9.687
 5527TIP3   OH240559   0.408   4.843  10.339
 5527TIP3    H140560   0.474   4.834  10.268
 5527TIP3    H240561   0.415   4.756  10.384
 5528TIP3   OH240562   1.106   5.048   9.662
 5528TIP3    H140563   1.072   5.133   9.697
 5528TIP3    H240564   1.034   4.986   9.685
 5529TIP3   OH240565   0.116   4.666  10.864
 5529TIP3    H140566   0.126   4.634  10.954
 5529TIP3    H240567   0.042   4.618  10.825
 5530TIP3   OH240568   1.273   5.172  10.879
 5530TIP3    H140569   1.182   5.188  10.852
 5530TIP3    H240570   1.278   5.197  10.972
 5531TIP3   OH240571   1.844   4.388   9.716
 5531TIP3    H140572   1.787   4.361   9.642
 5531TIP3    H240573   1.852   4.483   9.693
 5532TIP3   OH240574   1.669   5.271   9.755
 5532TIP3    H140575   1.636   5.188   9.791
 5532TIP3    H240576   1.706   5.249   9.668
 5533TIP3   OH240577   1.395   4.753  10.468
 5533TIP3    H140578   1.301   4.732  10.455
 5533TIP3    H240579   1.437   4.678  10.421
 5534TIP3   OH240580   0.647   5.186  10.078
 5534TIP3    H140581   0.696   5.268  10.057
 5534TIP3    H240582   0.559   5.209  10.045
 5535TIP3   OH240583   0.220   4.670   9.537
 5535TIP3    H140584   0.283   4.735   9.575
 5535TIP3    H240585   0.135   4.704   9.566
 5536TIP3   OH240586   0.787   4.953  10.027
 5536TIP3    H140587   0.755   5.045  10.038
 5536TIP3    H240588   0.717   4.903  10.073
 5537TIP3   OH240589   0.831   5.374  10.672
 5537TIP3    H140590   0.880   5.453  10.643
 5537TIP3    H240591   0.893   5.333  10.733
 5538TIP3   OH240592   0.656   5.452   9.980
 5538TIP3    H140593   0.559   5.466   9.995
 5538TIP3    H240594   0.692   5.535  10.015
 5539TIP3   OH240595   1.185   4.971  10.628
 5539TIP3    H140596   1.152   4.953  10.718
 5539TIP3    H240597   1.249   4.899  10.615
 5540TIP3   OH240598   1.420   5.080   9.541
 5540TIP3    H140599   1.449   5.032   9.621
 5540TIP3    H240600   1.325   5.061   9.548
 5541TIP3   OH240601   1.443   5.455  10.859
 5541TIP3    H140602   1.396   5.387  10.809
 5541TIP3    H240603   1.483   5.511  10.789
 5542TIP3   OH240604   1.865   5.515   9.566
 5542TIP3    H140605   1.933   5.581   9.545
 5542TIP3    H240606   1.793   5.576   9.595
 5543TIP3   OH240607   0.274   4.157  10.819
 5543TIP3    H140608   0.183   4.189  10.816
 5543TIP3    H240609   0.263   4.072  10.865
 5544TIP3   OH240610   1.496   4.943   9.765
 5544TIP3    H140611   1.472   4.864   9.818
 5544TIP3    H240612   1.592   4.946   9.782
 5545TIP3   OH240613   0.234   5.331  10.659
 5545TIP3    H140614   0.267   5.239  10.663
 5545TIP3    H240615   0.258   5.362  10.747
 5546TIP3   OH240616   0.833   5.187   9.391
 5546TIP3    H140617   0.841   5.110   9.331
 5546TIP3    H240618   0.786   5.143   9.466
 5547TIP3   OH240619   0.707   5.139   9.636
 5547TIP3    H140620   0.737   5.087   9.712
 5547TIP3    H240621   0.718   5.231   9.668
 5548TIP3   OH240622   0.363   4.863   9.685
 5548TIP3    H140623   0.291   4.901   9.739
 5548TIP3    H240624   0.411   4.942   9.654
 5549TIP3   OH240625   1.143   4.131  10.711
 5549TIP3    H140626   1.214   4.136  10.776
 5549TIP3    H240627   1.105   4.043  10.730
 5550TIP3   OH240628   1.220   4.088   9.825
 5550TIP3    H140629   1.243   4.134   9.742
 5550TIP3    H240630   1.278   4.133   9.888
 5551TIP3   OH240631   0.989   5.305   9.705
 5551TIP3    H140632   0.907   5.358   9.712
 5551TIP3    H240633   1.043   5.361   9.647
 5552TIP3   OH240634   0.944   4.263   9.907
 5552TIP3    H140635   1.021   4.323   9.912
 5552TIP3    H240636   0.916   4.251  10.000
 5553TIP3   OH240637   1.012   4.376  10.819
 5553TIP3    H140638   1.004   4.421  10.903
 5553TIP3    H240639   1.057   4.291  10.837
 5554TIP3   OH240640   1.028   3.969   9.993
 5554TIP3    H140641   0.995   4.034  10.058
 5554TIP3    H240642   1.097   4.024   9.950
 5555TIP3   OH240643   0.730   5.407   9.708
 5555TIP3    H140644   0.739   5.489   9.652
 5555TIP3    H240645   0.703   5.445   9.795
 5556TIP3   OH240646   0.596   4.082   9.665
 5556TIP3    H140647   0.589   4.170   9.705
 5556TIP3    H240648   0.686   4.056   9.693
 5557TIP3   OH240649   1.622   4.184  10.859
 5557TIP3    H140650   1.524   4.189  10.867
 5557TIP3    H240651   1.636   4.138  10.775
 5558TIP3   OH240652   1.478   4.532  10.310
 5558TIP3    H140653   1.396   4.487  10.284
 5558TIP3    H240654   1.527   4.464  10.363
 5559TIP3   OH240655   0.416   5.126   9.566
 5559TIP3    H140656   0.484   5.186   9.601
 5559TIP3    H240657   0.472   5.076   9.503
 5560TIP3   OH240658   0.251   4.392   9.482
 5560TIP3    H140659   0.251   4.487   9.507
 5560TIP3    H240660   0.161   4.376   9.452
 5561TIP3   OH240661   1.584   5.458  10.477
 5561TIP3    H140662   1.575   5.527  10.408
 5561TIP3    H240663   1.681   5.465  10.494
 5562TIP3   OH240664   0.330   3.874  10.354
 5562TIP3    H140665   0.311   3.869  10.258
 5562TIP3    H240666   0.295   3.787  10.384
 5563TIP3   OH240667   0.229   5.259   9.973
 5563TIP3    H140668   0.146   5.307   9.969
 5563TIP3    H240669   0.278   5.309   9.905
 5564TIP3   OH240670   1.032   5.372   9.403
 5564TIP3    H140671   0.962   5.305   9.424
 5564TIP3    H240672   1.103   5.311   9.378
 5565TIP3   OH240673   1.487   5.345   9.421
 5565TIP3    H140674   1.516   5.268   9.472
 5565TIP3    H240675   1.563   5.366   9.366
 5566TIP3   OH240676   0.572   4.940   9.399
 5566TIP3    H140677   0.587   4.865   9.460
 5566TIP3    H240678   0.650   4.929   9.341
 5567TIP3   OH240679   1.119   5.051   9.381
 5567TIP3    H140680   1.092   5.058   9.474
 5567TIP3    H240681   1.100   4.955   9.366
 5568TIP3   OH240682   1.380   4.889  10.865
 5568TIP3    H140683   1.459   4.946  10.870
 5568TIP3    H240684   1.312   4.956  10.884
 5569TIP3   OH240685   0.696   4.742   9.647
 5569TIP3    H140686   0.644   4.687   9.709
 5569TIP3    H240687   0.727   4.675   9.582
 5570TIP3   OH240688   0.623   4.536  10.864
 5570TIP3    H140689   0.558   4.602  10.893
 5570TIP3    H240690   0.661   4.571  10.783
 5571TIP3   OH240691   0.803   4.564   9.466
 5571TIP3    H140692   0.788   4.556   9.370
 5571TIP3    H240693   0.901   4.568   9.473
 5572TIP3   OH240694   1.734   4.795   9.407
 5572TIP3    H140695   1.717   4.758   9.319
 5572TIP3    H240696   1.745   4.892   9.388
 5573TIP3   OH240697   0.632   4.301  10.952
 5573TIP3    H140698   0.683   4.230  10.911
 5573TIP3    H240699   0.661   4.378  10.900
 5574TIP3   OH240700   0.702   4.096  10.737
 5574TIP3    H140701   0.753   4.144  10.668
 5574TIP3    H240702   0.613   4.088  10.695
 5575TIP3   OH240703   0.858   4.640  10.757
 5575TIP3    H140704   0.936   4.631  10.700
 5575TIP3    H240705   0.821   4.726  10.729
 5576TIP3   OH240706   0.784   3.842  10.776
 5576TIP3    H140707   0.764   3.938  10.774
 5576TIP3    H240708   0.707   3.806  10.728
 5577TIP3   OH240709   0.786   5.634   9.575
 5577TIP3    H140710   0.883   5.641   9.581
 5577TIP3    H240711   0.772   5.693   9.499
 5578TIP3   OH240712   0.145   5.092   9.519
 5578TIP3    H140713   0.242   5.102   9.540
 5578TIP3    H240714   0.152   5.022   9.452
 5579TIP3   OH240715   0.035   5.640  10.006
 5579TIP3    H140716  -0.045   5.592   9.977
 5579TIP3    H240717   0.054   5.579  10.080
 5580TIP3   OH240718   0.123   5.446  10.198
 5580TIP3    H140719   0.075   5.362  10.214
 5580TIP3    H240720   0.134   5.482  10.288
 5581TIP3   OH240721   1.857   5.521  10.500
 5581TIP3    H140722   1.861   5.537  10.596
 5581TIP3    H240723   1.925   5.580  10.468
 5582TIP3   OH240724   1.815   5.483  10.790
 5582TIP3    H140725   1.767   5.407  10.753
 5582TIP3    H240726   1.864   5.441  10.861
 5583TIP3   OH240727   1.790   4.888   9.802
 5583TIP3    H140728   1.876   4.926   9.821
 5583TIP3    H240729   1.787   4.817   9.869
 5584TIP3   OH240730   1.825   4.696   9.992
 5584TIP3    H140731   1.750   4.646  10.031
 5584TIP3    H240732   1.885   4.708  10.068
 5585TIP3   OH240733   1.800   4.963  10.490
 5585TIP3    H140734   1.881   4.925  10.452
 5585TIP3    H240735   1.815   5.058  10.471
 5586TIP3   OH240736   1.654   5.256  10.718
 5586TIP3    H140737   1.586   5.288  10.779
 5586TIP3    H240738   1.601   5.214  10.646
 5587TIP3   OH240739   1.855   4.677   9.630
 5587TIP3    H140740   1.798   4.710   9.558
 5587TIP3    H240741   1.845   4.749   9.696
 5588TIP3   OH240742   1.693   4.399   9.481
 5588TIP3    H140743   1.701   4.466   9.411
 5588TIP3    H240744   1.674   4.317   9.431
 5589TIP3   OH240745   1.608   4.542  10.049
 5589TIP3    H140746   1.593   4.447  10.044
 5589TIP3    H240747   1.576   4.562  10.139
 5590TIP3   OH240748   0.107   4.747  10.454
 5590TIP3    H140749   0.127   4.742  10.359
 5590TIP3    H240750   0.196   4.735  10.493
 5591TIP3   OH240751   1.618   4.148   9.395
 5591TIP3    H140752   1.677   4.103   9.459
 5591TIP3    H240753   1.532   4.107   9.410
 5592TIP3   OH240754   1.571   4.300   9.889
 5592TIP3    H140755   1.603   4.208   9.906
 5592TIP3    H240756   1.654   4.341   9.860
 5593TIP3   OH240757   1.639   4.355  10.437
 5593TIP3    H140758   1.735   4.378  10.437
 5593TIP3    H240759   1.620   4.369  10.531
 5594TIP3   OH240760   1.645   4.430  10.715
 5594TIP3    H140761   1.556   4.456  10.748
 5594TIP3    H240762   1.688   4.516  10.694
 5595TIP3   OH240763   1.642   4.030   9.899
 5595TIP3    H140764   1.664   3.987   9.984
 5595TIP3    H240765   1.582   3.965   9.855
 5596TIP3   OH240766   0.189   4.110  10.361
 5596TIP3    H140767   0.239   4.028  10.382
 5596TIP3    H240768   0.244   4.179  10.400
 5597TIP3   OH240769   0.042   4.418  10.472
 5597TIP3    H140770   0.084   4.394  10.387
 5597TIP3    H240771   0.076   4.508  10.482
 5598TIP3   OH240772   1.823   4.033   9.555
 5598TIP3    H140773   1.864   3.962   9.500
 5598TIP3    H240774   1.894   4.099   9.559
 5599TIP3   OH240775   0.075   4.017   9.817
 5599TIP3    H140776  -0.018   4.041   9.832
 5599TIP3    H240777   0.112   4.098   9.776
 5600TIP3   OH240778   1.528   5.531  10.061
 5600TIP3    H140779   1.597   5.501   9.999
 5600TIP3    H240780   1.580   5.581  10.127
 5601TIP3   OH240781   0.069   3.920  10.713
 5601TIP3    H140782  -0.005   3.880  10.761
 5601TIP3    H240783   0.015   3.974  10.650
 5602TIP3   OH240784   0.558   5.321  10.735
 5602TIP3    H140785   0.525   5.407  10.707
 5602TIP3    H240786   0.653   5.330  10.712
 5603TIP3   OH240787   1.220   5.602  -0.032
 5603TIP3    H140788   1.291   5.539  -0.054
 5603TIP3    H240789   1.261   5.632   0.052
 5604TIP3   OH240790   1.729   3.855  10.862
 5604TIP3    H140791   1.639   3.878  10.833
 5604TIP3    H240792   1.741   3.767  10.820
 5605TIP3   OH240793   0.306   5.649  10.741
 5605TIP3    H140794   0.230   5.692  10.699
 5605TIP3    H240795   0.272   5.625  10.828
 5606TIP3   OH240796   0.555   5.605  10.640
 5606TIP3    H140797   0.469   5.618  10.686
 5606TIP3    H240798   0.545   5.664  10.565
 5607TIP3   OH240799   1.021   5.595  10.566
 5607TIP3    H140800   0.977   5.650  10.499
 5607TIP3    H240801   1.035   5.659  10.639
 5608TIP3   OH240802   1.251   5.470  10.656
 5608TIP3    H140803   1.165   5.504  10.628
 5608TIP3    H240804   1.299   5.555  10.657
 5609TIP3   OH240805   1.520   5.635  10.687
 5609TIP3    H140806   1.505   5.729  10.663
 5609TIP3    H240807   1.533   5.595  10.599
 5610TIP3   OH240808   0.256   5.514  10.431
 5610TIP3    H140809   0.242   5.469  10.517
 5610TIP3    H240810   0.335   5.471  10.393
 5611TIP3   OH240811   0.459   5.380  10.298
 5611TIP3    H140812   0.444   5.287  10.322
 5611TIP3    H240813   0.544   5.397  10.344
 5612TIP3   OH240814   0.719   5.430  10.385
 5612TIP3    H140815   0.735   5.337  10.360
 5612TIP3    H240816   0.726   5.426  10.481
 5613TIP3   OH240817   1.064   3.993  10.300
 5613TIP3    H140818   0.997   3.928  10.328
 5613TIP3    H240819   1.120   3.939  10.242
 5614TIP3   OH240820   1.579   3.801  10.307
 5614TIP3    H140821   1.640   3.858  10.254
 5614TIP3    H240822   1.490   3.835  10.282
 5615TIP3   OH240823   1.744   3.926  10.133
 5615TIP3    H140824   1.813   3.868  10.092
 5615TIP3    H240825   1.797   4.009  10.145
 5616TIP3   OH240826   0.307   3.857  10.081
 5616TIP3    H140827   0.225   3.837  10.031
 5616TIP3    H240828   0.351   3.770  10.077
 5617TIP3   OH240829   0.179   3.830   9.655
 5617TIP3    H140830   0.228   3.896   9.603
 5617TIP3    H240831   0.128   3.888   9.715
 5618TIP3   OH240832   0.747   3.854  10.064
 5618TIP3    H140833   0.839   3.883  10.055
 5618TIP3    H240834   0.746   3.826  10.156
 5619TIP3   OH240835   1.324   3.853  10.225
 5619TIP3    H140836   1.315   3.864  10.129
 5619TIP3    H240837   1.282   3.763  10.239
 5620TIP3   OH240838   1.447   3.854   9.794
 5620TIP3    H140839   1.372   3.914   9.779
 5620TIP3    H240840   1.404   3.769   9.819
 5621TIP3   OH240841   0.169   5.433   9.760
 5621TIP3    H140842   0.110   5.431   9.684
 5621TIP3    H240843   0.169   5.529   9.776
 5622TIP3   OH240844   0.364   4.026   9.508
 5622TIP3    H140845   0.417   3.965   9.455
 5622TIP3    H240846   0.433   4.058   9.571
 5623TIP3   OH240847   0.864   4.051   9.748
 5623TIP3    H140848   0.890   3.994   9.823
 5623TIP3    H240849   0.872   4.138   9.793
 5624TIP3   OH240850   1.058   5.560   9.593
 5624TIP3    H140851   1.150   5.580   9.571
 5624TIP3    H240852   1.036   5.507   9.513
 5625TIP3   OH240853   1.726   5.508   9.866
 5625TIP3    H140854   1.708   5.430   9.809
 5625TIP3    H240855   1.720   5.582   9.801
 5626TIP3   OH240856   0.344   5.516   9.451
 5626TIP3    H140857   0.325   5.552   9.539
 5626TIP3    H240858   0.430   5.471   9.467
 5627TIP3   OH240859   3.098   4.772  10.068
 5627TIP3    H140860   3.094   4.870  10.068
 5627TIP3    H240861   3.023   4.749  10.010
 5628TIP3   OH240862   2.981   4.696  10.420
 5628TIP3    H140863   2.981   4.631  10.492
 5628TIP3    H240864   2.946   4.645  10.345
 5629TIP3   OH240865   2.217   4.664  10.574
 5629TIP3    H140866   2.226   4.596  10.643
 5629TIP3    H240867   2.292   4.721  10.597
 5630TIP3   OH240868   3.350   4.992  10.249
 5630TIP3    H140869   3.309   4.921  10.298
 5630TIP3    H240870   3.353   5.062  10.316
 5631TIP3   OH240871   2.309   5.110  10.423
 5631TIP3    H140872   2.279   5.022  10.393
 5631TIP3    H240873   2.405   5.092  10.432
 5632TIP3   OH240874   1.973   4.464   9.975
 5632TIP3    H140875   1.930   4.552   9.968
 5632TIP3    H240876   1.917   4.410   9.917
 5633TIP3   OH240877   2.045   4.688  10.191
 5633TIP3    H140878   2.073   4.605  10.234
 5633TIP3    H240879   2.113   4.699  10.123
 5634TIP3   OH240880   3.062   5.508  10.274
 5634TIP3    H140881   3.127   5.440  10.243
 5634TIP3    H240882   3.042   5.473  10.361
 5635TIP3   OH240883   2.818   4.936  10.472
 5635TIP3    H140884   2.852   4.876  10.404
 5635TIP3    H240885   2.901   4.953  10.520
 5636TIP3   OH240886   3.679   4.103  10.543
 5636TIP3    H140887   3.697   4.165  10.615
 5636TIP3    H240888   3.735   4.143  10.474
 5637TIP3   OH240889   3.133   4.383  10.502
 5637TIP3    H140890   3.153   4.288  10.502
 5637TIP3    H240891   3.125   4.398  10.405
 5638TIP3   OH240892   2.447   4.193  10.220
 5638TIP3    H140893   2.459   4.276  10.170
 5638TIP3    H240894   2.408   4.135  10.151
 5639TIP3   OH240895   3.221   4.200  10.058
 5639TIP3    H140896   3.285   4.168  10.125
 5639TIP3    H240897   3.277   4.259  10.006
 5640TIP3   OH240898   2.109   4.435  10.293
 5640TIP3    H140899   2.176   4.380  10.339
 5640TIP3    H240900   2.121   4.402  10.202
 5641TIP3   OH240901   2.625   4.590  10.227
 5641TIP3    H140902   2.693   4.531  10.265
 5641TIP3    H240903   2.574   4.524  10.175
 5642TIP3   OH240904   3.745   4.266  10.772
 5642TIP3    H140905   3.661   4.315  10.747
 5642TIP3    H240906   3.712   4.210  10.842
 5643TIP3   OH240907   2.339   4.081  10.620
 5643TIP3    H140908   2.311   4.142  10.549
 5643TIP3    H240909   2.274   4.103  10.690
 5644TIP3   OH240910   3.066   5.030   9.979
 5644TIP3    H140911   3.041   5.004   9.889
 5644TIP3    H240912   3.036   5.124   9.984
 5645TIP3   OH240913   2.589   4.847  10.651
 5645TIP3    H140914   2.519   4.913  10.670
 5645TIP3    H240915   2.660   4.906  10.618
 5646TIP3   OH240916   3.403   4.135  10.257
 5646TIP3    H140917   3.381   4.059  10.311
 5646TIP3    H240918   3.470   4.179  10.312
 5647TIP3   OH240919   2.293   4.271  10.424
 5647TIP3    H140920   2.357   4.337  10.458
 5647TIP3    H240921   2.347   4.228  10.353
 5648TIP3   OH240922   2.436   5.049  10.730
 5648TIP3    H140923   2.429   5.142  10.701
 5648TIP3    H240924   2.349   5.040  10.775
 5649TIP3   OH240925   2.043   5.007   9.808
 5649TIP3    H140926   2.018   5.043   9.721
 5649TIP3    H240927   2.051   5.089   9.861
 5650TIP3   OH240928   3.403   5.176  10.486
 5650TIP3    H140929   3.306   5.187  10.496
 5650TIP3    H240930   3.430   5.268  10.465
 5651TIP3   OH240931   3.435   4.012  10.633
 5651TIP3    H140932   3.359   4.068  10.611
 5651TIP3    H240933   3.504   4.043  10.571
 5652TIP3   OH240934   2.731   3.816  10.369
 5652TIP3    H140935   2.716   3.720  10.363
 5652TIP3    H240936   2.644   3.847  10.403
 5653TIP3   OH240937   3.229   5.354  10.143
 5653TIP3    H140938   3.271   5.282  10.093
 5653TIP3    H240939   3.275   5.433  10.105
 5654TIP3   OH240940   3.351   5.147   9.996
 5654TIP3    H140941   3.321   5.077   9.936
 5654TIP3    H240942   3.354   5.097  10.080
 5655TIP3   OH240943   3.515   5.004  10.843
 5655TIP3    H140944   3.528   4.945  10.766
 5655TIP3    H240945   3.537   5.091  10.806
 5656TIP3   OH240946   2.961   4.694   9.821
 5656TIP3    H140947   2.893   4.754   9.784
 5656TIP3    H240948   3.033   4.705   9.755
 5657TIP3   OH240949   2.971   4.553   9.522
 5657TIP3    H140950   3.041   4.552   9.589
 5657TIP3    H240951   3.001   4.480   9.466
 5658TIP3   OH240952   3.702   4.635  10.647
 5658TIP3    H140953   3.638   4.709  10.654
 5658TIP3    H240954   3.751   4.662  10.567
 5659TIP3   OH240955   3.309   4.715   9.913
 5659TIP3    H140956   3.234   4.740   9.973
 5659TIP3    H240957   3.356   4.649   9.966
 5660TIP3   OH240958   3.299   4.530  10.825
 5660TIP3    H140959   3.298   4.610  10.879
 5660TIP3    H240960   3.236   4.559  10.756
 5661TIP3   OH240961   2.468   4.782  10.105
 5661TIP3    H140962   2.436   4.743  10.020
 5661TIP3    H240963   2.529   4.713  10.139
 5662TIP3   OH240964   2.599   5.119  10.373
 5662TIP3    H140965   2.600   5.068  10.291
 5662TIP3    H240966   2.679   5.084  10.418
 5663TIP3   OH240967   2.501   4.658  10.472
 5663TIP3    H140968   2.555   4.667  10.391
 5663TIP3    H240969   2.541   4.722  10.534
 5664TIP3   OH240970   3.144   5.214  10.543
 5664TIP3    H140971   3.113   5.281  10.605
 5664TIP3    H240972   3.117   5.129  10.585
 5665TIP3   OH240973   2.609   5.121  10.931
 5665TIP3    H140974   2.561   5.174  10.996
 5665TIP3    H240975   2.534   5.088  10.876
 5666TIP3   OH240976   3.195   4.637   9.680
 5666TIP3    H140977   3.250   4.655   9.760
 5666TIP3    H240978   3.241   4.687   9.608
 5667TIP3   OH240979   2.290   4.716  10.862
 5667TIP3    H140980   2.295   4.783  10.932
 5667TIP3    H240981   2.197   4.723  10.835
 5668TIP3   OH240982   2.966   5.309  10.028
 5668TIP3    H140983   3.009   5.340  10.108
 5668TIP3    H240984   2.910   5.384  10.003
 5669TIP3   OH240985   3.568   3.810   9.672
 5669TIP3    H140986   3.473   3.820   9.695
 5669TIP3    H240987   3.587   3.893   9.627
 5670TIP3   OH240988   2.363   4.683   9.869
 5670TIP3    H140989   2.336   4.762   9.817
 5670TIP3    H240990   2.299   4.617   9.843
 5671TIP3   OH240991   3.679   5.245   9.506
 5671TIP3    H140992   3.696   5.339   9.523
 5671TIP3    H240993   3.771   5.213   9.507
 5672TIP3   OH240994   1.977   4.927  10.750
 5672TIP3    H140995   1.928   4.920  10.667
 5672TIP3    H240996   1.980   4.834  10.779
 5673TIP3   OH240997   1.951   5.201  10.434
 5673TIP3    H140998   2.046   5.188  10.432
 5673TIP3    H240999   1.943   5.281  10.488
 5674TIP3   OH241000   2.857   5.199  10.866
 5674TIP3    H141001   2.868   5.290  10.900
 5674TIP3    H241002   2.771   5.172  10.906
 5675TIP3   OH241003   2.915   5.599   9.868
 5675TIP3    H141004   2.903   5.592   9.772
 5675TIP3    H241005   2.914   5.695   9.885
 5676TIP3   OH241006   2.278   5.488  10.052
 5676TIP3    H141007   2.293   5.446  10.139
 5676TIP3    H241008   2.193   5.446  10.028
 5677TIP3   OH241009   3.220   5.521   9.567
 5677TIP3    H141010   3.266   5.445   9.524
 5677TIP3    H241011   3.224   5.495   9.661
 5678TIP3   OH241012   3.189   5.515   9.845
 5678TIP3    H141013   3.093   5.522   9.861
 5678TIP3    H241014   3.212   5.440   9.902
 5679TIP3   OH241015   2.202   5.057  10.849
 5679TIP3    H141016   2.223   5.021  10.935
 5679TIP3    H241017   2.113   5.021  10.828
 5680TIP3   OH241018   2.471   3.909  10.441
 5680TIP3    H141019   2.380   3.894  10.409
 5680TIP3    H241020   2.458   3.988  10.496
 5681TIP3   OH241021   2.933   3.880  10.784
 5681TIP3    H141022   2.972   3.833  10.859
 5681TIP3    H241023   2.837   3.863  10.798
 5682TIP3   OH241024   3.249   4.254  10.868
 5682TIP3    H141025   3.213   4.241  10.958
 5682TIP3    H241026   3.246   4.351  10.851
 5683TIP3   OH241027   3.340   4.740   9.464
 5683TIP3    H141028   3.336   4.721   9.368
 5683TIP3    H241029   3.426   4.785   9.467
 5684TIP3   OH241030   2.899   4.133   9.513
 5684TIP3    H141031   2.867   4.126   9.605
 5684TIP3    H241032   2.868   4.045   9.482
 5685TIP3   OH241033   2.478   4.404  10.571
 5685TIP3    H141034   2.406   4.404  10.637
 5685TIP3    H241035   2.473   4.495  10.533
 5686TIP3   OH241036   2.477   4.414  10.058
 5686TIP3    H141037   2.383   4.390  10.045
 5686TIP3    H241038   2.514   4.387   9.972
 5687TIP3   OH241039   3.029   4.466   9.936
 5687TIP3    H141040   2.990   4.548   9.898
 5687TIP3    H241041   3.097   4.448   9.869
 5688TIP3   OH241042   3.133   4.416  10.220
 5688TIP3    H141043   3.103   4.472  10.146
 5688TIP3    H241044   3.142   4.331  10.173
 5689TIP3   OH241045   2.239   4.431  10.742
 5689TIP3    H141046   2.250   4.469  10.832
 5689TIP3    H241047   2.203   4.343  10.761
 5690TIP3   OH241048   2.579   4.168   9.424
 5690TIP3    H141049   2.533   4.126   9.501
 5690TIP3    H241050   2.509   4.212   9.376
 5691TIP3   OH241051   1.909   4.138  10.139
 5691TIP3    H141052   1.978   4.135  10.209
 5691TIP3    H241053   1.954   4.102  10.060
 5692TIP3   OH241054   2.035   4.211   9.673
 5692TIP3    H141055   2.087   4.271   9.617
 5692TIP3    H241056   1.967   4.274   9.704
 5693TIP3   OH241057   3.056   4.572  10.682
 5693TIP3    H141058   3.091   4.505  10.618
 5693TIP3    H241059   3.003   4.517  10.742
 5694TIP3   OH241060   2.733   4.172  10.159
 5694TIP3    H141061   2.639   4.171  10.188
 5694TIP3    H241062   2.780   4.153  10.241
 5695TIP3   OH241063   2.213   4.325  10.045
 5695TIP3    H141064   2.125   4.342  10.006
 5695TIP3    H241065   2.242   4.241  10.005
 5696TIP3   OH241066   2.577   4.331   9.808
 5696TIP3    H141067   2.673   4.342   9.823
 5696TIP3    H241068   2.553   4.399   9.743
 5697TIP3   OH241069   3.175   4.094  10.486
 5697TIP3    H141070   3.104   4.101  10.554
 5697TIP3    H241071   3.124   4.069  10.406
 5698TIP3   OH241072   2.449   4.448   9.567
 5698TIP3    H141073   2.395   4.410   9.495
 5698TIP3    H241074   2.530   4.470   9.519
 5699TIP3   OH241075   2.860   4.447  10.347
 5699TIP3    H141076   2.921   4.394  10.294
 5699TIP3    H241077   2.846   4.391  10.425
 5700TIP3   OH241078   2.361   4.061   9.991
 5700TIP3    H141079   2.330   3.969   9.992
 5700TIP3    H241080   2.440   4.053   9.936
 5701TIP3   OH241081   2.725   4.279  10.588
 5701TIP3    H141082   2.642   4.331  10.595
 5701TIP3    H241083   2.780   4.315  10.659
 5702TIP3   OH241084   2.783   4.901   9.759
 5702TIP3    H141085   2.703   4.855   9.725
 5702TIP3    H241086   2.760   4.915   9.853
 5703TIP3   OH241087   3.505   4.816  10.640
 5703TIP3    H141088   3.559   4.870  10.578
 5703TIP3    H241089   3.418   4.824  10.595
 5704TIP3   OH241090   3.165   4.182   9.577
 5704TIP3    H141091   3.071   4.199   9.563
 5704TIP3    H241092   3.200   4.267   9.612
 5705TIP3   OH241093   2.933   4.929  10.874
 5705TIP3    H141094   2.900   4.886  10.955
 5705TIP3    H241095   2.903   5.021  10.885
 5706TIP3   OH241096   3.239   4.376   9.737
 5706TIP3    H141097   3.327   4.362   9.780
 5706TIP3    H241098   3.251   4.458   9.687
 5707TIP3   OH241099   2.295   4.842  10.339
 5707TIP3    H141100   2.361   4.833  10.268
 5707TIP3    H241101   2.300   4.756  10.384
 5708TIP3   OH241102   2.992   5.048   9.662
 5708TIP3    H141103   2.958   5.133   9.697
 5708TIP3    H241104   2.919   4.986   9.684
 5709TIP3   OH241105   1.991   4.684  10.864
 5709TIP3    H141106   2.011   4.641  10.948
 5709TIP3    H241107   1.932   4.621  10.819
 5710TIP3   OH241108   3.159   5.172  10.879
 5710TIP3    H141109   3.068   5.187  10.852
 5710TIP3    H241110   3.164   5.197  10.972
 5711TIP3   OH241111   3.730   4.388   9.716
 5711TIP3    H141112   3.673   4.361   9.642
 5711TIP3    H241113   3.738   4.483   9.693
 5712TIP3   OH241114   3.554   5.271   9.755
 5712TIP3    H141115   3.522   5.188   9.791
 5712TIP3    H241116   3.591   5.249   9.668
 5713TIP3   OH241117   3.280   4.752  10.468
 5713TIP3    H141118   3.186   4.732  10.455
 5713TIP3    H241119   3.323   4.678  10.421
 5714TIP3   OH241120   2.532   5.187  10.078
 5714TIP3    H141121   2.581   5.268  10.057
 5714TIP3    H241122   2.444   5.210  10.044
 5715TIP3   OH241123   2.109   4.670   9.535
 5715TIP3    H141124   2.166   4.737   9.576
 5715TIP3    H241125   2.019   4.701   9.559
 5716TIP3   OH241126   2.672   4.953  10.027
 5716TIP3    H141127   2.640   5.045  10.038
 5716TIP3    H241128   2.602   4.903  10.073
 5717TIP3   OH241129   2.716   5.374  10.672
 5717TIP3    H141130   2.766   5.452  10.643
 5717TIP3    H241131   2.779   5.333  10.733
 5718TIP3   OH241132   2.541   5.452   9.981
 5718TIP3    H141133   2.445   5.466   9.995
 5718TIP3    H241134   2.578   5.535  10.015
 5719TIP3   OH241135   3.071   4.971  10.628
 5719TIP3    H141136   3.038   4.953  10.718
 5719TIP3    H241137   3.135   4.899  10.615
 5720TIP3   OH241138   3.305   5.080   9.541
 5720TIP3    H141139   3.334   5.032   9.621
 5720TIP3    H241140   3.210   5.061   9.548
 5721TIP3   OH241141   3.328   5.456  10.860
 5721TIP3    H141142   3.282   5.387  10.810
 5721TIP3    H241143   3.369   5.511  10.789
 5722TIP3   OH241144   3.751   5.514   9.567
 5722TIP3    H141145   3.819   5.581   9.545
 5722TIP3    H241146   3.679   5.575   9.595
 5723TIP3   OH241147   2.159   4.159  10.818
 5723TIP3    H141148   2.067   4.191  10.813
 5723TIP3    H241149   2.153   4.073  10.863
 5724TIP3   OH241150   3.382   4.943   9.765
 5724TIP3    H141151   3.358   4.864   9.818
 5724TIP3    H241152   3.477   4.946   9.782
 5725TIP3   OH241153   2.122   5.333  10.661
 5725TIP3    H141154   2.150   5.240  10.663
 5725TIP3    H241155   2.149   5.362  10.750
 5726TIP3   OH241156   2.718   5.187   9.391
 5726TIP3    H141157   2.727   5.110   9.331
 5726TIP3    H241158   2.672   5.143   9.466
 5727TIP3   OH241159   2.593   5.139   9.636
 5727TIP3    H141160   2.622   5.087   9.713
 5727TIP3    H241161   2.604   5.231   9.669
 5728TIP3   OH241162   2.249   4.863   9.685
 5728TIP3    H141163   2.177   4.903   9.737
 5728TIP3    H241164   2.299   4.941   9.654
 5729TIP3   OH241165   3.029   4.131  10.712
 5729TIP3    H141166   3.100   4.136  10.777
 5729TIP3    H241167   2.991   4.043  10.730
 5730TIP3   OH241168   3.105   4.088   9.825
 5730TIP3    H141169   3.128   4.134   9.742
 5730TIP3    H241170   3.163   4.133   9.888
 5731TIP3   OH241171   2.875   5.305   9.705
 5731TIP3    H141172   2.793   5.358   9.713
 5731TIP3    H241173   2.929   5.361   9.647
 5732TIP3   OH241174   2.829   4.263   9.907
 5732TIP3    H141175   2.906   4.323   9.912
 5732TIP3    H241176   2.802   4.251  10.000
 5733TIP3   OH241177   2.898   4.376  10.819
 5733TIP3    H141178   2.889   4.421  10.903
 5733TIP3    H241179   2.942   4.291  10.837
 5734TIP3   OH241180   2.913   3.969   9.994
 5734TIP3    H141181   2.881   4.035  10.057
 5734TIP3    H241182   2.983   4.024   9.950
 5735TIP3   OH241183   2.616   5.408   9.709
 5735TIP3    H141184   2.624   5.489   9.653
 5735TIP3    H241185   2.587   5.445   9.795
 5736TIP3   OH241186   2.479   4.080   9.666
 5736TIP3    H141187   2.474   4.170   9.705
 5736TIP3    H241188   2.570   4.056   9.692
 5737TIP3   OH241189   3.512   4.188  10.854
 5737TIP3    H141190   3.414   4.189  10.867
 5737TIP3    H241191   3.519   4.135  10.774
 5738TIP3   OH241192   3.364   4.532  10.310
 5738TIP3    H141193   3.281   4.487  10.283
 5738TIP3    H241194   3.412   4.464  10.362
 5739TIP3   OH241195   2.302   5.125   9.569
 5739TIP3    H141196   2.370   5.186   9.602
 5739TIP3    H241197   2.355   5.077   9.502
 5740TIP3   OH241198   2.137   4.392   9.485
 5740TIP3    H141199   2.139   4.488   9.506
 5740TIP3    H241200   2.048   4.376   9.454
 5741TIP3   OH241201   3.470   5.459  10.477
 5741TIP3    H141202   3.461   5.527  10.407
 5741TIP3    H241203   3.566   5.465  10.494
 5742TIP3   OH241204   2.217   3.870  10.360
 5742TIP3    H141205   2.200   3.872  10.263
 5742TIP3    H241206   2.178   3.784  10.384
 5743TIP3   OH241207   2.114   5.263   9.975
 5743TIP3    H141208   2.029   5.306   9.968
 5743TIP3    H241209   2.161   5.308   9.903
 5744TIP3   OH241210   2.917   5.371   9.403
 5744TIP3    H141211   2.847   5.305   9.424
 5744TIP3    H241212   2.989   5.311   9.378
 5745TIP3   OH241213   3.373   5.345   9.421
 5745TIP3    H141214   3.402   5.268   9.472
 5745TIP3    H241215   3.449   5.366   9.366
 5746TIP3   OH241216   2.461   4.940   9.402
 5746TIP3    H141217   2.475   4.864   9.461
 5746TIP3    H241218   2.536   4.928   9.341
 5747TIP3   OH241219   3.004   5.051   9.381
 5747TIP3    H141220   2.977   5.058   9.474
 5747TIP3    H241221   2.986   4.955   9.366
 5748TIP3   OH241222   3.265   4.889  10.866
 5748TIP3    H141223   3.345   4.946  10.870
 5748TIP3    H241224   3.197   4.956  10.884
 5749TIP3   OH241225   2.581   4.742   9.647
 5749TIP3    H141226   2.530   4.687   9.709
 5749TIP3    H241227   2.612   4.675   9.582
 5750TIP3   OH241228   2.508   4.536  10.864
 5750TIP3    H141229   2.444   4.602  10.893
 5750TIP3    H241230   2.547   4.572  10.783
 5751TIP3   OH241231   2.689   4.564   9.466
 5751TIP3    H141232   2.674   4.556   9.369
 5751TIP3    H241233   2.787   4.568   9.473
 5752TIP3   OH241234   3.620   4.795   9.407
 5752TIP3    H141235   3.603   4.758   9.319
 5752TIP3    H241236   3.630   4.892   9.388
 5753TIP3   OH241237   2.516   4.301  10.951
 5753TIP3    H141238   2.568   4.230  10.911
 5753TIP3    H241239   2.547   4.379  10.899
 5754TIP3   OH241240   2.587   4.096  10.737
 5754TIP3    H141241   2.639   4.144  10.668
 5754TIP3    H241242   2.499   4.088  10.695
 5755TIP3   OH241243   2.744   4.640  10.756
 5755TIP3    H141244   2.821   4.631  10.700
 5755TIP3    H241245   2.707   4.727  10.730
 5756TIP3   OH241246   2.669   3.841  10.777
 5756TIP3    H141247   2.651   3.937  10.775
 5756TIP3    H241248   2.593   3.806  10.728
 5757TIP3   OH241249   2.671   5.634   9.574
 5757TIP3    H141250   2.768   5.641   9.581
 5757TIP3    H241251   2.658   5.693   9.499
 5758TIP3   OH241252   2.026   5.090   9.521
 5758TIP3    H141253   2.123   5.100   9.539
 5758TIP3    H241254   2.031   5.027   9.446
 5759TIP3   OH241255   1.905   5.629  10.017
 5759TIP3    H141256   1.833   5.580   9.972
 5759TIP3    H241257   1.933   5.564  10.084
 5760TIP3   OH241258   1.987   5.443  10.206
 5760TIP3    H141259   1.952   5.356  10.226
 5760TIP3    H241260   2.011   5.476  10.294
 5761TIP3   OH241261   3.742   5.521  10.500
 5761TIP3    H141262   3.747   5.537  10.596
 5761TIP3    H241263   3.811   5.580  10.468
 5762TIP3   OH241264   3.701   5.483  10.790
 5762TIP3    H141265   3.652   5.407  10.753
 5762TIP3    H241266   3.750   5.441  10.861
 5763TIP3   OH241267   3.675   4.888   9.802
 5763TIP3    H141268   3.762   4.927   9.821
 5763TIP3    H241269   3.673   4.817   9.869
 5764TIP3   OH241270   3.711   4.696   9.992
 5764TIP3    H141271   3.635   4.646  10.031
 5764TIP3    H241272   3.770   4.708  10.068
 5765TIP3   OH241273   3.686   4.963  10.490
 5765TIP3    H141274   3.767   4.925  10.453
 5765TIP3    H241275   3.701   5.058  10.471
 5766TIP3   OH241276   3.539   5.256  10.718
 5766TIP3    H141277   3.471   5.288  10.779
 5766TIP3    H241278   3.487   5.214  10.646
 5767TIP3   OH241279   3.741   4.677   9.630
 5767TIP3    H141280   3.684   4.710   9.558
 5767TIP3    H241281   3.730   4.749   9.696
 5768TIP3   OH241282   3.579   4.399   9.481
 5768TIP3    H141283   3.586   4.466   9.411
 5768TIP3    H241284   3.560   4.317   9.431
 5769TIP3   OH241285   3.493   4.542  10.049
 5769TIP3    H141286   3.479   4.447  10.044
 5769TIP3    H241287   3.461   4.563  10.138
 5770TIP3   OH241288   1.994   4.752  10.455
 5770TIP3    H141289   2.011   4.742  10.358
 5770TIP3    H241290   2.083   4.732  10.491
 5771TIP3   OH241291   3.504   4.148   9.395
 5771TIP3    H141292   3.562   4.103   9.459
 5771TIP3    H241293   3.417   4.107   9.410
 5772TIP3   OH241294   3.457   4.300   9.889
 5772TIP3    H141295   3.489   4.208   9.906
 5772TIP3    H241296   3.540   4.341   9.860
 5773TIP3   OH241297   3.524   4.355  10.436
 5773TIP3    H141298   3.620   4.378  10.436
 5773TIP3    H241299   3.504   4.369  10.529
 5774TIP3   OH241300   3.533   4.431  10.721
 5774TIP3    H141301   3.441   4.456  10.745
 5774TIP3    H241302   3.572   4.517  10.691
 5775TIP3   OH241303   3.527   4.029   9.899
 5775TIP3    H141304   3.549   3.987   9.984
 5775TIP3    H241305   3.468   3.965   9.855
 5776TIP3   OH241306   2.074   4.110  10.357
 5776TIP3    H141307   2.121   4.027  10.380
 5776TIP3    H241308   2.131   4.179  10.393
 5777TIP3   OH241309   1.903   4.409  10.457
 5777TIP3    H141310   1.960   4.384  10.382
 5777TIP3    H241311   1.950   4.489  10.485
 5778TIP3   OH241312   3.709   4.033   9.555
 5778TIP3    H141313   3.749   3.962   9.500
 5778TIP3    H241314   3.779   4.099   9.559
 5779TIP3   OH241315   1.941   4.039   9.867
 5779TIP3    H141316   1.846   4.053   9.850
 5779TIP3    H241317   1.982   4.086   9.793
 5780TIP3   OH241318   3.414   5.531  10.061
 5780TIP3    H141319   3.482   5.502   9.999
 5780TIP3    H241320   3.465   5.581  10.127
 5781TIP3   OH241321   1.936   3.905  10.696
 5781TIP3    H141322   1.868   3.883  10.762
 5781TIP3    H241323   1.888   3.970  10.641
 5782TIP3   OH241324   2.446   5.321  10.736
 5782TIP3    H141325   2.414   5.407  10.708
 5782TIP3    H241326   2.540   5.329  10.711
 5783TIP3   OH241327   3.108   5.608  -0.033
 5783TIP3    H141328   3.176   5.540  -0.054
 5783TIP3    H241329   3.147   5.630   0.053
 5784TIP3   OH241330   3.615   3.857  10.862
 5784TIP3    H141331   3.524   3.876  10.832
 5784TIP3    H241332   3.627   3.768  10.822
 5785TIP3   OH241333   2.189   5.648  10.741
 5785TIP3    H141334   2.114   5.695  10.701
 5785TIP3    H241335   2.157   5.623  10.829
 5786TIP3   OH241336   2.437   5.603  10.639
 5786TIP3    H141337   2.352   5.620  10.686
 5786TIP3    H241338   2.431   5.665  10.565
 5787TIP3   OH241339   2.907   5.593  10.565
 5787TIP3    H141340   2.863   5.649  10.499
 5787TIP3    H241341   2.920   5.656  10.638
 5788TIP3   OH241342   3.137   5.470  10.656
 5788TIP3    H141343   3.051   5.504  10.628
 5788TIP3    H241344   3.184   5.555  10.657
 5789TIP3   OH241345   3.406   5.634  10.686
 5789TIP3    H141346   3.392   5.728  10.662
 5789TIP3    H241347   3.419   5.594  10.598
 5790TIP3   OH241348   2.139   5.511  10.433
 5790TIP3    H141349   2.131   5.465  10.519
 5790TIP3    H241350   2.220   5.471  10.395
 5791TIP3   OH241351   2.345   5.381  10.298
 5791TIP3    H141352   2.329   5.288  10.322
 5791TIP3    H241353   2.431   5.397  10.344
 5792TIP3   OH241354   2.607   5.431  10.384
 5792TIP3    H141355   2.620   5.338  10.360
 5792TIP3    H241356   2.610   5.426  10.481
 5793TIP3   OH241357   2.951   3.995  10.300
 5793TIP3    H141358   2.883   3.931  10.328
 5793TIP3    H241359   3.006   3.941  10.242
 5794TIP3   OH241360   3.465   3.801  10.307
 5794TIP3    H141361   3.525   3.858  10.254
 5794TIP3    H241362   3.376   3.835  10.282
 5795TIP3   OH241363   3.630   3.926  10.133
 5795TIP3    H141364   3.699   3.868  10.092
 5795TIP3    H241365   3.682   4.009  10.144
 5796TIP3   OH241366   2.189   3.857  10.084
 5796TIP3    H141367   2.109   3.839  10.032
 5796TIP3    H241368   2.234   3.770  10.078
 5797TIP3   OH241369   2.064   3.832   9.656
 5797TIP3    H141370   2.114   3.897   9.603
 5797TIP3    H241371   2.008   3.890   9.711
 5798TIP3   OH241372   2.634   3.850  10.064
 5798TIP3    H141373   2.724   3.885  10.054
 5798TIP3    H241374   2.632   3.829  10.157
 5799TIP3   OH241375   3.208   3.851  10.225
 5799TIP3    H141376   3.200   3.863  10.130
 5799TIP3    H241377   3.169   3.762  10.238
 5800TIP3   OH241378   3.333   3.855   9.794
 5800TIP3    H141379   3.258   3.914   9.779
 5800TIP3    H241380   3.289   3.769   9.818
 5801TIP3   OH241381   2.055   5.427   9.761
 5801TIP3    H141382   1.991   5.425   9.688
 5801TIP3    H241383   2.056   5.523   9.777
 5802TIP3   OH241384   2.247   4.027   9.508
 5802TIP3    H141385   2.300   3.965   9.455
 5802TIP3    H241386   2.313   4.060   9.571
 5803TIP3   OH241387   2.749   4.051   9.748
 5803TIP3    H141388   2.775   3.994   9.822
 5803TIP3    H241389   2.758   4.138   9.793
 5804TIP3   OH241390   2.944   5.560   9.592
 5804TIP3    H141391   3.036   5.580   9.571
 5804TIP3    H241392   2.921   5.506   9.513
 5805TIP3   OH241393   3.612   5.508   9.866
 5805TIP3    H141394   3.594   5.430   9.809
 5805TIP3    H241395   3.606   5.582   9.801
 5806TIP3   OH241396   2.235   5.527   9.454
 5806TIP3    H141397   2.209   5.552   9.544
 5806TIP3    H241398   2.313   5.470   9.469
 5807TIP3   OH241399   4.983   4.772  10.068
 5807TIP3    H141400   4.980   4.870  10.068
 5807TIP3    H241401   4.909   4.749  10.010
 5808TIP3   OH241402   4.867   4.696  10.420
 5808TIP3    H141403   4.867   4.631  10.492
 5808TIP3    H241404   4.832   4.645  10.345
 5809TIP3   OH241405   4.103   4.664  10.574
 5809TIP3    H141406   4.111   4.596  10.643
 5809TIP3    H241407   4.177   4.722  10.597
 5810TIP3   OH241408   5.235   4.992  10.249
 5810TIP3    H141409   5.194   4.920  10.299
 5810TIP3    H241410   5.238   5.062  10.316
 5811TIP3   OH241411   4.195   5.110  10.422
 5811TIP3    H141412   4.165   5.022  10.393
 5811TIP3    H241413   4.290   5.092  10.432
 5812TIP3   OH241414   3.858   4.464   9.975
 5812TIP3    H141415   3.815   4.552   9.968
 5812TIP3    H241416   3.803   4.410   9.917
 5813TIP3   OH241417   3.931   4.688  10.191
 5813TIP3    H141418   3.959   4.605  10.234
 5813TIP3    H241419   3.999   4.699  10.123
 5814TIP3   OH241420   4.947   5.508  10.274
 5814TIP3    H141421   5.012   5.440  10.243
 5814TIP3    H241422   4.927   5.473  10.361
 5815TIP3   OH241423   4.704   4.936  10.472
 5815TIP3    H141424   4.737   4.876  10.404
 5815TIP3    H241425   4.787   4.953  10.520
 5816TIP3   OH241426   5.564   4.104  10.542
 5816TIP3    H141427   5.582   4.163  10.617
 5816TIP3    H241428   5.622   4.144  10.476
 5817TIP3   OH241429   5.018   4.384  10.501
 5817TIP3    H141430   5.038   4.289  10.502
 5817TIP3    H241431   5.010   4.398  10.405
 5818TIP3   OH241432   4.333   4.193  10.220
 5818TIP3    H141433   4.344   4.276  10.170
 5818TIP3    H241434   4.293   4.135  10.151
 5819TIP3   OH241435   5.106   4.200  10.058
 5819TIP3    H141436   5.171   4.168  10.125
 5819TIP3    H241437   5.163   4.259  10.006
 5820TIP3   OH241438   3.994   4.434  10.293
 5820TIP3    H141439   4.061   4.381  10.340
 5820TIP3    H241440   4.007   4.402  10.202
 5821TIP3   OH241441   4.511   4.590  10.227
 5821TIP3    H141442   4.579   4.531  10.265
 5821TIP3    H241443   4.460   4.524  10.175
 5822TIP3   OH241444   5.626   4.260  10.766
 5822TIP3    H141445   5.547   4.319  10.754
 5822TIP3    H241446   5.609   4.234  10.857
 5823TIP3   OH241447   4.226   4.082  10.617
 5823TIP3    H141448   4.196   4.143  10.547
 5823TIP3    H241449   4.163   4.103  10.689
 5824TIP3   OH241450   4.952   5.030   9.979
 5824TIP3    H141451   4.927   5.004   9.889
 5824TIP3    H241452   4.922   5.124   9.984
 5825TIP3   OH241453   4.475   4.847  10.651
 5825TIP3    H141454   4.404   4.913  10.670
 5825TIP3    H241455   4.545   4.906  10.618
 5826TIP3   OH241456   5.289   4.136  10.257
 5826TIP3    H141457   5.267   4.059  10.311
 5826TIP3    H241458   5.356   4.179  10.313
 5827TIP3   OH241459   4.179   4.271  10.423
 5827TIP3    H141460   4.242   4.337  10.458
 5827TIP3    H241461   4.233   4.228  10.352
 5828TIP3   OH241462   4.320   5.048  10.727
 5828TIP3    H141463   4.316   5.143  10.703
 5828TIP3    H241464   4.235   5.041  10.776
 5829TIP3   OH241465   3.928   5.007   9.808
 5829TIP3    H141466   3.904   5.043   9.721
 5829TIP3    H241467   3.937   5.089   9.861
 5830TIP3   OH241468   5.288   5.176  10.486
 5830TIP3    H141469   5.191   5.187  10.497
 5830TIP3    H241470   5.315   5.268  10.465
 5831TIP3   OH241471   5.319   4.008  10.629
 5831TIP3    H141472   5.246   4.069  10.613
 5831TIP3    H241473   5.391   4.044  10.573
 5832TIP3   OH241474   4.616   3.815  10.368
 5832TIP3    H141475   4.601   3.719  10.363
 5832TIP3    H241476   4.530   3.846  10.403
 5833TIP3   OH241477   5.115   5.354  10.143
 5833TIP3    H141478   5.157   5.282  10.093
 5833TIP3    H241479   5.160   5.433  10.105
 5834TIP3   OH241480   5.237   5.147   9.996
 5834TIP3    H141481   5.206   5.077   9.936
 5834TIP3    H241482   5.240   5.097  10.080
 5835TIP3   OH241483   5.401   5.004  10.843
 5835TIP3    H141484   5.414   4.945  10.766
 5835TIP3    H241485   5.422   5.091  10.806
 5836TIP3   OH241486   4.847   4.694   9.821
 5836TIP3    H141487   4.779   4.754   9.784
 5836TIP3    H241488   4.919   4.705   9.755
 5837TIP3   OH241489   4.857   4.553   9.522
 5837TIP3    H141490   4.927   4.552   9.589
 5837TIP3    H241491   4.886   4.480   9.466
 5838TIP3   OH241492   5.587   4.636  10.647
 5838TIP3    H141493   5.522   4.709  10.654
 5838TIP3    H241494   5.636   4.662  10.568
 5839TIP3   OH241495   5.194   4.715   9.913
 5839TIP3    H141496   5.120   4.740   9.973
 5839TIP3    H241497   5.241   4.649   9.967
 5840TIP3   OH241498   5.183   4.531  10.823
 5840TIP3    H141499   5.185   4.609  10.879
 5840TIP3    H241500   5.120   4.563  10.755
 5841TIP3   OH241501   4.354   4.782  10.105
 5841TIP3    H141502   4.322   4.743  10.020
 5841TIP3    H241503   4.415   4.713  10.139
 5842TIP3   OH241504   4.485   5.119  10.372
 5842TIP3    H141505   4.486   5.068  10.291
 5842TIP3    H241506   4.564   5.085  10.418
 5843TIP3   OH241507   4.386   4.658  10.471
 5843TIP3    H141508   4.441   4.667  10.391
 5843TIP3    H241509   4.426   4.722  10.534
 5844TIP3   OH241510   5.030   5.214  10.543
 5844TIP3    H141511   4.999   5.281  10.605
 5844TIP3    H241512   5.002   5.129  10.586
 5845TIP3   OH241513   4.494   5.116  10.935
 5845TIP3    H141514   4.451   5.182  10.992
 5845TIP3    H241515   4.419   5.092  10.876
 5846TIP3   OH241516   5.081   4.637   9.680
 5846TIP3    H141517   5.136   4.655   9.760
 5846TIP3    H241518   5.127   4.687   9.608
 5847TIP3   OH241519   4.176   4.717  10.862
 5847TIP3    H141520   4.181   4.783  10.933
 5847TIP3    H241521   4.084   4.726  10.833
 5848TIP3   OH241522   4.852   5.309  10.028
 5848TIP3    H141523   4.893   5.340  10.109
 5848TIP3    H241524   4.796   5.384  10.003
 5849TIP3   OH241525   5.454   3.810   9.672
 5849TIP3    H141526   5.358   3.820   9.695
 5849TIP3    H241527   5.473   3.893   9.627
 5850TIP3   OH241528   4.249   4.683   9.869
 5850TIP3    H141529   4.222   4.762   9.817
 5850TIP3    H241530   4.185   4.617   9.843
 5851TIP3   OH241531   5.564   5.245   9.506
 5851TIP3    H141532   5.582   5.339   9.523
 5851TIP3    H241533   5.656   5.213   9.507
 5852TIP3   OH241534   3.863   4.928  10.749
 5852TIP3    H141535   3.814   4.920  10.666
 5852TIP3    H241536   3.866   4.835  10.778
 5853TIP3   OH241537   3.836   5.201  10.434
 5853TIP3    H141538   3.932   5.188  10.432
 5853TIP3    H241539   3.828   5.281  10.488
 5854TIP3   OH241540   4.744   5.199  10.869
 5854TIP3    H141541   4.750   5.291  10.900
 5854TIP3    H241542   4.656   5.175  10.906
 5855TIP3   OH241543   4.800   5.599   9.868
 5855TIP3    H141544   4.788   5.592   9.772
 5855TIP3    H241545   4.800   5.695   9.885
 5856TIP3   OH241546   4.163   5.488  10.052
 5856TIP3    H141547   4.178   5.446  10.139
 5856TIP3    H241548   4.079   5.446  10.028
 5857TIP3   OH241549   5.105   5.521   9.567
 5857TIP3    H141550   5.151   5.445   9.524
 5857TIP3    H241551   5.109   5.495   9.661
 5858TIP3   OH241552   5.075   5.515   9.845
 5858TIP3    H141553   4.979   5.522   9.861
 5858TIP3    H241554   5.097   5.440   9.902
 5859TIP3   OH241555   4.087   5.055  10.847
 5859TIP3    H141556   4.110   5.023  10.935
 5859TIP3    H241557   3.997   5.019  10.828
 5860TIP3   OH241558   4.357   3.909  10.441
 5860TIP3    H141559   4.266   3.894  10.408
 5860TIP3    H241560   4.343   3.988  10.496
 5861TIP3   OH241561   4.819   3.880  10.784
 5861TIP3    H141562   4.858   3.834  10.860
 5861TIP3    H241563   4.722   3.863  10.799
 5862TIP3   OH241564   5.128   4.255  10.866
 5862TIP3    H141565   5.102   4.242  10.959
 5862TIP3    H241566   5.135   4.351  10.852
 5863TIP3   OH241567   5.226   4.740   9.464
 5863TIP3    H141568   5.222   4.721   9.368
 5863TIP3    H241569   5.311   4.785   9.467
 5864TIP3   OH241570   4.785   4.133   9.513
 5864TIP3    H141571   4.753   4.126   9.605
 5864TIP3    H241572   4.754   4.045   9.482
 5865TIP3   OH241573   4.364   4.405  10.571
 5865TIP3    H141574   4.292   4.404  10.637
 5865TIP3    H241575   4.359   4.495  10.533
 5866TIP3   OH241576   4.363   4.414  10.059
 5866TIP3    H141577   4.269   4.390  10.045
 5866TIP3    H241578   4.400   4.387   9.972
 5867TIP3   OH241579   4.915   4.466   9.936
 5867TIP3    H141580   4.876   4.548   9.898
 5867TIP3    H241581   4.983   4.448   9.869
 5868TIP3   OH241582   5.019   4.416  10.220
 5868TIP3    H141583   4.989   4.472  10.146
 5868TIP3    H241584   5.027   4.331  10.173
 5869TIP3   OH241585   4.121   4.432  10.743
 5869TIP3    H141586   4.138   4.469  10.832
 5869TIP3    H241587   4.089   4.342  10.762
 5870TIP3   OH241588   4.465   4.168   9.424
 5870TIP3    H141589   4.419   4.126   9.501
 5870TIP3    H241590   4.394   4.212   9.376
 5871TIP3   OH241591   3.795   4.138  10.139
 5871TIP3    H141592   3.864   4.135  10.209
 5871TIP3    H241593   3.839   4.102  10.060
 5872TIP3   OH241594   3.920   4.211   9.673
 5872TIP3    H141595   3.973   4.271   9.617
 5872TIP3    H241596   3.852   4.274   9.704
 5873TIP3   OH241597   4.942   4.572  10.682
 5873TIP3    H141598   4.977   4.505  10.618
 5873TIP3    H241599   4.888   4.517  10.742
 5874TIP3   OH241600   4.618   4.172  10.159
 5874TIP3    H141601   4.525   4.171  10.187
 5874TIP3    H241602   4.666   4.153  10.241
 5875TIP3   OH241603   4.099   4.325  10.046
 5875TIP3    H141604   4.011   4.342  10.006
 5875TIP3    H241605   4.127   4.241  10.005
 5876TIP3   OH241606   4.463   4.331   9.808
 5876TIP3    H141607   4.559   4.342   9.823
 5876TIP3    H241608   4.439   4.399   9.743
 5877TIP3   OH241609   5.060   4.094  10.485
 5877TIP3    H141610   4.989   4.101  10.553
 5877TIP3    H241611   5.009   4.069  10.406
 5878TIP3   OH241612   4.334   4.448   9.567
 5878TIP3    H141613   4.281   4.410   9.495
 5878TIP3    H241614   4.416   4.470   9.519
 5879TIP3   OH241615   4.746   4.447  10.347
 5879TIP3    H141616   4.806   4.394  10.294
 5879TIP3    H241617   4.732   4.391  10.425
 5880TIP3   OH241618   4.247   4.061   9.991
 5880TIP3    H141619   4.216   3.969   9.992
 5880TIP3    H241620   4.326   4.053   9.936
 5881TIP3   OH241621   4.610   4.278  10.588
 5881TIP3    H141622   4.528   4.330  10.595
 5881TIP3    H241623   4.666   4.314  10.659
 5882TIP3   OH241624   4.669   4.901   9.759
 5882TIP3    H141625   4.589   4.855   9.725
 5882TIP3    H241626   4.645   4.915   9.853
 5883TIP3   OH241627   5.391   4.816  10.640
 5883TIP3    H141628   5.444   4.870  10.578
 5883TIP3    H241629   5.304   4.824  10.595
 5884TIP3   OH241630   5.051   4.182   9.577
 5884TIP3    H141631   4.956   4.199   9.563
 5884TIP3    H241632   5.086   4.267   9.612
 5885TIP3   OH241633   4.818   4.931  10.874
 5885TIP3    H141634   4.786   4.887  10.954
 5885TIP3    H241635   4.787   5.022  10.886
 5886TIP3   OH241636   5.125   4.376   9.737
 5886TIP3    H141637   5.212   4.362   9.780
 5886TIP3    H241638   5.137   4.458   9.687
 5887TIP3   OH241639   4.181   4.842  10.339
 5887TIP3    H141640   4.247   4.833  10.268
 5887TIP3    H241641   4.186   4.756  10.384
 5888TIP3   OH241642   4.878   5.048   9.662
 5888TIP3    H141643   4.843   5.133   9.697
 5888TIP3    H241644   4.805   4.986   9.684
 5889TIP3   OH241645   3.877   4.684  10.865
 5889TIP3    H141646   3.898   4.642  10.949
 5889TIP3    H241647   3.818   4.622  10.818
 5890TIP3   OH241648   5.043   5.172  10.879
 5890TIP3    H141649   4.951   5.190  10.854
 5890TIP3    H241650   5.050   5.197  10.972
 5891TIP3   OH241651   5.616   4.388   9.716
 5891TIP3    H141652   5.558   4.361   9.642
 5891TIP3    H241653   5.623   4.483   9.693
 5892TIP3   OH241654   5.440   5.271   9.755
 5892TIP3    H141655   5.408   5.188   9.791
 5892TIP3    H241656   5.477   5.249   9.668
 5893TIP3   OH241657   5.166   4.753  10.468
 5893TIP3    H141658   5.072   4.732  10.455
 5893TIP3    H241659   5.208   4.678  10.421
 5894TIP3   OH241660   4.418   5.187  10.078
 5894TIP3    H141661   4.467   5.268  10.057
 5894TIP3    H241662   4.330   5.210  10.044
 5895TIP3   OH241663   3.994   4.670   9.535
 5895TIP3    H141664   4.052   4.737   9.576
 5895TIP3    H241665   3.905   4.701   9.559
 5896TIP3   OH241666   4.557   4.954  10.027
 5896TIP3    H141667   4.525   5.045  10.039
 5896TIP3    H241668   4.488   4.903  10.073
 5897TIP3   OH241669   4.604   5.372  10.666
 5897TIP3    H141670   4.650   5.455  10.646
 5897TIP3    H241671   4.659   5.337  10.737
 5898TIP3   OH241672   4.427   5.452   9.981
 5898TIP3    H141673   4.330   5.466   9.995
 5898TIP3    H241674   4.463   5.535  10.015
 5899TIP3   OH241675   4.956   4.971  10.628
 5899TIP3    H141676   4.924   4.953  10.718
 5899TIP3    H241677   5.020   4.899  10.615
 5900TIP3   OH241678   5.191   5.080   9.541
 5900TIP3    H141679   5.220   5.032   9.621
 5900TIP3    H241680   5.096   5.061   9.548
 5901TIP3   OH241681   5.215   5.455  10.859
 5901TIP3    H141682   5.167   5.387  10.809
 5901TIP3    H241683   5.254   5.511  10.789
 5902TIP3   OH241684   5.637   5.514   9.567
 5902TIP3    H141685   5.705   5.581   9.545
 5902TIP3    H241686   5.565   5.575   9.595
 5903TIP3   OH241687   4.043   4.160  10.819
 5903TIP3    H141688   3.951   4.188  10.812
 5903TIP3    H241689   4.042   4.074  10.863
 5904TIP3   OH241690   5.267   4.943   9.765
 5904TIP3    H141691   5.243   4.864   9.818
 5904TIP3    H241692   5.363   4.946   9.782
 5905TIP3   OH241693   4.008   5.334  10.663
 5905TIP3    H141694   4.036   5.241  10.663
 5905TIP3    H241695   4.038   5.362  10.750
 5906TIP3   OH241696   4.604   5.186   9.391
 5906TIP3    H141697   4.612   5.110   9.331
 5906TIP3    H241698   4.557   5.143   9.466
 5907TIP3   OH241699   4.479   5.139   9.636
 5907TIP3    H141700   4.508   5.087   9.713
 5907TIP3    H241701   4.489   5.231   9.669
 5908TIP3   OH241702   4.135   4.863   9.685
 5908TIP3    H141703   4.063   4.903   9.737
 5908TIP3    H241704   4.185   4.941   9.654
 5909TIP3   OH241705   4.915   4.131  10.712
 5909TIP3    H141706   4.986   4.136  10.777
 5909TIP3    H241707   4.876   4.043  10.730
 5910TIP3   OH241708   4.991   4.088   9.825
 5910TIP3    H141709   5.014   4.134   9.742
 5910TIP3    H241710   5.049   4.133   9.888
 5911TIP3   OH241711   4.760   5.305   9.705
 5911TIP3    H141712   4.678   5.358   9.713
 5911TIP3    H241713   4.814   5.361   9.647
 5912TIP3   OH241714   4.715   4.263   9.907
 5912TIP3    H141715   4.792   4.323   9.912
 5912TIP3    H241716   4.687   4.251  10.000
 5913TIP3   OH241717   4.784   4.376  10.819
 5913TIP3    H141718   4.775   4.421  10.903
 5913TIP3    H241719   4.828   4.291  10.837
 5914TIP3   OH241720   4.799   3.969   9.994
 5914TIP3    H141721   4.766   4.035  10.057
 5914TIP3    H241722   4.869   4.024   9.950
 5915TIP3   OH241723   4.501   5.408   9.709
 5915TIP3    H141724   4.510   5.489   9.653
 5915TIP3    H241725   4.473   5.445   9.795
 5916TIP3   OH241726   4.365   4.080   9.666
 5916TIP3    H141727   4.360   4.170   9.705
 5916TIP3    H241728   4.456   4.056   9.692
 5917TIP3   OH241729   5.392   4.184  10.858
 5917TIP3    H141730   5.295   4.188  10.867
 5917TIP3    H241731   5.407   4.139  10.774
 5918TIP3   OH241732   5.249   4.532  10.310
 5918TIP3    H141733   5.167   4.487  10.284
 5918TIP3    H241734   5.298   4.464  10.363
 5919TIP3   OH241735   4.188   5.125   9.570
 5919TIP3    H141736   4.255   5.186   9.602
 5919TIP3    H241737   4.240   5.077   9.502
 5920TIP3   OH241738   4.022   4.392   9.484
 5920TIP3    H141739   4.025   4.488   9.506
 5920TIP3    H241740   3.933   4.376   9.454
 5921TIP3   OH241741   5.356   5.458  10.477
 5921TIP3    H141742   5.346   5.527  10.408
 5921TIP3    H241743   5.452   5.465  10.494
 5922TIP3   OH241744   4.103   3.870  10.359
 5922TIP3    H141745   4.086   3.872  10.263
 5922TIP3    H241746   4.064   3.783  10.384
 5923TIP3   OH241747   4.000   5.263   9.975
 5923TIP3    H141748   3.914   5.307   9.968
 5923TIP3    H241749   4.047   5.308   9.903
 5924TIP3   OH241750   4.803   5.371   9.403
 5924TIP3    H141751   4.733   5.305   9.424
 5924TIP3    H241752   4.874   5.311   9.378
 5925TIP3   OH241753   5.258   5.345   9.421
 5925TIP3    H141754   5.287   5.268   9.472
 5925TIP3    H241755   5.335   5.366   9.366
 5926TIP3   OH241756   4.346   4.940   9.402
 5926TIP3    H141757   4.360   4.864   9.461
 5926TIP3    H241758   4.422   4.928   9.341
 5927TIP3   OH241759   4.890   5.051   9.381
 5927TIP3    H141760   4.863   5.058   9.474
 5927TIP3    H241761   4.871   4.955   9.366
 5928TIP3   OH241762   5.151   4.889  10.865
 5928TIP3    H141763   5.231   4.946  10.870
 5928TIP3    H241764   5.083   4.956  10.884
 5929TIP3   OH241765   4.467   4.742   9.647
 5929TIP3    H141766   4.415   4.687   9.709
 5929TIP3    H241767   4.497   4.675   9.582
 5930TIP3   OH241768   4.395   4.538  10.863
 5930TIP3    H141769   4.330   4.603  10.893
 5930TIP3    H241770   4.432   4.573  10.782
 5931TIP3   OH241771   4.575   4.564   9.466
 5931TIP3    H141772   4.560   4.556   9.369
 5931TIP3    H241773   4.672   4.568   9.473
 5932TIP3   OH241774   5.506   4.795   9.407
 5932TIP3    H141775   5.489   4.758   9.319
 5932TIP3    H241776   5.516   4.892   9.389
 5933TIP3   OH241777   4.401   4.304  10.950
 5933TIP3    H141778   4.452   4.230  10.914
 5933TIP3    H241779   4.434   4.379  10.898
 5934TIP3   OH241780   4.474   4.097  10.736
 5934TIP3    H141781   4.524   4.144  10.667
 5934TIP3    H241782   4.385   4.087  10.696
 5935TIP3   OH241783   4.630   4.640  10.756
 5935TIP3    H141784   4.707   4.631  10.700
 5935TIP3    H241785   4.593   4.726  10.730
 5936TIP3   OH241786   4.558   3.842  10.771
 5936TIP3    H141787   4.536   3.937  10.777
 5936TIP3    H241788   4.477   3.807  10.732
 5937TIP3   OH241789   4.557   5.634   9.574
 5937TIP3    H141790   4.654   5.641   9.581
 5937TIP3    H241791   4.543   5.693   9.499
 5938TIP3   OH241792   3.912   5.090   9.521
 5938TIP3    H141793   4.008   5.100   9.539
 5938TIP3    H241794   3.916   5.027   9.446
 5939TIP3   OH241795   3.791   5.629  10.017
 5939TIP3    H141796   3.719   5.580   9.972
 5939TIP3    H241797   3.819   5.564  10.084
 5940TIP3   OH241798   3.873   5.443  10.206
 5940TIP3    H141799   3.838   5.356  10.226
 5940TIP3    H241800   3.896   5.476  10.294
 5941TIP3   OH241801   5.628   5.521  10.500
 5941TIP3    H141802   5.632   5.537  10.596
 5941TIP3    H241803   5.697   5.580  10.468
 5942TIP3   OH241804   5.587   5.483  10.790
 5942TIP3    H141805   5.538   5.407  10.753
 5942TIP3    H241806   5.635   5.441  10.861
 5943TIP3   OH241807   5.561   4.888   9.802
 5943TIP3    H141808   5.648   4.926   9.821
 5943TIP3    H241809   5.559   4.817   9.869
 5944TIP3   OH241810   5.596   4.696   9.992
 5944TIP3    H141811   5.521   4.646  10.031
 5944TIP3    H241812   5.656   4.708  10.068
 5945TIP3   OH241813   5.572   4.963  10.490
 5945TIP3    H141814   5.652   4.925  10.452
 5945TIP3    H241815   5.586   5.058  10.471
 5946TIP3   OH241816   5.425   5.256  10.718
 5946TIP3    H141817   5.357   5.288  10.779
 5946TIP3    H241818   5.373   5.214  10.646
 5947TIP3   OH241819   5.627   4.677   9.630
 5947TIP3    H141820   5.569   4.710   9.558
 5947TIP3    H241821   5.616   4.749   9.696
 5948TIP3   OH241822   5.465   4.399   9.481
 5948TIP3    H141823   5.472   4.466   9.411
 5948TIP3    H241824   5.445   4.317   9.431
 5949TIP3   OH241825   5.379   4.542  10.049
 5949TIP3    H141826   5.364   4.447  10.044
 5949TIP3    H241827   5.347   4.562  10.139
 5950TIP3   OH241828   3.880   4.752  10.454
 5950TIP3    H141829   3.897   4.743  10.358
 5950TIP3    H241830   3.968   4.731  10.490
 5951TIP3   OH241831   5.389   4.148   9.395
 5951TIP3    H141832   5.448   4.103   9.459
 5951TIP3    H241833   5.303   4.107   9.410
 5952TIP3   OH241834   5.343   4.300   9.889
 5952TIP3    H141835   5.374   4.208   9.906
 5952TIP3    H241836   5.425   4.341   9.860
 5953TIP3   OH241837   5.410   4.355  10.437
 5953TIP3    H141838   5.506   4.378  10.437
 5953TIP3    H241839   5.391   4.369  10.531
 5954TIP3   OH241840   5.417   4.430  10.715
 5954TIP3    H141841   5.328   4.456  10.748
 5954TIP3    H241842   5.459   4.515  10.694
 5955TIP3   OH241843   5.413   4.029   9.899
 5955TIP3    H141844   5.435   3.987   9.984
 5955TIP3    H241845   5.353   3.965   9.855
 5956TIP3   OH241846   3.960   4.110  10.357
 5956TIP3    H141847   4.007   4.027  10.380
 5956TIP3    H241848   4.017   4.179  10.393
 5957TIP3   OH241849   3.790   4.408  10.460
 5957TIP3    H141850   3.845   4.383  10.383
 5957TIP3    H241851   3.836   4.490  10.483
 5958TIP3   OH241852   5.594   4.033   9.555
 5958TIP3    H141853   5.635   3.962   9.500
 5958TIP3    H241854   5.665   4.099   9.559
 5959TIP3   OH241855   3.826   4.039   9.867
 5959TIP3    H141856   3.732   4.053   9.850
 5959TIP3    H241857   3.867   4.086   9.793
 5960TIP3   OH241858   5.299   5.531  10.061
 5960TIP3    H141859   5.368   5.502   9.999
 5960TIP3    H241860   5.351   5.581  10.127
 5961TIP3   OH241861   3.824   3.908  10.699
 5961TIP3    H141862   3.753   3.881  10.761
 5961TIP3    H241863   3.774   3.969  10.640
 5962TIP3   OH241864   4.328   5.317  10.726
 5962TIP3    H141865   4.301   5.408  10.712
 5962TIP3    H241866   4.425   5.329  10.717
 5963TIP3   OH241867   4.994   5.606  -0.033
 5963TIP3    H141868   5.062   5.539  -0.053
 5963TIP3    H241869   5.031   5.632   0.053
 5964TIP3   OH241870   5.499   3.854  10.864
 5964TIP3    H141871   5.411   3.879  10.831
 5964TIP3    H241872   5.512   3.767  10.820
 5965TIP3   OH241873   4.074   5.648  10.739
 5965TIP3    H141874   3.999   5.696  10.702
 5965TIP3    H241875   4.046   5.623  10.829
 5966TIP3   OH241876   4.322   5.603  10.638
 5966TIP3    H141877   4.238   5.618  10.686
 5966TIP3    H241878   4.316   5.667  10.566
 5967TIP3   OH241879   4.798   5.596  10.560
 5967TIP3    H141880   4.747   5.651  10.498
 5967TIP3    H241881   4.806   5.657  10.637
 5968TIP3   OH241882   5.022   5.470  10.657
 5968TIP3    H141883   4.935   5.504  10.630
 5968TIP3    H241884   5.069   5.555  10.657
 5969TIP3   OH241885   5.290   5.635  10.686
 5969TIP3    H141886   5.276   5.729  10.663
 5969TIP3    H241887   5.304   5.595  10.598
 5970TIP3   OH241888   4.024   5.511  10.433
 5970TIP3    H141889   4.016   5.466  10.520
 5970TIP3    H241890   4.106   5.471  10.395
 5971TIP3   OH241891   4.231   5.381  10.298
 5971TIP3    H141892   4.215   5.288  10.322
 5971TIP3    H241893   4.317   5.397  10.344
 5972TIP3   OH241894   4.492   5.431  10.385
 5972TIP3    H141895   4.506   5.338  10.360
 5972TIP3    H241896   4.496   5.425  10.483
 5973TIP3   OH241897   4.836   3.995  10.300
 5973TIP3    H141898   4.769   3.931  10.328
 5973TIP3    H241899   4.891   3.941  10.242
 5974TIP3   OH241900   5.350   3.800  10.307
 5974TIP3    H141901   5.411   3.858  10.254
 5974TIP3    H241902   5.262   3.835  10.282
 5975TIP3   OH241903   5.516   3.926  10.133
 5975TIP3    H141904   5.585   3.868  10.092
 5975TIP3    H241905   5.568   4.009  10.144
 5976TIP3   OH241906   4.074   3.857  10.083
 5976TIP3    H141907   3.994   3.839  10.031
 5976TIP3    H241908   4.119   3.770  10.079
 5977TIP3   OH241909   3.949   3.833   9.656
 5977TIP3    H141910   4.000   3.897   9.603
 5977TIP3    H241911   3.894   3.890   9.711
 5978TIP3   OH241912   4.519   3.850  10.064
 5978TIP3    H141913   4.610   3.885  10.054
 5978TIP3    H241914   4.518   3.828  10.157
 5979TIP3   OH241915   5.093   3.851  10.225
 5979TIP3    H141916   5.086   3.863  10.130
 5979TIP3    H241917   5.054   3.762  10.238
 5980TIP3   OH241918   5.218   3.855   9.794
 5980TIP3    H141919   5.143   3.914   9.779
 5980TIP3    H241920   5.175   3.769   9.818
 5981TIP3   OH241921   3.941   5.427   9.761
 5981TIP3    H141922   3.876   5.426   9.688
 5981TIP3    H241923   3.941   5.523   9.777
 5982TIP3   OH241924   4.132   4.027   9.508
 5982TIP3    H141925   4.186   3.965   9.455
 5982TIP3    H241926   4.199   4.060   9.571
 5983TIP3   OH241927   4.635   4.051   9.748
 5983TIP3    H141928   4.661   3.994   9.822
 5983TIP3    H241929   4.644   4.138   9.793
 5984TIP3   OH241930   4.829   5.560   9.593
 5984TIP3    H141931   4.922   5.580   9.571
 5984TIP3    H241932   4.807   5.506   9.513
 5985TIP3   OH241933   5.497   5.508   9.866
 5985TIP3    H141934   5.479   5.430   9.809
 5985TIP3    H241935   5.491   5.582   9.801
 5986TIP3   OH241936   4.120   5.527   9.454
 5986TIP3    H141937   4.094   5.552   9.544
 5986TIP3    H241938   4.199   5.470   9.469
 5987TIP3   OH241939   6.873   4.775  10.061
 5987TIP3    H141940   6.863   4.869  10.089
 5987TIP3    H241941   6.788   4.744  10.027
 5988TIP3   OH241942   6.753   4.696  10.417
 5988TIP3    H141943   6.753   4.633  10.491
 5988TIP3    H241944   6.715   4.643  10.345
 5989TIP3   OH241945   5.989   4.664  10.574
 5989TIP3    H141946   5.997   4.596  10.643
 5989TIP3    H241947   6.063   4.721  10.597
 5990TIP3   OH241948   7.116   4.993  10.247
 5990TIP3    H141949   7.082   4.920  10.300
 5990TIP3    H241950   7.125   5.061  10.317
 5991TIP3   OH241951   6.081   5.110  10.423
 5991TIP3    H141952   6.051   5.022  10.393
 5991TIP3    H241953   6.176   5.092  10.432
 5992TIP3   OH241954   5.744   4.464   9.975
 5992TIP3    H141955   5.701   4.552   9.968
 5992TIP3    H241956   5.688   4.410   9.917
 5993TIP3   OH241957   5.817   4.688  10.191
 5993TIP3    H141958   5.844   4.605  10.234
 5993TIP3    H241959   5.884   4.699  10.123
 5994TIP3   OH241960   6.833   5.507  10.273
 5994TIP3    H141961   6.898   5.439  10.243
 5994TIP3    H241962   6.813   5.473  10.360
 5995TIP3   OH241963   6.589   4.937  10.473
 5995TIP3    H141964   6.622   4.875  10.406
 5995TIP3    H241965   6.672   4.954  10.520
 5996TIP3   OH241966   7.455   4.105  10.545
 5996TIP3    H141967   7.468   4.168  10.617
 5996TIP3    H241968   7.509   4.144  10.475
 5997TIP3   OH241969   6.904   4.383  10.502
 5997TIP3    H141970   6.924   4.289  10.502
 5997TIP3    H241971   6.896   4.398  10.405
 5998TIP3   OH241972   6.218   4.193  10.220
 5998TIP3    H141973   6.230   4.276  10.170
 5998TIP3    H241974   6.179   4.135  10.151
 5999TIP3   OH241975   6.992   4.200  10.057
 5999TIP3    H141976   7.057   4.168  10.125
 5999TIP3    H241977   7.049   4.259  10.006
 6000TIP3   OH241978   5.880   4.435  10.293
 6000TIP3    H141979   5.947   4.380  10.339
 6000TIP3    H241980   5.892   4.402  10.202
 6001TIP3   OH241981   6.396   4.589  10.228
 6001TIP3    H141982   6.464   4.531  10.265
 6001TIP3    H241983   6.346   4.525  10.174
 6002TIP3   OH241984   7.517   4.269  10.774
 6002TIP3    H141985   7.432   4.315  10.753
 6002TIP3    H241986   7.486   4.228  10.857
 6003TIP3   OH241987   6.111   4.081  10.620
 6003TIP3    H141988   6.082   4.142  10.549
 6003TIP3    H241989   6.045   4.103  10.690
 6004TIP3   OH241990   6.840   5.051   9.985
 6004TIP3    H141991   6.807   5.046   9.896
 6004TIP3    H241992   6.807   5.144  10.001
 6005TIP3   OH241993   6.360   4.847  10.651
 6005TIP3    H141994   6.290   4.913  10.670
 6005TIP3    H241995   6.431   4.906  10.619
 6006TIP3   OH241996   7.174   4.136  10.258
 6006TIP3    H141997   7.152   4.059  10.311
 6006TIP3    H241998   7.241   4.179  10.313
 6007TIP3   OH241999   6.064   4.271  10.424
 6007TIP3    H142000   6.128   4.337  10.458
 6007TIP3    H242001   6.118   4.228  10.353
 6008TIP3   OH242002   6.207   5.049  10.730
 6008TIP3    H142003   6.200   5.142  10.701
 6008TIP3    H242004   6.120   5.040  10.775
 6009TIP3   OH242005   5.814   5.007   9.808
 6009TIP3    H142006   5.789   5.043   9.721
 6009TIP3    H242007   5.822   5.089   9.861
 6010TIP3   OH242008   7.174   5.176  10.478
 6010TIP3    H142009   7.078   5.186  10.496
 6010TIP3    H242010   7.200   5.269  10.467
 6011TIP3   OH242011   7.202   4.009  10.629
 6011TIP3    H142012   7.130   4.070  10.612
 6011TIP3    H242013   7.275   4.044  10.574
 6012TIP3   OH242014   6.502   3.816  10.369
 6012TIP3    H142015   6.487   3.720  10.363
 6012TIP3    H242016   6.415   3.847  10.403
 6013TIP3   OH242017   7.000   5.354  10.142
 6013TIP3    H142018   7.043   5.283  10.093
 6013TIP3    H242019   7.044   5.434  10.106
 6014TIP3   OH242020   7.142   5.141   9.994
 6014TIP3    H142021   7.092   5.080   9.937
 6014TIP3    H242022   7.122   5.099  10.081
 6015TIP3   OH242023   7.288   5.003  10.843
 6015TIP3    H142024   7.299   4.945  10.766
 6015TIP3    H242025   7.308   5.091  10.806
 6016TIP3   OH242026   6.730   4.693   9.817
 6016TIP3    H142027   6.654   4.740   9.775
 6016TIP3    H242028   6.796   4.686   9.745
 6017TIP3   OH242029   6.743   4.554   9.521
 6017TIP3    H142030   6.813   4.548   9.587
 6017TIP3    H242031   6.770   4.480   9.465
 6018TIP3   OH242032   7.476   4.637  10.651
 6018TIP3    H142033   7.408   4.708  10.655
 6018TIP3    H242034   7.520   4.663  10.568
 6019TIP3   OH242035   7.079   4.719   9.914
 6019TIP3    H142036   7.008   4.733   9.981
 6019TIP3    H242037   7.130   4.649   9.961
 6020TIP3   OH242038   7.070   4.531  10.823
 6020TIP3    H142039   7.070   4.609  10.879
 6020TIP3    H242040   7.006   4.562  10.755
 6021TIP3   OH242041   6.240   4.782  10.105
 6021TIP3    H142042   6.207   4.743  10.020
 6021TIP3    H242043   6.301   4.713  10.139
 6022TIP3   OH242044   6.371   5.120  10.373
 6022TIP3    H142045   6.370   5.068  10.292
 6022TIP3    H242046   6.450   5.085  10.418
 6023TIP3   OH242047   6.272   4.658  10.472
 6023TIP3    H142048   6.326   4.667  10.391
 6023TIP3    H242049   6.312   4.722  10.534
 6024TIP3   OH242050   6.915   5.214  10.544
 6024TIP3    H142051   6.884   5.281  10.605
 6024TIP3    H242052   6.888   5.130  10.587
 6025TIP3   OH242053   6.380   5.121  10.931
 6025TIP3    H142054   6.332   5.174  10.997
 6025TIP3    H242055   6.305   5.088  10.876
 6026TIP3   OH242056   6.962   4.648   9.683
 6026TIP3    H142057   7.027   4.648   9.758
 6026TIP3    H242058   7.014   4.682   9.605
 6027TIP3   OH242059   6.061   4.717  10.862
 6027TIP3    H142060   6.066   4.782  10.932
 6027TIP3    H242061   5.969   4.723  10.834
 6028TIP3   OH242062   6.738   5.308  10.027
 6028TIP3    H142063   6.779   5.340  10.108
 6028TIP3    H242064   6.682   5.383  10.003
 6029TIP3   OH242065   7.340   3.809   9.672
 6029TIP3    H142066   7.245   3.819   9.694
 6029TIP3    H242067   7.359   3.893   9.627
 6030TIP3   OH242068   6.134   4.683   9.869
 6030TIP3    H142069   6.107   4.762   9.817
 6030TIP3    H242070   6.070   4.616   9.843
 6031TIP3   OH242071   7.450   5.244   9.513
 6031TIP3    H142072   7.468   5.339   9.519
 6031TIP3    H242073   7.543   5.213   9.504
 6032TIP3   OH242074   5.749   4.927  10.750
 6032TIP3    H142075   5.699   4.920  10.667
 6032TIP3    H242076   5.751   4.834  10.779
 6033TIP3   OH242077   5.722   5.201  10.434
 6033TIP3    H142078   5.817   5.188  10.432
 6033TIP3    H242079   5.714   5.281  10.488
 6034TIP3   OH242080   6.628   5.199  10.866
 6034TIP3    H142081   6.639   5.290  10.900
 6034TIP3    H242082   6.542   5.172  10.906
 6035TIP3   OH242083   6.686   5.599   9.868
 6035TIP3    H142084   6.674   5.593   9.771
 6035TIP3    H242085   6.685   5.695   9.885
 6036TIP3   OH242086   6.049   5.488  10.052
 6036TIP3    H142087   6.064   5.446  10.139
 6036TIP3    H242088   5.964   5.446  10.028
 6037TIP3   OH242089   6.990   5.521   9.566
 6037TIP3    H142090   7.037   5.446   9.524
 6037TIP3    H242091   6.993   5.496   9.661
 6038TIP3   OH242092   6.962   5.514   9.844
 6038TIP3    H142093   6.866   5.523   9.860
 6038TIP3    H242094   6.982   5.442   9.905
 6039TIP3   OH242095   5.973   5.056  10.849
 6039TIP3    H142096   5.994   5.021  10.935
 6039TIP3    H242097   5.884   5.020  10.828
 6040TIP3   OH242098   6.242   3.909  10.441
 6040TIP3    H142099   6.151   3.894  10.409
 6040TIP3    H242100   6.229   3.988  10.496
 6041TIP3   OH242101   6.705   3.880  10.784
 6041TIP3    H142102   6.744   3.833  10.859
 6041TIP3    H242103   6.608   3.863  10.798
 6042TIP3   OH242104   7.014   4.254  10.866
 6042TIP3    H142105   6.988   4.242  10.959
 6042TIP3    H242106   7.021   4.351  10.852
 6043TIP3   OH242107   7.112   4.740   9.466
 6043TIP3    H142108   7.107   4.721   9.369
 6043TIP3    H242109   7.198   4.784   9.466
 6044TIP3   OH242110   6.670   4.133   9.513
 6044TIP3    H142111   6.638   4.125   9.605
 6044TIP3    H242112   6.640   4.045   9.482
 6045TIP3   OH242113   6.250   4.404  10.571
 6045TIP3    H142114   6.177   4.404  10.637
 6045TIP3    H242115   6.245   4.495  10.533
 6046TIP3   OH242116   6.249   4.414  10.058
 6046TIP3    H142117   6.155   4.391  10.045
 6046TIP3    H242118   6.285   4.387   9.972
 6047TIP3   OH242119   6.804   4.469   9.938
 6047TIP3    H142120   6.760   4.546   9.896
 6047TIP3    H242121   6.868   4.443   9.869
 6048TIP3   OH242122   6.905   4.417  10.219
 6048TIP3    H142123   6.874   4.470  10.145
 6048TIP3    H242124   6.913   4.331  10.174
 6049TIP3   OH242125   6.010   4.431  10.742
 6049TIP3    H142126   6.021   4.468  10.832
 6049TIP3    H242127   5.974   4.343  10.761
 6050TIP3   OH242128   6.350   4.168   9.425
 6050TIP3    H142129   6.305   4.126   9.500
 6050TIP3    H242130   6.280   4.212   9.376
 6051TIP3   OH242131   5.680   4.138  10.139
 6051TIP3    H142132   5.749   4.135  10.209
 6051TIP3    H242133   5.725   4.102  10.060
 6052TIP3   OH242134   5.806   4.211   9.672
 6052TIP3    H142135   5.859   4.271   9.617
 6052TIP3    H242136   5.738   4.274   9.704
 6053TIP3   OH242137   6.827   4.572  10.682
 6053TIP3    H142138   6.862   4.505  10.618
 6053TIP3    H242139   6.774   4.517  10.742
 6054TIP3   OH242140   6.504   4.172  10.159
 6054TIP3    H142141   6.410   4.171  10.188
 6054TIP3    H242142   6.552   4.153  10.241
 6055TIP3   OH242143   5.984   4.325  10.045
 6055TIP3    H142144   5.896   4.342  10.006
 6055TIP3    H242145   6.013   4.241  10.005
 6056TIP3   OH242146   6.348   4.331   9.808
 6056TIP3    H142147   6.444   4.342   9.823
 6056TIP3    H242148   6.325   4.399   9.743
 6057TIP3   OH242149   6.946   4.094  10.486
 6057TIP3    H142150   6.875   4.101  10.553
 6057TIP3    H242151   6.896   4.069  10.406
 6058TIP3   OH242152   6.219   4.448   9.566
 6058TIP3    H142153   6.166   4.410   9.495
 6058TIP3    H242154   6.301   4.469   9.518
 6059TIP3   OH242155   6.632   4.447  10.347
 6059TIP3    H142156   6.692   4.394  10.294
 6059TIP3    H242157   6.617   4.391  10.424
 6060TIP3   OH242158   6.133   4.061   9.991
 6060TIP3    H142159   6.101   3.969   9.992
 6060TIP3    H242160   6.212   4.053   9.936
 6061TIP3   OH242161   6.495   4.279  10.588
 6061TIP3    H142162   6.413   4.331  10.595
 6061TIP3    H242163   6.551   4.315  10.659
 6062TIP3   OH242164   6.558   4.895   9.765
 6062TIP3    H142165   6.476   4.856   9.724
 6062TIP3    H242166   6.524   4.917   9.854
 6063TIP3   OH242167   7.277   4.816  10.640
 6063TIP3    H142168   7.329   4.870  10.578
 6063TIP3    H242169   7.189   4.824  10.596
 6064TIP3   OH242170   6.937   4.183   9.578
 6064TIP3    H142171   6.842   4.199   9.563
 6064TIP3    H242172   6.971   4.268   9.612
 6065TIP3   OH242173   6.704   4.929  10.874
 6065TIP3    H142174   6.671   4.886  10.955
 6065TIP3    H242175   6.674   5.021  10.885
 6066TIP3   OH242176   7.008   4.381   9.741
 6066TIP3    H142177   7.097   4.361   9.779
 6066TIP3    H242178   7.025   4.456   9.683
 6067TIP3   OH242179   6.066   4.842  10.339
 6067TIP3    H142180   6.132   4.833  10.268
 6067TIP3    H242181   6.071   4.756  10.384
 6068TIP3   OH242182   6.767   5.041   9.681
 6068TIP3    H142183   6.731   5.133   9.692
 6068TIP3    H242184   6.684   4.989   9.679
 6069TIP3   OH242185   5.762   4.684  10.864
 6069TIP3    H142186   5.782   4.640  10.948
 6069TIP3    H242187   5.703   4.621  10.819
 6070TIP3   OH242188   6.930   5.172  10.879
 6070TIP3    H142189   6.839   5.188  10.852
 6070TIP3    H242190   6.935   5.197  10.972
 6071TIP3   OH242191   7.499   4.387   9.718
 6071TIP3    H142192   7.444   4.360   9.642
 6071TIP3    H242193   7.509   4.482   9.693
 6072TIP3   OH242194   7.332   5.263   9.757
 6072TIP3    H142195   7.276   5.187   9.768
 6072TIP3    H242196   7.359   5.255   9.662
 6073TIP3   OH242197   7.052   4.753  10.467
 6073TIP3    H142198   6.958   4.733  10.455
 6073TIP3    H242199   7.094   4.678  10.421
 6074TIP3   OH242200   6.303   5.187  10.077
 6074TIP3    H142201   6.353   5.268  10.057
 6074TIP3    H242202   6.215   5.210  10.044
 6075TIP3   OH242203   5.880   4.670   9.534
 6075TIP3    H142204   5.937   4.737   9.576
 6075TIP3    H242205   5.791   4.701   9.559
 6076TIP3   OH242206   6.445   4.954  10.026
 6076TIP3    H142207   6.410   5.045  10.038
 6076TIP3    H242208   6.374   4.903  10.073
 6077TIP3   OH242209   6.488   5.374  10.672
 6077TIP3    H142210   6.537   5.453  10.643
 6077TIP3    H242211   6.550   5.333  10.733
 6078TIP3   OH242212   6.312   5.452   9.981
 6078TIP3    H142213   6.215   5.466   9.995
 6078TIP3    H242214   6.349   5.535  10.015
 6079TIP3   OH242215   6.842   4.970  10.627
 6079TIP3    H142216   6.809   4.953  10.718
 6079TIP3    H242217   6.906   4.899  10.615
 6080TIP3   OH242218   7.078   5.082   9.543
 6080TIP3    H142219   7.106   5.029   9.620
 6080TIP3    H242220   6.982   5.061   9.544
 6081TIP3   OH242221   7.100   5.455  10.859
 6081TIP3    H142222   7.053   5.387  10.809
 6081TIP3    H242223   7.140   5.511  10.789
 6082TIP3   OH242224   7.522   5.514   9.568
 6082TIP3    H142225   7.590   5.580   9.545
 6082TIP3    H242226   7.451   5.576   9.594
 6083TIP3   OH242227   5.931   4.159  10.818
 6083TIP3    H142228   5.839   4.190  10.814
 6083TIP3    H242229   5.924   4.073  10.863
 6084TIP3   OH242230   7.152   4.946   9.774
 6084TIP3    H142231   7.134   4.860   9.817
 6084TIP3    H242232   7.249   4.943   9.776
 6085TIP3   OH242233   5.893   5.333  10.661
 6085TIP3    H142234   5.922   5.240  10.663
 6085TIP3    H242235   5.920   5.362  10.750
 6086TIP3   OH242236   6.490   5.186   9.391
 6086TIP3    H142237   6.497   5.111   9.331
 6086TIP3    H242238   6.443   5.143   9.466
 6087TIP3   OH242239   6.368   5.138   9.637
 6087TIP3    H142240   6.390   5.088   9.715
 6087TIP3    H242241   6.375   5.231   9.669
 6088TIP3   OH242242   6.020   4.863   9.685
 6088TIP3    H142243   5.948   4.903   9.737
 6088TIP3    H242244   6.070   4.941   9.654
 6089TIP3   OH242245   6.800   4.131  10.711
 6089TIP3    H142246   6.872   4.136  10.775
 6089TIP3    H242247   6.762   4.043  10.730
 6090TIP3   OH242248   6.876   4.088   9.826
 6090TIP3    H142249   6.900   4.134   9.742
 6090TIP3    H242250   6.935   4.132   9.889
 6091TIP3   OH242251   6.647   5.303   9.704
 6091TIP3    H142252   6.565   5.357   9.713
 6091TIP3    H242253   6.699   5.362   9.647
 6092TIP3   OH242254   6.600   4.263   9.907
 6092TIP3    H142255   6.678   4.322   9.913
 6092TIP3    H242256   6.572   4.250  10.000
 6093TIP3   OH242257   6.669   4.376  10.819
 6093TIP3    H142258   6.661   4.421  10.903
 6093TIP3    H242259   6.713   4.291  10.837
 6094TIP3   OH242260   6.684   3.969   9.994
 6094TIP3    H142261   6.652   4.035  10.057
 6094TIP3    H242262   6.755   4.024   9.950
 6095TIP3   OH242263   6.389   5.407   9.709
 6095TIP3    H142264   6.395   5.489   9.653
 6095TIP3    H242265   6.359   5.445   9.795
 6096TIP3   OH242266   6.251   4.080   9.666
 6096TIP3    H142267   6.246   4.170   9.705
 6096TIP3    H242268   6.341   4.056   9.692
 6097TIP3   OH242269   7.280   4.186  10.855
 6097TIP3    H142270   7.183   4.189  10.868
 6097TIP3    H242271   7.291   4.135  10.774
 6098TIP3   OH242272   7.135   4.532  10.311
 6098TIP3    H142273   7.053   4.487  10.284
 6098TIP3    H242274   7.184   4.464  10.362
 6099TIP3   OH242275   6.073   5.124   9.570
 6099TIP3    H142276   6.141   5.186   9.602
 6099TIP3    H242277   6.125   5.078   9.501
 6100TIP3   OH242278   5.908   4.392   9.484
 6100TIP3    H142279   5.910   4.488   9.506
 6100TIP3    H242280   5.819   4.376   9.454
 6101TIP3   OH242281   7.241   5.458  10.477
 6101TIP3    H142282   7.232   5.528  10.409
 6101TIP3    H242283   7.337   5.465  10.494
 6102TIP3   OH242284   5.989   3.870  10.360
 6102TIP3    H142285   5.971   3.872  10.263
 6102TIP3    H242286   5.949   3.784  10.384
 6103TIP3   OH242287   5.887   5.262   9.974
 6103TIP3    H142288   5.801   5.306   9.968
 6103TIP3    H242289   5.933   5.308   9.902
 6104TIP3   OH242290   6.688   5.372   9.403
 6104TIP3    H142291   6.619   5.305   9.424
 6104TIP3    H242292   6.760   5.312   9.376
 6105TIP3   OH242293   7.144   5.345   9.421
 6105TIP3    H142294   7.172   5.267   9.470
 6105TIP3    H242295   7.220   5.367   9.366
 6106TIP3   OH242296   6.234   4.940   9.404
 6106TIP3    H142297   6.247   4.863   9.462
 6106TIP3    H242298   6.308   4.928   9.342
 6107TIP3   OH242299   6.779   5.050   9.383
 6107TIP3    H142300   6.744   5.060   9.472
 6107TIP3    H242301   6.757   4.956   9.364
 6108TIP3   OH242302   7.036   4.890  10.865
 6108TIP3    H142303   7.115   4.948  10.870
 6108TIP3    H242304   6.968   4.955  10.885
 6109TIP3   OH242305   6.356   4.741   9.649
 6109TIP3    H142306   6.300   4.688   9.707
 6109TIP3    H242307   6.381   4.675   9.581
 6110TIP3   OH242308   6.280   4.536  10.864
 6110TIP3    H142309   6.215   4.602  10.893
 6110TIP3    H242310   6.318   4.572  10.783
 6111TIP3   OH242311   6.459   4.563   9.465
 6111TIP3    H142312   6.444   4.556   9.369
 6111TIP3    H242313   6.557   4.567   9.471
 6112TIP3   OH242314   7.391   4.795   9.407
 6112TIP3    H142315   7.374   4.758   9.319
 6112TIP3    H242316   7.401   4.891   9.389
 6113TIP3   OH242317   6.287   4.301  10.951
 6113TIP3    H142318   6.340   4.230  10.911
 6113TIP3    H242319   6.318   4.379  10.899
 6114TIP3   OH242320   6.359   4.096  10.737
 6114TIP3    H142321   6.410   4.144  10.668
 6114TIP3    H242322   6.270   4.088  10.695
 6115TIP3   OH242323   6.515   4.640  10.756
 6115TIP3    H142324   6.592   4.630  10.700
 6115TIP3    H242325   6.478   4.726  10.730
 6116TIP3   OH242326   6.441   3.841  10.777
 6116TIP3    H142327   6.422   3.937  10.775
 6116TIP3    H242328   6.364   3.806  10.728
 6117TIP3   OH242329   6.443   5.634   9.575
 6117TIP3    H142330   6.539   5.641   9.581
 6117TIP3    H242331   6.429   5.693   9.499
 6118TIP3   OH242332   5.797   5.090   9.521
 6118TIP3    H142333   5.894   5.100   9.539
 6118TIP3    H242334   5.802   5.027   9.446
 6119TIP3   OH242335   5.677   5.629  10.017
 6119TIP3    H142336   5.604   5.580   9.972
 6119TIP3    H242337   5.705   5.564  10.084
 6120TIP3   OH242338   5.759   5.443  10.206
 6120TIP3    H142339   5.723   5.356  10.226
 6120TIP3    H242340   5.782   5.476  10.294
 6121TIP3   OH242341   7.507   5.522  10.501
 6121TIP3    H142342   7.518   5.536  10.596
 6121TIP3    H242343   7.580   5.576  10.468
 6122TIP3   OH242344   7.473   5.482  10.789
 6122TIP3    H142345   7.423   5.406  10.753
 6122TIP3    H242346   7.522   5.440  10.861
 6123TIP3   OH242347   7.443   4.896   9.810
 6123TIP3    H142348   7.536   4.923   9.818
 6123TIP3    H242349   7.444   4.816   9.867
 6124TIP3   OH242350   7.478   4.699   9.991
 6124TIP3    H142351   7.406   4.644  10.028
 6124TIP3    H242352   7.541   4.704  10.067
 6125TIP3   OH242353   7.456   4.964  10.486
 6125TIP3    H142354   7.539   4.924  10.455
 6125TIP3    H242355   7.472   5.059  10.472
 6126TIP3   OH242356   7.310   5.256  10.718
 6126TIP3    H142357   7.243   5.288  10.779
 6126TIP3    H242358   7.259   5.214  10.646
 6127TIP3   OH242359   7.513   4.677   9.629
 6127TIP3    H142360   7.455   4.710   9.558
 6127TIP3    H242361   7.503   4.747   9.695
 6128TIP3   OH242362   7.350   4.401   9.483
 6128TIP3    H142363   7.357   4.466   9.412
 6128TIP3    H242364   7.331   4.318   9.433
 6129TIP3   OH242365   7.260   4.545  10.048
 6129TIP3    H142366   7.249   4.448  10.044
 6129TIP3    H242367   7.234   4.562  10.141
 6130TIP3   OH242368   5.766   4.752  10.455
 6130TIP3    H142369   5.782   4.743  10.358
 6130TIP3    H242370   5.854   4.732  10.491
 6131TIP3   OH242371   7.275   4.148   9.395
 6131TIP3    H142372   7.333   4.103   9.459
 6131TIP3    H242373   7.188   4.107   9.409
 6132TIP3   OH242374   7.228   4.301   9.889
 6132TIP3    H142375   7.260   4.209   9.906
 6132TIP3    H242376   7.310   4.342   9.859
 6133TIP3   OH242377   7.294   4.354  10.436
 6133TIP3    H142378   7.389   4.378  10.434
 6133TIP3    H242379   7.275   4.369  10.530
 6134TIP3   OH242380   7.306   4.431  10.717
 6134TIP3    H142381   7.214   4.455  10.746
 6134TIP3    H242382   7.344   4.517  10.692
 6135TIP3   OH242383   7.296   4.031   9.899
 6135TIP3    H142384   7.320   3.987   9.984
 6135TIP3    H242385   7.239   3.965   9.855
 6136TIP3   OH242386   5.845   4.110  10.357
 6136TIP3    H142387   5.892   4.027  10.380
 6136TIP3    H242388   5.903   4.179  10.393
 6137TIP3   OH242389   5.674   4.409  10.457
 6137TIP3    H142390   5.732   4.384  10.382
 6137TIP3    H242391   5.721   4.489  10.485
 6138TIP3   OH242392   7.479   4.033   9.554
 6138TIP3    H142393   7.521   3.962   9.500
 6138TIP3    H242394   7.549   4.100   9.560
 6139TIP3   OH242395   5.712   4.039   9.867
 6139TIP3    H142396   5.617   4.053   9.850
 6139TIP3    H242397   5.753   4.086   9.793
 6140TIP3   OH242398   7.186   5.529  10.063
 6140TIP3    H142399   7.254   5.506   9.997
 6140TIP3    H242400   7.235   5.584  10.127
 6141TIP3   OH242401   5.707   3.905  10.695
 6141TIP3    H142402   5.639   3.883  10.762
 6141TIP3    H242403   5.660   3.970  10.641
 6142TIP3   OH242404   6.217   5.321  10.736
 6142TIP3    H142405   6.185   5.407  10.708
 6142TIP3    H242406   6.312   5.329  10.711
 6143TIP3   OH242407   6.877   5.602  -0.032
 6143TIP3    H142408   6.948   5.540  -0.054
 6143TIP3    H242409   6.918   5.632   0.052
 6144TIP3   OH242410   7.386   3.854  10.862
 6144TIP3    H142411   7.296   3.878  10.834
 6144TIP3    H242412   7.397   3.767  10.820
 6145TIP3   OH242413   5.960   5.648  10.741
 6145TIP3    H142414   5.886   5.696  10.702
 6145TIP3    H242415   5.928   5.623  10.829
 6146TIP3   OH242416   6.208   5.603  10.639
 6146TIP3    H142417   6.123   5.619  10.686
 6146TIP3    H242418   6.202   5.665  10.565
 6147TIP3   OH242419   6.679   5.594  10.566
 6147TIP3    H142420   6.634   5.649  10.499
 6147TIP3    H242421   6.692   5.658  10.638
 6148TIP3   OH242422   6.909   5.470  10.656
 6148TIP3    H142423   6.822   5.504  10.628
 6148TIP3    H242424   6.955   5.555  10.657
 6149TIP3   OH242425   7.175   5.635  10.686
 6149TIP3    H142426   7.162   5.729  10.663
 6149TIP3    H242427   7.190   5.595  10.598
 6150TIP3   OH242428   5.910   5.511  10.433
 6150TIP3    H142429   5.902   5.466  10.519
 6150TIP3    H242430   5.991   5.471  10.395
 6151TIP3   OH242431   6.117   5.381  10.298
 6151TIP3    H142432   6.100   5.288  10.322
 6151TIP3    H242433   6.202   5.397  10.344
 6152TIP3   OH242434   6.378   5.431  10.384
 6152TIP3    H142435   6.391   5.337  10.360
 6152TIP3    H242436   6.382   5.426  10.481
 6153TIP3   OH242437   6.722   3.995  10.300
 6153TIP3    H142438   6.654   3.931  10.328
 6153TIP3    H242439   6.777   3.941  10.242
 6154TIP3   OH242440   7.236   3.800  10.307
 6154TIP3    H142441   7.297   3.858  10.254
 6154TIP3    H242442   7.147   3.835  10.282
 6155TIP3   OH242443   7.402   3.925  10.133
 6155TIP3    H142444   7.471   3.867  10.092
 6155TIP3    H242445   7.454   4.008  10.144
 6156TIP3   OH242446   5.960   3.857  10.084
 6156TIP3    H142447   5.880   3.839  10.032
 6156TIP3    H242448   6.005   3.770  10.079
 6157TIP3   OH242449   5.836   3.832   9.656
 6157TIP3    H142450   5.886   3.898   9.603
 6157TIP3    H242451   5.780   3.890   9.710
 6158TIP3   OH242452   6.405   3.850  10.064
 6158TIP3    H142453   6.495   3.885  10.054
 6158TIP3    H242454   6.403   3.829  10.157
 6159TIP3   OH242455   6.979   3.851  10.225
 6159TIP3    H142456   6.972   3.863  10.130
 6159TIP3    H242457   6.940   3.762  10.238
 6160TIP3   OH242458   7.104   3.855   9.794
 6160TIP3    H142459   7.029   3.913   9.779
 6160TIP3    H242460   7.061   3.769   9.818
 6161TIP3   OH242461   5.827   5.427   9.761
 6161TIP3    H142462   5.761   5.426   9.689
 6161TIP3    H242463   5.827   5.523   9.777
 6162TIP3   OH242464   6.018   4.027   9.508
 6162TIP3    H142465   6.071   3.965   9.455
 6162TIP3    H242466   6.085   4.060   9.571
 6163TIP3   OH242467   6.521   4.051   9.748
 6163TIP3    H142468   6.546   3.994   9.822
 6163TIP3    H242469   6.529   4.138   9.793
 6164TIP3   OH242470   6.715   5.560   9.593
 6164TIP3    H142471   6.807   5.580   9.571
 6164TIP3    H242472   6.693   5.506   9.513
 6165TIP3   OH242473   7.383   5.503   9.866
 6165TIP3    H142474   7.363   5.433   9.801
 6165TIP3    H242475   7.378   5.582   9.805
 6166TIP3   OH242476   6.006   5.527   9.454
 6166TIP3    H142477   5.980   5.552   9.544
 6166TIP3    H242478   6.084   5.470   9.469
 6167TIP3   OH242479   7.870   4.671  10.578
 6167TIP3    H142480   7.889   4.596  10.638
 6167TIP3    H242481   7.951   4.722  10.592
 6168TIP3   OH242482   7.947   5.096  10.439
 6168TIP3    H142483   7.931   5.012  10.392
 6168TIP3    H242484   8.045   5.099  10.434
 6169TIP3   OH242485   7.627   4.464   9.974
 6169TIP3    H142486   7.586   4.553   9.967
 6169TIP3    H242487   7.570   4.411   9.917
 6170TIP3   OH242488   7.702   4.688  10.189
 6170TIP3    H142489   7.729   4.606  10.234
 6170TIP3    H242490   7.772   4.699  10.123
 6171TIP3   OH242491   7.762   4.430  10.296
 6171TIP3    H142492   7.834   4.380  10.338
 6171TIP3    H242493   7.780   4.404  10.204
 6172TIP3   OH242494   7.978   4.082  10.621
 6172TIP3    H142495   7.964   4.142  10.544
 6172TIP3    H242496   7.915   4.110  10.687
 6173TIP3   OH242497   7.940   4.256  10.420
 6173TIP3    H142498   7.996   4.328  10.458
 6173TIP3    H242499   7.997   4.225  10.347
 6174TIP3   OH242500   8.073   5.080  10.729
 6174TIP3    H142501   8.067   5.168  10.693
 6174TIP3    H242502   7.986   5.065  10.771
 6175TIP3   OH242503   7.696   5.010   9.812
 6175TIP3    H142504   7.680   5.043   9.721
 6175TIP3    H242505   7.710   5.093   9.861
 6176TIP3   OH242506   7.930   4.708  10.870
 6176TIP3    H142507   7.943   4.780  10.932
 6176TIP3    H242508   7.844   4.730  10.830
 6177TIP3   OH242509   8.019   4.687   9.863
 6177TIP3    H142510   7.990   4.768   9.817
 6177TIP3    H242511   7.951   4.622   9.843
 6178TIP3   OH242512   7.631   4.925  10.753
 6178TIP3    H142513   7.585   4.920  10.667
 6178TIP3    H242514   7.637   4.831  10.778
 6179TIP3   OH242515   7.608   5.206  10.430
 6179TIP3    H142516   7.703   5.189  10.434
 6179TIP3    H242517   7.601   5.282  10.488
 6180TIP3   OH242518   7.925   5.477  10.053
 6180TIP3    H142519   7.940   5.440  10.142
 6180TIP3    H242520   7.838   5.440  10.032
 6181TIP3   OH242521   7.852   5.060  10.860
 6181TIP3    H142522   7.876   5.018  10.943
 6181TIP3    H242523   7.768   5.017  10.831
 6182TIP3   OH242524   7.912   4.444  10.732
 6182TIP3    H142525   7.929   4.481  10.820
 6182TIP3    H242526   7.895   4.348  10.735
 6183TIP3   OH242527   7.563   4.138  10.139
 6183TIP3    H142528   7.631   4.135  10.210
 6183TIP3    H242529   7.611   4.104  10.061
 6184TIP3   OH242530   7.688   4.211   9.674
 6184TIP3    H142531   7.741   4.271   9.619
 6184TIP3    H242532   7.619   4.275   9.703
 6185TIP3   OH242533   7.866   4.330  10.044
 6185TIP3    H142534   7.778   4.338  10.004
 6185TIP3    H242535   7.899   4.244  10.014
 6186TIP3   OH242536   7.969   4.056   9.972
 6186TIP3    H142537   7.964   3.962   9.999
 6186TIP3    H242538   8.065   4.063   9.964
 6187TIP3   OH242539   7.946   4.841  10.331
 6187TIP3    H142540   8.023   4.836  10.272
 6187TIP3    H242541   7.956   4.760  10.384
 6188TIP3   OH242542   7.659   4.670  10.859
 6188TIP3    H142543   7.662   4.645  10.953
 6188TIP3    H242544   7.581   4.626  10.821
 6189TIP3   OH242545   7.771   4.669   9.536
 6189TIP3    H142546   7.823   4.739   9.578
 6189TIP3    H242547   7.679   4.697   9.557
 6190TIP3   OH242548   7.805   4.165  10.833
 6190TIP3    H142549   7.714   4.174  10.803
 6190TIP3    H242550   7.807   4.071  10.859
 6191TIP3   OH242551   7.785   5.334  10.658
 6191TIP3    H142552   7.798   5.239  10.665
 6191TIP3    H242553   7.802   5.365  10.748
 6192TIP3   OH242554   7.908   4.865   9.679
 6192TIP3    H142555   7.836   4.898   9.736
 6192TIP3    H242556   7.956   4.947   9.661
 6193TIP3   OH242557   7.957   5.128   9.562
 6193TIP3    H142558   8.021   5.187   9.605
 6193TIP3    H242559   8.017   5.079   9.505
 6194TIP3   OH242560   7.796   4.389   9.491
 6194TIP3    H142561   7.798   4.486   9.500
 6194TIP3    H242562   7.709   4.373   9.453
 6195TIP3   OH242563   7.873   3.872  10.361
 6195TIP3    H142564   7.862   3.874  10.264
 6195TIP3    H242565   7.836   3.785  10.385
 6196TIP3   OH242566   7.759   5.259   9.970
 6196TIP3    H142567   7.684   5.318   9.968
 6196TIP3    H242568   7.819   5.305   9.908
 6197TIP3   OH242569   7.686   5.091   9.523
 6197TIP3    H142570   7.783   5.102   9.537
 6197TIP3    H242571   7.689   5.028   9.447
 6198TIP3   OH242572   7.561   5.628  10.016
 6198TIP3    H142573   7.488   5.580   9.972
 6198TIP3    H242574   7.592   5.567  10.085
 6199TIP3   OH242575   7.641   5.441  10.205
 6199TIP3    H142576   7.610   5.353  10.232
 6199TIP3    H242577   7.672   5.476  10.291
 6200TIP3   OH242578   7.652   4.753  10.453
 6200TIP3    H142579   7.672   4.740  10.358
 6200TIP3    H242580   7.740   4.734  10.491
 6201TIP3   OH242581   7.727   4.110  10.360
 6201TIP3    H142582   7.780   4.028  10.376
 6201TIP3    H242583   7.791   4.178  10.387
 6202TIP3   OH242584   7.560   4.405  10.461
 6202TIP3    H142585   7.615   4.384  10.382
 6202TIP3    H242586   7.602   4.489  10.483
 6203TIP3   OH242587   7.596   4.035   9.865
 6203TIP3    H142588   7.502   4.052   9.850
 6203TIP3    H242589   7.637   4.087   9.793
 6204TIP3   OH242590   7.593   3.908  10.699
 6204TIP3    H142591   7.522   3.881  10.762
 6204TIP3    H242592   7.543   3.966  10.638
 6205TIP3   OH242593   7.847   5.649  10.746
 6205TIP3    H142594   7.772   5.693  10.702
 6205TIP3    H242595   7.810   5.624  10.831
 6206TIP3   OH242596   8.074   5.572  10.616
 6206TIP3    H142597   8.008   5.603  10.683
 6206TIP3    H242598   8.090   5.654  10.568
 6207TIP3   OH242599   7.785   5.510  10.436
 6207TIP3    H142600   7.789   5.466  10.523
 6207TIP3    H242601   7.868   5.476  10.396
 6208TIP3   OH242602   7.983   5.382  10.316
 6208TIP3    H142603   7.977   5.285  10.327
 6208TIP3    H242604   8.073   5.393  10.350
 6209TIP3   OH242605   7.837   3.851  10.088
 6209TIP3    H142606   7.759   3.833  10.032
 6209TIP3    H242607   7.891   3.770  10.083
 6210TIP3   OH242608   7.720   3.833   9.653
 6210TIP3    H142609   7.770   3.901   9.604
 6210TIP3    H242610   7.665   3.888   9.711
 6211TIP3   OH242611   7.710   5.428   9.761
 6211TIP3    H142612   7.646   5.429   9.687
 6211TIP3    H242613   7.718   5.525   9.773
 6212TIP3   OH242614   7.902   4.021   9.516
 6212TIP3    H142615   7.958   3.970   9.455
 6212TIP3    H242616   7.967   4.066   9.572
 6213TIP3   OH242617   7.896   5.532   9.455
 6213TIP3    H142618   7.867   5.557   9.544
 6213TIP3    H242619   7.968   5.471   9.473
 6214TIP3   OH242620   1.212   6.658  10.070
 6214TIP3    H142621   1.208   6.756  10.067
 6214TIP3    H242622   1.140   6.633  10.009
 6215TIP3   OH242623   1.094   6.581  10.420
 6215TIP3    H142624   1.097   6.518  10.493
 6215TIP3    H242625   1.061   6.531  10.344
 6216TIP3   OH242626   0.348   6.543  10.565
 6216TIP3    H142627   0.339   6.485  10.643
 6216TIP3    H242628   0.409   6.610  10.599
 6217TIP3   OH242629   1.465   6.879  10.248
 6217TIP3    H142630   1.423   6.808  10.297
 6217TIP3    H242631   1.468   6.949  10.316
 6218TIP3   OH242632   0.422   6.995  10.421
 6218TIP3    H142633   0.393   6.905  10.395
 6218TIP3    H242634   0.517   6.978  10.429
 6219TIP3   OH242635   0.092   6.352   9.965
 6219TIP3    H142636   0.049   6.440   9.970
 6219TIP3    H242637   0.026   6.298   9.923
 6220TIP3   OH242638   0.159   6.570  10.188
 6220TIP3    H142639   0.186   6.488  10.234
 6220TIP3    H242640   0.228   6.581  10.122
 6221TIP3   OH242641   1.175   7.391  10.274
 6221TIP3    H142642   1.241   7.325  10.241
 6221TIP3    H242643   1.160   7.359  10.363
 6222TIP3   OH242644   0.932   6.822  10.472
 6222TIP3    H142645   0.966   6.762  10.403
 6222TIP3    H242646   1.016   6.839  10.520
 6223TIP3   OH242647   1.793   5.989  10.541
 6223TIP3    H142648   1.812   6.048  10.616
 6223TIP3    H242649   1.851   6.029  10.475
 6224TIP3   OH242650   1.241   6.268  10.500
 6224TIP3    H142651   1.269   6.174  10.501
 6224TIP3    H242652   1.242   6.283  10.403
 6225TIP3   OH242653   0.562   6.077  10.217
 6225TIP3    H142654   0.557   6.158  10.161
 6225TIP3    H242655   0.520   6.016  10.151
 6226TIP3   OH242656   1.335   6.085  10.060
 6226TIP3    H142657   1.402   6.055  10.125
 6226TIP3    H242658   1.389   6.144  10.004
 6227TIP3   OH242659   0.237   6.322  10.292
 6227TIP3    H142660   0.294   6.259  10.338
 6227TIP3    H242661   0.233   6.286  10.202
 6228TIP3   OH242662   0.736   6.472  10.230
 6228TIP3    H142663   0.813   6.421  10.261
 6228TIP3    H242664   0.689   6.413  10.168
 6229TIP3   OH242665   1.857   6.149  10.769
 6229TIP3    H142666   1.774   6.202  10.751
 6229TIP3    H242667   1.833   6.112  10.854
 6230TIP3   OH242668   0.456   5.969  10.620
 6230TIP3    H142669   0.422   6.028  10.550
 6230TIP3    H242670   0.390   5.985  10.691
 6231TIP3   OH242671   1.177   6.915   9.982
 6231TIP3    H142672   1.158   6.890   9.888
 6231TIP3    H242673   1.149   7.009   9.983
 6232TIP3   OH242674   0.707   6.734  10.653
 6232TIP3    H142675   0.634   6.798  10.668
 6232TIP3    H242676   0.776   6.792  10.617
 6233TIP3   OH242677   1.518   6.021  10.258
 6233TIP3    H142678   1.496   5.944  10.311
 6233TIP3    H242679   1.585   6.064  10.313
 6234TIP3   OH242680   0.412   6.152  10.425
 6234TIP3    H142681   0.469   6.224  10.460
 6234TIP3    H242682   0.462   6.112  10.351
 6235TIP3   OH242683   0.550   6.935  10.733
 6235TIP3    H142684   0.540   7.026  10.697
 6235TIP3    H242685   0.460   6.923  10.773
 6236TIP3   OH242686   0.155   6.895   9.806
 6236TIP3    H142687   0.130   6.929   9.720
 6236TIP3    H242688   0.165   6.975   9.860
 6237TIP3   OH242689   1.518   7.063  10.486
 6237TIP3    H142690   1.421   7.072  10.496
 6237TIP3    H242691   1.543   7.155  10.465
 6238TIP3   OH242692   1.548   5.894  10.628
 6238TIP3    H142693   1.474   5.954  10.612
 6238TIP3    H242694   1.619   5.930  10.573
 6239TIP3   OH242695   0.844   5.704  10.368
 6239TIP3    H142696   0.832   5.607  10.363
 6239TIP3    H242697   0.757   5.731  10.404
 6240TIP3   OH242698   1.345   7.239  10.145
 6240TIP3    H142699   1.386   7.168  10.092
 6240TIP3    H242700   1.390   7.319  10.107
 6241TIP3   OH242701   1.466   7.030   9.994
 6241TIP3    H142702   1.433   6.961   9.935
 6241TIP3    H242703   1.469   6.983  10.080
 6242TIP3   OH242704   1.629   6.889  10.843
 6242TIP3    H142705   1.642   6.830  10.766
 6242TIP3    H242706   1.651   6.977  10.806
 6243TIP3   OH242707   1.078   6.581   9.824
 6243TIP3    H142708   1.009   6.638   9.785
 6243TIP3    H242709   1.146   6.589   9.756
 6244TIP3   OH242710   1.100   6.470   9.485
 6244TIP3    H142711   1.130   6.450   9.576
 6244TIP3    H242712   1.103   6.375   9.465
 6245TIP3   OH242713   1.818   6.522  10.651
 6245TIP3    H142714   1.751   6.594  10.654
 6245TIP3    H242715   1.864   6.546  10.568
 6246TIP3   OH242716   1.427   6.603   9.914
 6246TIP3    H142717   1.348   6.624   9.969
 6246TIP3    H242718   1.470   6.534   9.968
 6247TIP3   OH242719   1.413   6.416  10.825
 6247TIP3    H142720   1.412   6.496  10.879
 6247TIP3    H242721   1.350   6.446  10.756
 6248TIP3   OH242722   0.583   6.667  10.108
 6248TIP3    H142723   0.549   6.630  10.023
 6248TIP3    H242724   0.646   6.599  10.138
 6249TIP3   OH242725   0.713   7.004  10.374
 6249TIP3    H142726   0.714   6.955  10.291
 6249TIP3    H242727   0.793   6.970  10.418
 6250TIP3   OH242728   0.621   6.539  10.473
 6250TIP3    H142729   0.670   6.557  10.391
 6250TIP3    H242730   0.652   6.609  10.535
 6251TIP3   OH242731   1.258   7.100  10.544
 6251TIP3    H142732   1.227   7.166  10.605
 6251TIP3    H242733   1.230   7.015  10.585
 6252TIP3   OH242734   0.728   6.994  10.921
 6252TIP3    H142735   0.684   7.061  10.966
 6252TIP3    H242736   0.655   6.962  10.862
 6253TIP3   OH242737   1.313   6.524   9.679
 6253TIP3    H142738   1.364   6.542   9.762
 6253TIP3    H242739   1.352   6.578   9.609
 6254TIP3   OH242740   0.404   6.598  10.865
 6254TIP3    H142741   0.407   6.666  10.932
 6254TIP3    H242742   0.312   6.608  10.832
 6255TIP3   OH242743   1.080   7.193  10.032
 6255TIP3    H142744   1.125   7.229  10.110
 6255TIP3    H242745   1.026   7.266   9.999
 6256TIP3   OH242746   1.682   5.696   9.672
 6256TIP3    H142747   1.587   5.707   9.695
 6256TIP3    H242748   1.701   5.780   9.628
 6257TIP3   OH242749   0.484   6.569   9.866
 6257TIP3    H142750   0.451   6.648   9.817
 6257TIP3    H242751   0.417   6.504   9.845
 6258TIP3   OH242752   1.794   7.130   9.506
 6258TIP3    H142753   1.811   7.224   9.523
 6258TIP3    H242754   1.886   7.098   9.507
 6259TIP3   OH242755   0.142   6.766  10.730
 6259TIP3    H142756   0.065   6.804  10.683
 6259TIP3    H242757   0.095   6.698  10.783
 6260TIP3   OH242758   0.089   7.110  10.418
 6260TIP3    H142759   0.179   7.078  10.439
 6260TIP3    H242760   0.070   7.166  10.494
 6261TIP3   OH242761   0.973   7.086  10.865
 6261TIP3    H142762   0.984   7.176  10.899
 6261TIP3    H242763   0.889   7.055  10.904
 6262TIP3   OH242764   1.032   7.487   9.872
 6262TIP3    H142765   1.017   7.474   9.777
 6262TIP3    H242766   1.028   7.583   9.884
 6263TIP3   OH242767   0.396   7.371  10.049
 6263TIP3    H142768   0.406   7.333  10.139
 6263TIP3    H242769   0.310   7.331  10.026
 6264TIP3   OH242770   1.337   7.408   9.567
 6264TIP3    H142771   1.379   7.331   9.523
 6264TIP3    H242772   1.336   7.380   9.661
 6265TIP3   OH242773   1.303   7.403   9.846
 6265TIP3    H142774   1.206   7.406   9.860
 6265TIP3    H242775   1.325   7.326   9.901
 6266TIP3   OH242776   0.317   6.949  10.853
 6266TIP3    H142777   0.333   6.902  10.934
 6266TIP3    H242778   0.234   6.906  10.820
 6267TIP3   OH242779   0.587   5.800  10.437
 6267TIP3    H142780   0.494   5.779  10.410
 6267TIP3    H242781   0.569   5.872  10.500
 6268TIP3   OH242782   1.048   5.766  10.784
 6268TIP3    H142783   1.087   5.719  10.859
 6268TIP3    H242784   0.952   5.749  10.798
 6269TIP3   OH242785   1.356   6.140  10.866
 6269TIP3    H142786   1.331   6.127  10.959
 6269TIP3    H242787   1.364   6.237  10.852
 6270TIP3   OH242788   1.465   6.618   9.463
 6270TIP3    H142789   1.443   6.615   9.366
 6270TIP3    H242790   1.533   6.688   9.465
 6271TIP3   OH242791   1.010   6.011   9.504
 6271TIP3    H142792   0.988   6.017   9.599
 6271TIP3    H242793   0.978   5.923   9.483
 6272TIP3   OH242794   0.593   6.288  10.564
 6272TIP3    H142795   0.526   6.287  10.636
 6272TIP3    H242796   0.586   6.383  10.536
 6273TIP3   OH242797   0.596   6.292  10.062
 6273TIP3    H142798   0.500   6.280  10.044
 6273TIP3    H242799   0.630   6.274   9.971
 6274TIP3   OH242800   1.151   6.363   9.951
 6274TIP3    H142801   1.102   6.432   9.900
 6274TIP3    H242802   1.200   6.330   9.872
 6275TIP3   OH242803   1.242   6.301  10.221
 6275TIP3    H142804   1.220   6.357  10.144
 6275TIP3    H242805   1.257   6.218  10.172
 6276TIP3   OH242806   0.356   6.317  10.741
 6276TIP3    H142807   0.362   6.356  10.831
 6276TIP3    H242808   0.315   6.232  10.760
 6277TIP3   OH242809   0.692   6.050   9.422
 6277TIP3    H142810   0.649   6.013   9.502
 6277TIP3    H242811   0.621   6.097   9.376
 6278TIP3   OH242812   0.052   6.057  10.146
 6278TIP3    H142813   0.104   6.021  10.221
 6278TIP3    H242814   0.064   5.990  10.080
 6279TIP3   OH242815   0.153   6.109   9.679
 6279TIP3    H142816   0.202   6.161   9.612
 6279TIP3    H242817   0.081   6.167   9.702
 6280TIP3   OH242818   1.172   6.457  10.682
 6280TIP3    H142819   1.206   6.391  10.619
 6280TIP3    H242820   1.117   6.403  10.742
 6281TIP3   OH242821   0.848   6.065  10.167
 6281TIP3    H142822   0.759   6.027  10.173
 6281TIP3    H242823   0.902   6.023  10.237
 6282TIP3   OH242824   0.334   6.209  10.046
 6282TIP3    H142825   0.245   6.229  10.010
 6282TIP3    H242826   0.353   6.124  10.004
 6283TIP3   OH242827   0.691   6.220   9.814
 6283TIP3    H142828   0.789   6.225   9.820
 6283TIP3    H242829   0.670   6.282   9.742
 6284TIP3   OH242830   1.291   5.979  10.487
 6284TIP3    H142831   1.219   5.986  10.555
 6284TIP3    H242832   1.242   5.954  10.407
 6285TIP3   OH242833   0.560   6.335   9.564
 6285TIP3    H142834   0.508   6.296   9.492
 6285TIP3    H242835   0.645   6.354   9.520
 6286TIP3   OH242836   0.957   6.315  10.340
 6286TIP3    H142837   1.038   6.283  10.296
 6286TIP3    H242838   0.971   6.281  10.430
 6287TIP3   OH242839   0.483   5.947   9.995
 6287TIP3    H142840   0.442   5.857   9.991
 6287TIP3    H242841   0.556   5.937   9.934
 6288TIP3   OH242842   0.838   6.166  10.582
 6288TIP3    H142843   0.756   6.215  10.601
 6288TIP3    H242844   0.895   6.196  10.656
 6289TIP3   OH242845   0.899   6.776   9.766
 6289TIP3    H142846   0.817   6.742   9.725
 6289TIP3    H242847   0.872   6.803   9.855
 6290TIP3   OH242848   1.619   6.701  10.640
 6290TIP3    H142849   1.673   6.756  10.578
 6290TIP3    H242850   1.532   6.709  10.595
 6291TIP3   OH242851   1.288   6.063   9.572
 6291TIP3    H142852   1.192   6.084   9.566
 6291TIP3    H242853   1.314   6.149   9.615
 6292TIP3   OH242854   1.045   6.815  10.873
 6292TIP3    H142855   1.015   6.771  10.955
 6292TIP3    H242856   1.019   6.907  10.885
 6293TIP3   OH242857   1.380   6.252   9.735
 6293TIP3    H142858   1.463   6.253   9.786
 6293TIP3    H242859   1.365   6.339   9.694
 6294TIP3   OH242860   0.408   6.730  10.339
 6294TIP3    H142861   0.473   6.721  10.268
 6294TIP3    H242862   0.413   6.644  10.384
 6295TIP3   OH242863   1.153   6.892   9.716
 6295TIP3    H142864   1.120   6.984   9.700
 6295TIP3    H242865   1.064   6.859   9.686
 6296TIP3   OH242866   0.119   6.550  10.863
 6296TIP3    H142867   0.124   6.519  10.954
 6296TIP3    H242868   0.041   6.506  10.825
 6297TIP3   OH242869   1.273   7.056  10.879
 6297TIP3    H142870   1.182   7.074  10.852
 6297TIP3    H242871   1.279   7.082  10.971
 6298TIP3   OH242872   1.844   6.273   9.717
 6298TIP3    H142873   1.789   6.242   9.643
 6298TIP3    H242874   1.853   6.368   9.694
 6299TIP3   OH242875   1.672   7.157   9.756
 6299TIP3    H142876   1.637   7.074   9.791
 6299TIP3    H242877   1.706   7.135   9.668
 6300TIP3   OH242878   1.395   6.637  10.468
 6300TIP3    H142879   1.301   6.618  10.453
 6300TIP3    H242880   1.437   6.563  10.420
 6301TIP3   OH242881   0.644   7.074  10.084
 6301TIP3    H142882   0.696   7.151  10.055
 6301TIP3    H242883   0.558   7.095  10.045
 6302TIP3   OH242884   0.220   6.555   9.538
 6302TIP3    H142885   0.283   6.620   9.576
 6302TIP3    H242886   0.135   6.590   9.566
 6303TIP3   OH242887   0.787   6.838  10.033
 6303TIP3    H142888   0.756   6.931  10.036
 6303TIP3    H242889   0.714   6.789  10.074
 6304TIP3   OH242890   0.829   7.261  10.677
 6304TIP3    H142891   0.879   7.337  10.642
 6304TIP3    H242892   0.897   7.218  10.731
 6305TIP3   OH242893   0.654   7.338   9.982
 6305TIP3    H142894   0.558   7.351   9.998
 6305TIP3    H242895   0.691   7.422  10.015
 6306TIP3   OH242896   1.185   6.857  10.628
 6306TIP3    H142897   1.152   6.839  10.719
 6306TIP3    H242898   1.250   6.787  10.616
 6307TIP3   OH242899   1.421   6.966   9.540
 6307TIP3    H142900   1.445   6.919   9.622
 6307TIP3    H242901   1.325   6.950   9.547
 6308TIP3   OH242902   1.443   7.342  10.862
 6308TIP3    H142903   1.397   7.273  10.811
 6308TIP3    H242904   1.484   7.397  10.791
 6309TIP3   OH242905   1.864   7.397   9.566
 6309TIP3    H142906   1.932   7.463   9.544
 6309TIP3    H242907   1.793   7.459   9.595
 6310TIP3   OH242908   0.272   6.043  10.819
 6310TIP3    H142909   0.182   6.076  10.816
 6310TIP3    H242910   0.262   5.958  10.865
 6311TIP3   OH242911   1.497   6.824   9.760
 6311TIP3    H142912   1.471   6.750   9.820
 6311TIP3    H242913   1.590   6.834   9.785
 6312TIP3   OH242914   0.237   7.217  10.658
 6312TIP3    H142915   0.265   7.124  10.663
 6312TIP3    H242916   0.256   7.248  10.747
 6313TIP3   OH242917   0.786   7.073   9.352
 6313TIP3    H142918   0.841   6.998   9.325
 6313TIP3    H242919   0.790   7.046   9.447
 6314TIP3   OH242920   0.672   7.025   9.656
 6314TIP3    H142921   0.741   6.972   9.700
 6314TIP3    H242922   0.715   7.113   9.664
 6315TIP3   OH242923   0.364   6.749   9.684
 6315TIP3    H142924   0.292   6.787   9.739
 6315TIP3    H242925   0.413   6.828   9.655
 6316TIP3   OH242926   1.143   6.016  10.712
 6316TIP3    H142927   1.214   6.022  10.776
 6316TIP3    H242928   1.105   5.928  10.730
 6317TIP3   OH242929   1.223   5.970   9.825
 6317TIP3    H142930   1.237   6.023   9.743
 6317TIP3    H242931   1.278   6.020   9.886
 6318TIP3   OH242932   1.002   7.250   9.739
 6318TIP3    H142933   0.907   7.243   9.716
 6318TIP3    H242934   1.041   7.236   9.652
 6319TIP3   OH242935   0.937   6.148   9.914
 6319TIP3    H142936   1.017   6.205   9.902
 6319TIP3    H242937   0.923   6.137  10.008
 6320TIP3   OH242938   1.011   6.261  10.817
 6320TIP3    H142939   1.003   6.307  10.901
 6320TIP3    H242940   1.056   6.177  10.836
 6321TIP3   OH242941   1.027   5.855   9.996
 6321TIP3    H142942   0.997   5.923  10.057
 6321TIP3    H242943   1.097   5.908   9.948
 6322TIP3   OH242944   0.727   7.295   9.707
 6322TIP3    H142945   0.739   7.375   9.652
 6322TIP3    H242946   0.703   7.331   9.795
 6323TIP3   OH242947   0.595   5.966   9.667
 6323TIP3    H142948   0.591   6.056   9.704
 6323TIP3    H242949   0.687   5.943   9.692
 6324TIP3   OH242950   1.622   6.073  10.856
 6324TIP3    H142951   1.525   6.073  10.867
 6324TIP3    H242952   1.636   6.021  10.775
 6325TIP3   OH242953   1.478   6.418  10.312
 6325TIP3    H142954   1.396   6.373  10.284
 6325TIP3    H242955   1.527   6.349  10.363
 6326TIP3   OH242956   0.415   7.013   9.566
 6326TIP3    H142957   0.488   7.067   9.604
 6326TIP3    H242958   0.471   6.963   9.504
 6327TIP3   OH242959   0.251   6.278   9.482
 6327TIP3    H142960   0.251   6.373   9.506
 6327TIP3    H242961   0.161   6.261   9.451
 6328TIP3   OH242962   1.583   7.345  10.477
 6328TIP3    H142963   1.574   7.413  10.406
 6328TIP3    H242964   1.679   7.352  10.493
 6329TIP3   OH242965   0.333   5.760  10.354
 6329TIP3    H142966   0.312   5.756  10.259
 6329TIP3    H242967   0.296   5.674  10.384
 6330TIP3   OH242968   0.228   7.145   9.974
 6330TIP3    H142969   0.145   7.194   9.969
 6330TIP3    H242970   0.278   7.193   9.906
 6331TIP3   OH242971   1.030   7.260   9.398
 6331TIP3    H142972   0.966   7.193   9.432
 6331TIP3    H242973   1.102   7.199   9.379
 6332TIP3   OH242974   1.489   7.231   9.421
 6332TIP3    H142975   1.515   7.153   9.472
 6332TIP3    H242976   1.565   7.251   9.365
 6333TIP3   OH242977   0.572   6.820   9.399
 6333TIP3    H142978   0.589   6.750   9.463
 6333TIP3    H242979   0.653   6.814   9.346
 6334TIP3   OH242980   1.141   6.928   9.375
 6334TIP3    H142981   1.089   6.951   9.456
 6334TIP3    H242982   1.102   6.838   9.363
 6335TIP3   OH242983   1.379   6.775  10.866
 6335TIP3    H142984   1.459   6.832  10.870
 6335TIP3    H242985   1.312   6.841  10.884
 6336TIP3   OH242986   0.694   6.627   9.646
 6336TIP3    H142987   0.647   6.571   9.710
 6336TIP3    H242988   0.730   6.561   9.583
 6337TIP3   OH242989   0.623   6.421  10.865
 6337TIP3    H142990   0.558   6.487  10.894
 6337TIP3    H242991   0.662   6.459  10.785
 6338TIP3   OH242992   0.803   6.449   9.466
 6338TIP3    H142993   0.789   6.440   9.370
 6338TIP3    H242994   0.901   6.456   9.474
 6339TIP3   OH242995   1.733   6.682   9.403
 6339TIP3    H142996   1.722   6.656   9.309
 6339TIP3    H242997   1.747   6.780   9.392
 6340TIP3   OH242998   0.632   6.186  10.953
 6340TIP3    H142999   0.683   6.115  10.911
 6340TIP3    H243000   0.661   6.264  10.901
 6341TIP3   OH243001   0.702   5.983  10.737
 6341TIP3    H143002   0.753   6.029  10.668
 6341TIP3    H243003   0.613   5.973  10.697
 6342TIP3   OH243004   0.856   6.523  10.753
 6342TIP3    H143005   0.937   6.518  10.702
 6342TIP3    H243006   0.821   6.612  10.730
 6343TIP3   OH243007   0.784   5.727  10.777
 6343TIP3    H143008   0.764   5.823  10.775
 6343TIP3    H243009   0.708   5.692  10.728
 6344TIP3   OH243010   0.784   7.523   9.577
 6344TIP3    H143011   0.882   7.525   9.580
 6344TIP3    H243012   0.773   7.578   9.498
 6345TIP3   OH243013   0.146   6.975   9.523
 6345TIP3    H143014   0.244   6.988   9.538
 6345TIP3    H243015   0.152   6.910   9.450
 6346TIP3   OH243016   0.036   7.524  10.006
 6346TIP3    H143017  -0.045   7.478   9.977
 6346TIP3    H243018   0.054   7.464  10.080
 6347TIP3   OH243019   0.123   7.331  10.198
 6347TIP3    H143020   0.075   7.248  10.214
 6347TIP3    H243021   0.134   7.367  10.288
 6348TIP3   OH243022   1.860   7.401  10.502
 6348TIP3    H143023   1.859   7.426  10.596
 6348TIP3    H243024   1.923   7.466  10.467
 6349TIP3   OH243025   1.816   7.368  10.791
 6349TIP3    H143026   1.767   7.293  10.752
 6349TIP3    H243027   1.864   7.325  10.862
 6350TIP3   OH243028   1.792   6.770   9.798
 6350TIP3    H143029   1.875   6.813   9.822
 6350TIP3    H243030   1.787   6.703   9.870
 6351TIP3   OH243031   1.824   6.580   9.988
 6351TIP3    H143032   1.748   6.531  10.029
 6351TIP3    H243033   1.883   6.594  10.065
 6352TIP3   OH243034   1.800   6.849  10.490
 6352TIP3    H143035   1.881   6.811  10.453
 6352TIP3    H243036   1.815   6.944  10.471
 6353TIP3   OH243037   1.653   7.143  10.717
 6353TIP3    H143038   1.586   7.174  10.778
 6353TIP3    H243039   1.601   7.100  10.646
 6354TIP3   OH243040   1.849   6.560   9.629
 6354TIP3    H143041   1.804   6.609   9.559
 6354TIP3    H243042   1.849   6.630   9.698
 6355TIP3   OH243043   1.690   6.279   9.479
 6355TIP3    H143044   1.720   6.321   9.399
 6355TIP3    H243045   1.672   6.190   9.440
 6356TIP3   OH243046   1.607   6.427  10.050
 6356TIP3    H143047   1.592   6.332  10.043
 6356TIP3    H243048   1.575   6.448  10.139
 6357TIP3   OH243049   0.108   6.635  10.454
 6357TIP3    H143050   0.127   6.628  10.359
 6357TIP3    H243051   0.197   6.621  10.493
 6358TIP3   OH243052   1.618   6.035   9.398
 6358TIP3    H143053   1.676   5.985   9.459
 6358TIP3    H243054   1.531   5.993   9.410
 6359TIP3   OH243055   1.579   6.188   9.895
 6359TIP3    H143056   1.604   6.093   9.904
 6359TIP3    H243057   1.659   6.226   9.859
 6360TIP3   OH243058   1.639   6.241  10.438
 6360TIP3    H143059   1.735   6.263  10.437
 6360TIP3    H243060   1.620   6.254  10.532
 6361TIP3   OH243061   1.647   6.316  10.719
 6361TIP3    H143062   1.556   6.341  10.745
 6361TIP3    H243063   1.686   6.402  10.691
 6362TIP3   OH243064   1.642   5.915   9.898
 6362TIP3    H143065   1.664   5.872   9.984
 6362TIP3    H243066   1.582   5.851   9.855
 6363TIP3   OH243067   0.193   5.995  10.357
 6363TIP3    H143068   0.237   5.912  10.383
 6363TIP3    H243069   0.243   6.064  10.402
 6364TIP3   OH243070   0.043   6.302  10.471
 6364TIP3    H143071   0.085   6.280  10.386
 6364TIP3    H243072   0.073   6.392  10.484
 6365TIP3   OH243073   1.825   5.917   9.554
 6365TIP3    H143074   1.864   5.846   9.499
 6365TIP3    H243075   1.897   5.981   9.559
 6366TIP3   OH243076   0.075   5.903   9.817
 6366TIP3    H143077  -0.018   5.927   9.832
 6366TIP3    H243078   0.112   5.984   9.776
 6367TIP3   OH243079   1.526   7.409  10.048
 6367TIP3    H143080   1.602   7.385   9.995
 6367TIP3    H243081   1.569   7.462  10.121
 6368TIP3   OH243082   0.067   5.805  10.712
 6368TIP3    H143083  -0.006   5.766  10.761
 6368TIP3    H243084   0.012   5.861  10.652
 6369TIP3   OH243085   0.562   7.208  10.743
 6369TIP3    H143086   0.524   7.290  10.706
 6369TIP3    H243087   0.654   7.216  10.708
 6370TIP3   OH243088   1.221   7.489  -0.031
 6370TIP3    H143089   1.290   7.424  -0.055
 6370TIP3    H243090   1.261   7.517   0.053
 6371TIP3   OH243091   1.729   5.740  10.862
 6371TIP3    H143092   1.639   5.763  10.834
 6371TIP3    H243093   1.741   5.652  10.820
 6372TIP3   OH243094   0.302   7.529  10.742
 6372TIP3    H143095   0.230   7.580  10.700
 6372TIP3    H243096   0.267   7.513  10.830
 6373TIP3   OH243097   0.552   7.483  10.641
 6373TIP3    H143098   0.467   7.504  10.686
 6373TIP3    H243099   0.549   7.546  10.567
 6374TIP3   OH243100   1.018   7.477  10.569
 6374TIP3    H143101   0.981   7.534  10.499
 6374TIP3    H243102   1.038   7.545  10.638
 6375TIP3   OH243103   1.250   7.355  10.659
 6375TIP3    H143104   1.166   7.391  10.627
 6375TIP3    H243105   1.299   7.439  10.656
 6376TIP3   OH243106   1.516   7.521  10.685
 6376TIP3    H143107   1.501   7.614  10.660
 6376TIP3    H243108   1.532   7.484  10.597
 6377TIP3   OH243109   0.255   7.399  10.430
 6377TIP3    H143110   0.242   7.354  10.517
 6377TIP3    H243111   0.336   7.357  10.393
 6378TIP3   OH243112   0.459   7.266  10.299
 6378TIP3    H143113   0.444   7.172  10.322
 6378TIP3    H243114   0.545   7.282  10.344
 6379TIP3   OH243115   0.719   7.315  10.385
 6379TIP3    H143116   0.734   7.223  10.360
 6379TIP3    H243117   0.726   7.312  10.482
 6380TIP3   OH243118   1.060   5.881  10.297
 6380TIP3    H143119   0.999   5.813  10.329
 6380TIP3    H243120   1.121   5.828  10.243
 6381TIP3   OH243121   1.579   5.686  10.307
 6381TIP3    H143122   1.640   5.744  10.254
 6381TIP3    H243123   1.490   5.721  10.282
 6382TIP3   OH243124   1.745   5.811  10.133
 6382TIP3    H143125   1.814   5.753  10.092
 6382TIP3    H243126   1.797   5.894  10.144
 6383TIP3   OH243127   0.308   5.743  10.082
 6383TIP3    H143128   0.226   5.723  10.031
 6383TIP3    H243129   0.351   5.656  10.078
 6384TIP3   OH243130   0.179   5.715   9.655
 6384TIP3    H143131   0.228   5.781   9.603
 6384TIP3    H243132   0.128   5.774   9.715
 6385TIP3   OH243133   0.747   5.743  10.066
 6385TIP3    H143134   0.840   5.767  10.053
 6385TIP3    H243135   0.747   5.711  10.157
 6386TIP3   OH243136   1.321   5.737  10.226
 6386TIP3    H143137   1.315   5.749  10.130
 6386TIP3    H243138   1.282   5.648  10.238
 6387TIP3   OH243139   1.446   5.741   9.793
 6387TIP3    H143140   1.371   5.801   9.779
 6387TIP3    H243141   1.403   5.656   9.818
 6388TIP3   OH243142   0.166   7.320   9.763
 6388TIP3    H143143   0.110   7.317   9.685
 6388TIP3    H243144   0.168   7.416   9.776
 6389TIP3   OH243145   0.364   5.912   9.509
 6389TIP3    H143146   0.417   5.851   9.455
 6389TIP3    H243147   0.433   5.943   9.571
 6390TIP3   OH243148   0.863   5.937   9.747
 6390TIP3    H143149   0.892   5.882   9.821
 6390TIP3    H243150   0.878   6.025   9.788
 6391TIP3   OH243151   1.057   7.463   9.578
 6391TIP3    H143152   1.153   7.465   9.569
 6391TIP3    H243153   1.036   7.391   9.514
 6392TIP3   OH243154   1.727   7.395   9.865
 6392TIP3    H143155   1.708   7.316   9.809
 6392TIP3    H243156   1.721   7.468   9.801
 6393TIP3   OH243157   0.346   7.406   9.452
 6393TIP3    H143158   0.325   7.438   9.541
 6393TIP3    H243159   0.429   7.357   9.468
 6394TIP3   OH243160   3.095   6.656  10.071
 6394TIP3    H143161   3.094   6.754  10.067
 6394TIP3    H243162   3.025   6.633  10.007
 6395TIP3   OH243163   2.981   6.582  10.419
 6395TIP3    H143164   2.980   6.518  10.491
 6395TIP3    H243165   2.947   6.531  10.344
 6396TIP3   OH243166   2.220   6.551  10.570
 6396TIP3    H143167   2.226   6.482  10.639
 6396TIP3    H243168   2.293   6.608  10.598
 6397TIP3   OH243169   3.350   6.878  10.248
 6397TIP3    H143170   3.309   6.807  10.298
 6397TIP3    H243171   3.353   6.948  10.316
 6398TIP3   OH243172   2.312   6.994  10.412
 6398TIP3    H143173   2.274   6.905  10.403
 6398TIP3    H243174   2.403   6.978  10.442
 6399TIP3   OH243175   1.973   6.350   9.977
 6399TIP3    H143176   1.931   6.437   9.968
 6399TIP3    H243177   1.918   6.295   9.920
 6400TIP3   OH243178   2.050   6.576  10.193
 6400TIP3    H143179   2.071   6.489  10.234
 6400TIP3    H243180   2.111   6.580  10.119
 6401TIP3   OH243181   3.059   7.393  10.271
 6401TIP3    H143182   3.124   7.326  10.240
 6401TIP3    H243183   3.042   7.360  10.359
 6402TIP3   OH243184   2.817   6.822  10.469
 6402TIP3    H143185   2.855   6.760  10.405
 6402TIP3    H243186   2.899   6.839  10.520
 6403TIP3   OH243187   3.679   5.989  10.542
 6403TIP3    H143188   3.697   6.049  10.617
 6403TIP3    H243189   3.737   6.030  10.476
 6404TIP3   OH243190   3.131   6.266  10.502
 6404TIP3    H143191   3.155   6.172  10.496
 6404TIP3    H243192   3.125   6.285  10.406
 6405TIP3   OH243193   2.447   6.076  10.220
 6405TIP3    H143194   2.458   6.160  10.171
 6405TIP3    H243195   2.407   6.020  10.150
 6406TIP3   OH243196   3.221   6.086  10.058
 6406TIP3    H143197   3.285   6.054  10.125
 6406TIP3    H243198   3.277   6.144  10.005
 6407TIP3   OH243199   2.109   6.320  10.293
 6407TIP3    H143200   2.176   6.266  10.339
 6407TIP3    H243201   2.121   6.288  10.202
 6408TIP3   OH243202   2.623   6.475  10.228
 6408TIP3    H143203   2.693   6.418  10.264
 6408TIP3    H243204   2.575   6.408  10.176
 6409TIP3   OH243205   3.740   6.146  10.766
 6409TIP3    H143206   3.661   6.205  10.754
 6409TIP3    H243207   3.724   6.120  10.857
 6410TIP3   OH243208   2.339   5.966  10.620
 6410TIP3    H143209   2.311   6.027  10.549
 6410TIP3    H243210   2.274   5.989  10.690
 6411TIP3   OH243211   3.065   6.916   9.981
 6411TIP3    H143212   3.045   6.890   9.890
 6411TIP3    H243213   3.037   7.010   9.983
 6412TIP3   OH243214   2.587   6.733  10.643
 6412TIP3    H143215   2.520   6.797  10.675
 6412TIP3    H243216   2.661   6.792  10.622
 6413TIP3   OH243217   3.402   6.022  10.259
 6413TIP3    H143218   3.381   5.944  10.311
 6413TIP3    H243219   3.470   6.064  10.313
 6414TIP3   OH243220   2.294   6.154  10.424
 6414TIP3    H143221   2.356   6.222  10.458
 6414TIP3    H243222   2.347   6.112  10.352
 6415TIP3   OH243223   2.434   6.935  10.722
 6415TIP3    H143224   2.428   7.031  10.703
 6415TIP3    H243225   2.351   6.925  10.776
 6416TIP3   OH243226   2.045   6.893   9.810
 6416TIP3    H143227   2.019   6.927   9.723
 6416TIP3    H243228   2.049   6.977   9.861
 6417TIP3   OH243229   3.403   7.062  10.486
 6417TIP3    H143230   3.306   7.072  10.497
 6417TIP3    H243231   3.430   7.153  10.465
 6418TIP3   OH243232   3.433   5.895  10.631
 6418TIP3    H143233   3.361   5.955  10.608
 6418TIP3    H243234   3.505   5.928  10.574
 6419TIP3   OH243235   2.731   5.702  10.369
 6419TIP3    H143236   2.715   5.605  10.363
 6419TIP3    H243237   2.644   5.733  10.403
 6420TIP3   OH243238   3.229   7.241  10.143
 6420TIP3    H143239   3.271   7.168  10.093
 6420TIP3    H243240   3.275   7.318  10.105
 6421TIP3   OH243241   3.352   7.033   9.998
 6421TIP3    H143242   3.321   6.965   9.936
 6421TIP3    H243243   3.355   6.983  10.081
 6422TIP3   OH243244   3.515   6.889  10.843
 6422TIP3    H143245   3.528   6.831  10.766
 6422TIP3    H243246   3.537   6.977  10.806
 6423TIP3   OH243247   2.961   6.577   9.820
 6423TIP3    H143248   2.896   6.640   9.784
 6423TIP3    H243249   3.032   6.595   9.754
 6424TIP3   OH243250   2.966   6.429   9.525
 6424TIP3    H143251   3.041   6.444   9.585
 6424TIP3    H243252   3.006   6.368   9.463
 6425TIP3   OH243253   3.701   6.521  10.647
 6425TIP3    H143254   3.637   6.595  10.654
 6425TIP3    H243255   3.751   6.547  10.568
 6426TIP3   OH243256   3.310   6.602   9.915
 6426TIP3    H143257   3.233   6.626   9.971
 6426TIP3    H243258   3.355   6.533   9.966
 6427TIP3   OH243259   3.294   6.414  10.826
 6427TIP3    H143260   3.302   6.494  10.879
 6427TIP3    H243261   3.237   6.450  10.755
 6428TIP3   OH243262   2.474   6.659  10.097
 6428TIP3    H143263   2.438   6.616  10.013
 6428TIP3    H243264   2.532   6.585  10.130
 6429TIP3   OH243265   2.595   6.996  10.373
 6429TIP3    H143266   2.617   6.960  10.288
 6429TIP3    H243267   2.678   6.974  10.421
 6430TIP3   OH243268   2.499   6.547  10.469
 6430TIP3    H143269   2.561   6.547  10.394
 6430TIP3    H243270   2.542   6.606  10.536
 6431TIP3   OH243271   3.144   7.100  10.543
 6431TIP3    H143272   3.113   7.167  10.604
 6431TIP3    H243273   3.117   7.015  10.586
 6432TIP3   OH243274   2.609   7.006  10.931
 6432TIP3    H143275   2.561   7.060  10.996
 6432TIP3    H243276   2.534   6.973  10.876
 6433TIP3   OH243277   3.220   6.493   9.683
 6433TIP3    H143278   3.252   6.539   9.764
 6433TIP3    H243279   3.223   6.568   9.617
 6434TIP3   OH243280   2.286   6.598  10.866
 6434TIP3    H143281   2.297   6.669  10.931
 6434TIP3    H243282   2.197   6.612  10.832
 6435TIP3   OH243283   2.965   7.195  10.028
 6435TIP3    H143284   3.010   7.222  10.109
 6435TIP3    H243285   2.912   7.272  10.006
 6436TIP3   OH243286   3.567   5.696   9.672
 6436TIP3    H143287   3.472   5.707   9.695
 6436TIP3    H243288   3.586   5.780   9.627
 6437TIP3   OH243289   2.361   6.570   9.871
 6437TIP3    H143290   2.335   6.646   9.814
 6437TIP3    H243291   2.301   6.501   9.841
 6438TIP3   OH243292   3.679   7.129   9.506
 6438TIP3    H143293   3.696   7.224   9.523
 6438TIP3    H243294   3.771   7.098   9.507
 6439TIP3   OH243295   1.978   6.814  10.749
 6439TIP3    H143296   1.927   6.806  10.666
 6439TIP3    H243297   1.980   6.721  10.778
 6440TIP3   OH243298   1.953   7.085  10.434
 6440TIP3    H143299   2.048   7.075  10.433
 6440TIP3    H243300   1.942   7.166  10.486
 6441TIP3   OH243301   2.857   7.084  10.866
 6441TIP3    H143302   2.868   7.174  10.902
 6441TIP3    H243303   2.771   7.057  10.906
 6442TIP3   OH243304   2.900   7.486   9.865
 6442TIP3    H143305   2.917   7.480   9.769
 6442TIP3    H243306   2.920   7.581   9.886
 6443TIP3   OH243307   2.281   7.369  10.050
 6443TIP3    H143308   2.290   7.333  10.141
 6443TIP3    H243309   2.192   7.335  10.028
 6444TIP3   OH243310   3.219   7.406   9.567
 6444TIP3    H143311   3.266   7.331   9.523
 6444TIP3    H243312   3.226   7.381   9.661
 6445TIP3   OH243313   3.188   7.401   9.845
 6445TIP3    H143314   3.093   7.405   9.863
 6445TIP3    H243315   3.215   7.327   9.902
 6446TIP3   OH243316   2.202   6.940  10.847
 6446TIP3    H143317   2.223   6.906  10.935
 6446TIP3    H243318   2.112   6.906  10.827
 6447TIP3   OH243319   2.471   5.794  10.442
 6447TIP3    H143320   2.380   5.780  10.408
 6447TIP3    H243321   2.458   5.874  10.496
 6448TIP3   OH243322   2.933   5.773  10.790
 6448TIP3    H143323   2.973   5.716  10.859
 6448TIP3    H243324   2.837   5.747  10.798
 6449TIP3   OH243325   3.235   6.145  10.868
 6449TIP3    H143326   3.239   6.131  10.965
 6449TIP3    H243327   3.264   6.239  10.854
 6450TIP3   OH243328   3.364   6.603   9.453
 6450TIP3    H143329   3.338   6.610   9.361
 6450TIP3    H243330   3.425   6.676   9.469
 6451TIP3   OH243331   2.898   6.016   9.512
 6451TIP3    H143332   2.868   6.012   9.604
 6451TIP3    H243333   2.867   5.929   9.482
 6452TIP3   OH243334   2.478   6.290  10.570
 6452TIP3    H143335   2.407   6.289  10.637
 6452TIP3    H243336   2.473   6.381  10.534
 6453TIP3   OH243337   2.476   6.303  10.059
 6453TIP3    H143338   2.383   6.275  10.046
 6453TIP3    H243339   2.514   6.273   9.974
 6454TIP3   OH243340   3.028   6.351   9.936
 6454TIP3    H143341   2.988   6.434   9.900
 6454TIP3    H243342   3.096   6.337   9.869
 6455TIP3   OH243343   3.134   6.301  10.220
 6455TIP3    H143344   3.104   6.357  10.146
 6455TIP3    H243345   3.142   6.216  10.173
 6456TIP3   OH243346   2.234   6.318  10.743
 6456TIP3    H143347   2.254   6.354  10.832
 6456TIP3    H243348   2.204   6.227  10.761
 6457TIP3   OH243349   2.580   6.054   9.424
 6457TIP3    H143350   2.535   6.013   9.501
 6457TIP3    H243351   2.509   6.098   9.376
 6458TIP3   OH243352   1.909   6.024  10.139
 6458TIP3    H143353   1.978   6.020  10.209
 6458TIP3    H243354   1.954   5.988  10.060
 6459TIP3   OH243355   2.036   6.095   9.674
 6459TIP3    H143356   2.089   6.155   9.618
 6459TIP3    H243357   1.967   6.158   9.706
 6460TIP3   OH243358   3.057   6.458  10.681
 6460TIP3    H143359   3.091   6.393  10.616
 6460TIP3    H243360   3.000   6.405  10.740
 6461TIP3   OH243361   2.733   6.058  10.159
 6461TIP3    H143362   2.639   6.056  10.188
 6461TIP3    H243363   2.780   6.038  10.241
 6462TIP3   OH243364   2.213   6.211  10.045
 6462TIP3    H143365   2.125   6.227  10.006
 6462TIP3    H243366   2.242   6.127  10.005
 6463TIP3   OH243367   2.577   6.217   9.809
 6463TIP3    H143368   2.672   6.227   9.824
 6463TIP3    H243369   2.553   6.284   9.742
 6464TIP3   OH243370   3.174   5.981  10.484
 6464TIP3    H143371   3.102   5.984  10.548
 6464TIP3    H243372   3.127   5.954  10.403
 6465TIP3   OH243373   2.448   6.334   9.567
 6465TIP3    H143374   2.395   6.295   9.495
 6465TIP3    H243375   2.530   6.355   9.519
 6466TIP3   OH243376   2.860   6.333  10.347
 6466TIP3    H143377   2.921   6.280  10.294
 6466TIP3    H243378   2.845   6.276  10.423
 6467TIP3   OH243379   2.361   5.947   9.991
 6467TIP3    H143380   2.330   5.855   9.992
 6467TIP3    H243381   2.441   5.939   9.936
 6468TIP3   OH243382   2.724   6.163  10.590
 6468TIP3    H143383   2.641   6.215  10.591
 6468TIP3    H243384   2.777   6.206  10.658
 6469TIP3   OH243385   2.782   6.790   9.759
 6469TIP3    H143386   2.706   6.739   9.723
 6469TIP3    H243387   2.762   6.797   9.854
 6470TIP3   OH243388   3.505   6.702  10.640
 6470TIP3    H143389   3.559   6.755  10.579
 6470TIP3    H243390   3.418   6.709  10.595
 6471TIP3   OH243391   3.164   6.068   9.576
 6471TIP3    H143392   3.070   6.084   9.563
 6471TIP3    H243393   3.200   6.153   9.611
 6472TIP3   OH243394   2.933   6.815  10.876
 6472TIP3    H143395   2.899   6.772  10.957
 6472TIP3    H243396   2.903   6.906  10.885
 6473TIP3   OH243397   3.243   6.250   9.737
 6473TIP3    H143398   3.330   6.247   9.781
 6473TIP3    H243399   3.247   6.339   9.693
 6474TIP3   OH243400   2.299   6.725  10.340
 6474TIP3    H143401   2.353   6.690  10.269
 6474TIP3    H243402   2.290   6.643  10.394
 6475TIP3   OH243403   2.974   6.966   9.664
 6475TIP3    H143404   2.937   7.037   9.716
 6475TIP3    H243405   2.923   6.883   9.685
 6476TIP3   OH243406   1.990   6.571  10.866
 6476TIP3    H143407   2.016   6.529  10.948
 6476TIP3    H243408   1.933   6.508  10.817
 6477TIP3   OH243409   3.159   7.057  10.879
 6477TIP3    H143410   3.068   7.074  10.852
 6477TIP3    H243411   3.164   7.083  10.972
 6478TIP3   OH243412   3.730   6.273   9.716
 6478TIP3    H143413   3.673   6.246   9.642
 6478TIP3    H243414   3.737   6.369   9.693
 6479TIP3   OH243415   3.554   7.156   9.755
 6479TIP3    H143416   3.519   7.072   9.788
 6479TIP3    H243417   3.591   7.135   9.668
 6480TIP3   OH243418   3.280   6.638  10.468
 6480TIP3    H143419   3.186   6.618  10.455
 6480TIP3    H243420   3.323   6.564  10.421
 6481TIP3   OH243421   2.525   7.068  10.082
 6481TIP3    H143422   2.582   7.145  10.060
 6481TIP3    H243423   2.441   7.098  10.043
 6482TIP3   OH243424   2.106   6.556   9.534
 6482TIP3    H143425   2.167   6.621   9.575
 6482TIP3    H243426   2.019   6.589   9.561
 6483TIP3   OH243427   2.676   6.838  10.032
 6483TIP3    H143428   2.643   6.929  10.036
 6483TIP3    H243429   2.605   6.782  10.065
 6484TIP3   OH243430   2.716   7.260  10.672
 6484TIP3    H143431   2.766   7.338  10.643
 6484TIP3    H243432   2.779   7.219  10.733
 6485TIP3   OH243433   2.538   7.341   9.978
 6485TIP3    H143434   2.440   7.346   9.999
 6485TIP3    H243435   2.566   7.417  10.034
 6486TIP3   OH243436   3.070   6.856  10.628
 6486TIP3    H143437   3.038   6.837  10.718
 6486TIP3    H243438   3.135   6.785  10.615
 6487TIP3   OH243439   3.310   6.973   9.541
 6487TIP3    H143440   3.334   6.916   9.618
 6487TIP3    H243441   3.217   6.940   9.542
 6488TIP3   OH243442   3.329   7.341  10.860
 6488TIP3    H143443   3.282   7.273  10.810
 6488TIP3    H243444   3.369   7.396  10.789
 6489TIP3   OH243445   3.749   7.397   9.566
 6489TIP3    H143446   3.818   7.463   9.544
 6489TIP3    H243447   3.679   7.459   9.595
 6490TIP3   OH243448   2.159   6.045  10.820
 6490TIP3    H143449   2.067   6.073  10.811
 6490TIP3    H243450   2.154   5.957  10.861
 6491TIP3   OH243451   3.382   6.832   9.768
 6491TIP3    H143452   3.356   6.750   9.815
 6491TIP3    H243453   3.478   6.829   9.782
 6492TIP3   OH243454   2.121   7.219  10.662
 6492TIP3    H143455   2.150   7.127  10.663
 6492TIP3    H243456   2.149   7.248  10.750
 6493TIP3   OH243457   2.713   7.076   9.391
 6493TIP3    H143458   2.730   6.999   9.333
 6493TIP3    H243459   2.674   7.027   9.466
 6494TIP3   OH243460   2.592   7.023   9.635
 6494TIP3    H143461   2.628   6.969   9.706
 6494TIP3    H243462   2.603   7.115   9.667
 6495TIP3   OH243463   2.252   6.749   9.689
 6495TIP3    H143464   2.176   6.789   9.735
 6495TIP3    H243465   2.298   6.827   9.652
 6496TIP3   OH243466   3.027   6.007  10.709
 6496TIP3    H143467   3.116   5.997  10.747
 6496TIP3    H243468   2.989   5.916  10.720
 6497TIP3   OH243469   3.105   5.974   9.825
 6497TIP3    H143470   3.129   6.019   9.742
 6497TIP3    H243471   3.162   6.021   9.888
 6498TIP3   OH243472   2.875   7.206   9.719
 6498TIP3    H143473   2.788   7.243   9.702
 6498TIP3    H243474   2.930   7.239   9.645
 6499TIP3   OH243475   2.829   6.149   9.907
 6499TIP3    H143476   2.907   6.208   9.912
 6499TIP3    H243477   2.802   6.138  10.000
 6500TIP3   OH243478   2.889   6.282  10.817
 6500TIP3    H143479   2.877   6.320  10.906
 6500TIP3    H243480   2.901   6.188  10.822
 6501TIP3   OH243481   2.914   5.855   9.995
 6501TIP3    H143482   2.881   5.921  10.058
 6501TIP3    H243483   2.983   5.909   9.951
 6502TIP3   OH243484   2.618   7.286   9.697
 6502TIP3    H143485   2.614   7.365   9.637
 6502TIP3    H243486   2.559   7.309   9.772
 6503TIP3   OH243487   2.479   5.966   9.666
 6503TIP3    H143488   2.474   6.056   9.705
 6503TIP3    H243489   2.570   5.941   9.692
 6504TIP3   OH243490   3.505   6.073  10.856
 6504TIP3    H143491   3.409   6.071  10.867
 6504TIP3    H243492   3.524   6.023  10.776
 6505TIP3   OH243493   3.364   6.418  10.310
 6505TIP3    H143494   3.282   6.373  10.283
 6505TIP3    H243495   3.412   6.350  10.363
 6506TIP3   OH243496   2.301   7.008   9.569
 6506TIP3    H143497   2.367   7.072   9.601
 6506TIP3    H243498   2.355   6.962   9.502
 6507TIP3   OH243499   2.136   6.278   9.487
 6507TIP3    H143500   2.140   6.374   9.506
 6507TIP3    H243501   2.048   6.261   9.452
 6508TIP3   OH243502   3.471   7.342  10.477
 6508TIP3    H143503   3.461   7.412  10.409
 6508TIP3    H243504   3.567   7.350  10.494
 6509TIP3   OH243505   2.217   5.756  10.360
 6509TIP3    H143506   2.200   5.757  10.263
 6509TIP3    H243507   2.178   5.669  10.384
 6510TIP3   OH243508   2.114   7.148   9.976
 6510TIP3    H143509   2.028   7.192   9.969
 6510TIP3    H243510   2.158   7.193   9.902
 6511TIP3   OH243511   2.916   7.258   9.405
 6511TIP3    H143512   2.848   7.189   9.423
 6511TIP3    H243513   2.988   7.198   9.380
 6512TIP3   OH243514   3.375   7.233   9.421
 6512TIP3    H143515   3.400   7.153   9.471
 6512TIP3    H243516   3.451   7.252   9.365
 6513TIP3   OH243517   2.458   6.824   9.401
 6513TIP3    H143518   2.474   6.750   9.461
 6513TIP3    H243519   2.536   6.816   9.343
 6514TIP3   OH243520   2.992   6.939   9.375
 6514TIP3    H143521   2.983   6.942   9.472
 6514TIP3    H243522   2.990   6.841   9.369
 6515TIP3   OH243523   3.264   6.774  10.865
 6515TIP3    H143524   3.344   6.831  10.871
 6515TIP3    H243525   3.197   6.841  10.885
 6516TIP3   OH243526   2.579   6.626   9.648
 6516TIP3    H143527   2.529   6.570   9.707
 6516TIP3    H243528   2.612   6.561   9.581
 6517TIP3   OH243529   2.504   6.420  10.857
 6517TIP3    H143530   2.451   6.490  10.899
 6517TIP3    H243531   2.547   6.461  10.782
 6518TIP3   OH243532   2.688   6.448   9.465
 6518TIP3    H143533   2.676   6.442   9.369
 6518TIP3    H243534   2.786   6.455   9.474
 6519TIP3   OH243535   3.627   6.682   9.406
 6519TIP3    H143536   3.601   6.643   9.321
 6519TIP3    H243537   3.629   6.778   9.389
 6520TIP3   OH243538   2.518   6.187  10.948
 6520TIP3    H143539   2.567   6.115  10.908
 6520TIP3    H243540   2.546   6.266  10.899
 6521TIP3   OH243541   2.589   5.983  10.737
 6521TIP3    H143542   2.637   6.029  10.665
 6521TIP3    H243543   2.499   5.972  10.697
 6522TIP3   OH243544   2.744   6.526  10.758
 6522TIP3    H143545   2.821   6.518  10.701
 6522TIP3    H243546   2.707   6.611  10.729
 6523TIP3   OH243547   2.671   5.729  10.776
 6523TIP3    H143548   2.648   5.824  10.773
 6523TIP3    H243549   2.595   5.691  10.729
 6524TIP3   OH243550   2.673   7.520   9.584
 6524TIP3    H143551   2.771   7.529   9.577
 6524TIP3    H243552   2.655   7.573   9.504
 6525TIP3   OH243553   2.027   6.976   9.522
 6525TIP3    H143554   2.124   6.986   9.539
 6525TIP3    H243555   2.032   6.914   9.445
 6526TIP3   OH243556   1.908   7.514  10.016
 6526TIP3    H143557   1.835   7.465   9.971
 6526TIP3    H243558   1.933   7.449  10.084
 6527TIP3   OH243559   1.988   7.329  10.205
 6527TIP3    H143560   1.952   7.241  10.226
 6527TIP3    H243561   2.011   7.361  10.294
 6528TIP3   OH243562   3.742   7.407  10.501
 6528TIP3    H143563   3.747   7.425  10.596
 6528TIP3    H243564   3.811   7.466  10.468
 6529TIP3   OH243565   3.701   7.368  10.791
 6529TIP3    H143566   3.652   7.292  10.753
 6529TIP3    H243567   3.751   7.325  10.861
 6530TIP3   OH243568   3.675   6.774   9.802
 6530TIP3    H143569   3.762   6.812   9.821
 6530TIP3    H243570   3.673   6.702   9.869
 6531TIP3   OH243571   3.712   6.581   9.992
 6531TIP3    H143572   3.636   6.532  10.030
 6531TIP3    H243573   3.771   6.593  10.069
 6532TIP3   OH243574   3.686   6.849  10.490
 6532TIP3    H143575   3.767   6.810  10.452
 6532TIP3    H243576   3.701   6.944  10.471
 6533TIP3   OH243577   3.540   7.142  10.718
 6533TIP3    H143578   3.472   7.173  10.779
 6533TIP3    H243579   3.487   7.100  10.646
 6534TIP3   OH243580   3.740   6.563   9.630
 6534TIP3    H143581   3.681   6.596   9.559
 6534TIP3    H243582   3.730   6.634   9.696
 6535TIP3   OH243583   3.579   6.284   9.483
 6535TIP3    H143584   3.587   6.351   9.414
 6535TIP3    H243585   3.560   6.202   9.432
 6536TIP3   OH243586   3.492   6.427  10.050
 6536TIP3    H143587   3.479   6.332  10.044
 6536TIP3    H243588   3.461   6.448  10.140
 6537TIP3   OH243589   1.995   6.641  10.454
 6537TIP3    H143590   2.010   6.626  10.358
 6537TIP3    H243591   2.082   6.615  10.492
 6538TIP3   OH243592   3.504   6.031   9.394
 6538TIP3    H143593   3.562   5.988   9.460
 6538TIP3    H243594   3.417   5.992   9.410
 6539TIP3   OH243595   3.457   6.186   9.889
 6539TIP3    H143596   3.489   6.094   9.905
 6539TIP3    H243597   3.539   6.227   9.859
 6540TIP3   OH243598   3.524   6.241  10.437
 6540TIP3    H143599   3.620   6.263  10.437
 6540TIP3    H243600   3.506   6.255  10.531
 6541TIP3   OH243601   3.529   6.315  10.715
 6541TIP3    H143602   3.441   6.343  10.748
 6541TIP3    H243603   3.574   6.400  10.693
 6542TIP3   OH243604   3.527   5.915   9.899
 6542TIP3    H143605   3.549   5.872   9.984
 6542TIP3    H243606   3.468   5.851   9.855
 6543TIP3   OH243607   2.074   5.995  10.357
 6543TIP3    H143608   2.121   5.913  10.380
 6543TIP3    H243609   2.131   6.064  10.393
 6544TIP3   OH243610   1.902   6.295  10.457
 6544TIP3    H143611   1.960   6.269  10.383
 6544TIP3    H243612   1.950   6.374  10.485
 6545TIP3   OH243613   3.709   5.918   9.555
 6545TIP3    H143614   3.749   5.847   9.500
 6545TIP3    H243615   3.780   5.984   9.559
 6546TIP3   OH243616   1.940   5.924   9.868
 6546TIP3    H143617   1.846   5.939   9.850
 6546TIP3    H243618   1.983   5.970   9.793
 6547TIP3   OH243619   3.414   7.416  10.061
 6547TIP3    H143620   3.484   7.386  10.000
 6547TIP3    H243621   3.465   7.467  10.126
 6548TIP3   OH243622   1.936   5.791  10.695
 6548TIP3    H143623   1.868   5.768  10.762
 6548TIP3    H243624   1.888   5.856  10.641
 6549TIP3   OH243625   2.446   7.206  10.736
 6549TIP3    H143626   2.414   7.293  10.708
 6549TIP3    H243627   2.541   7.215  10.711
 6550TIP3   OH243628   3.106   7.488  -0.031
 6550TIP3    H143629   3.177   7.425  -0.054
 6550TIP3    H243630   3.147   7.518   0.052
 6551TIP3   OH243631   3.615   5.740  10.862
 6551TIP3    H143632   3.525   5.764  10.833
 6551TIP3    H243633   3.627   5.653  10.820
 6552TIP3   OH243634   2.188   7.530  10.741
 6552TIP3    H143635   2.116   7.581  10.702
 6552TIP3    H243636   2.155   7.511  10.830
 6553TIP3   OH243637   2.437   7.486  10.638
 6553TIP3    H143638   2.352   7.506  10.685
 6553TIP3    H243639   2.432   7.551  10.566
 6554TIP3   OH243640   2.906   7.478  10.565
 6554TIP3    H143641   2.864   7.535  10.499
 6554TIP3    H243642   2.922   7.543  10.638
 6555TIP3   OH243643   3.137   7.356  10.656
 6555TIP3    H143644   3.051   7.390  10.628
 6555TIP3    H243645   3.184   7.440  10.657
 6556TIP3   OH243646   3.401   7.519  10.685
 6556TIP3    H143647   3.389   7.613  10.663
 6556TIP3    H243648   3.420   7.480  10.598
 6557TIP3   OH243649   2.140   7.396  10.432
 6557TIP3    H143650   2.131   7.352  10.519
 6557TIP3    H243651   2.221   7.357  10.395
 6558TIP3   OH243652   2.349   7.267  10.294
 6558TIP3    H143653   2.328   7.177  10.324
 6558TIP3    H243654   2.430   7.285  10.346
 6559TIP3   OH243655   2.606   7.316  10.382
 6559TIP3    H143656   2.623   7.222  10.363
 6559TIP3    H243657   2.611   7.316  10.480
 6560TIP3   OH243658   2.951   5.880  10.301
 6560TIP3    H143659   2.883   5.817  10.328
 6560TIP3    H243660   3.006   5.827  10.242
 6561TIP3   OH243661   3.465   5.686  10.307
 6561TIP3    H143662   3.526   5.744  10.254
 6561TIP3    H243663   3.376   5.721  10.282
 6562TIP3   OH243664   3.631   5.811  10.132
 6562TIP3    H143665   3.700   5.753  10.092
 6562TIP3    H243666   3.682   5.894  10.144
 6563TIP3   OH243667   2.189   5.743  10.084
 6563TIP3    H143668   2.109   5.724  10.032
 6563TIP3    H243669   2.234   5.656  10.079
 6564TIP3   OH243670   2.064   5.718   9.656
 6564TIP3    H143671   2.114   5.783   9.603
 6564TIP3    H243672   2.009   5.775   9.711
 6565TIP3   OH243673   2.634   5.736  10.063
 6565TIP3    H143674   2.724   5.771  10.054
 6565TIP3    H243675   2.632   5.714  10.157
 6566TIP3   OH243676   3.207   5.737  10.226
 6566TIP3    H143677   3.200   5.749  10.130
 6566TIP3    H243678   3.168   5.648  10.239
 6567TIP3   OH243679   3.333   5.740   9.794
 6567TIP3    H143680   3.258   5.799   9.779
 6567TIP3    H243681   3.289   5.655   9.818
 6568TIP3   OH243682   2.054   7.313   9.761
 6568TIP3    H143683   1.987   7.311   9.691
 6568TIP3    H243684   2.056   7.409   9.776
 6569TIP3   OH243685   2.247   5.912   9.508
 6569TIP3    H143686   2.300   5.851   9.455
 6569TIP3    H243687   2.313   5.945   9.571
 6570TIP3   OH243688   2.748   5.936   9.749
 6570TIP3    H143689   2.775   5.879   9.822
 6570TIP3    H243690   2.758   6.023   9.793
 6571TIP3   OH243691   2.943   7.446   9.594
 6571TIP3    H143692   3.035   7.467   9.571
 6571TIP3    H243693   2.923   7.392   9.514
 6572TIP3   OH243694   3.612   7.394   9.866
 6572TIP3    H143695   3.594   7.316   9.808
 6572TIP3    H243696   3.607   7.468   9.801
 6573TIP3   OH243697   2.237   7.414   9.454
 6573TIP3    H143698   2.207   7.437   9.542
 6573TIP3    H243699   2.312   7.354   9.468
 6574TIP3   OH243700   4.983   6.658  10.068
 6574TIP3    H143701   4.980   6.756  10.068
 6574TIP3    H243702   4.909   6.634  10.010
 6575TIP3   OH243703   4.866   6.581  10.421
 6575TIP3    H143704   4.867   6.516  10.492
 6575TIP3    H243705   4.831   6.531  10.345
 6576TIP3   OH243706   4.103   6.550  10.574
 6576TIP3    H143707   4.111   6.481  10.643
 6576TIP3    H243708   4.177   6.607  10.597
 6577TIP3   OH243709   5.235   6.877  10.249
 6577TIP3    H143710   5.194   6.806  10.299
 6577TIP3    H243711   5.238   6.948  10.316
 6578TIP3   OH243712   4.195   6.996  10.423
 6578TIP3    H143713   4.165   6.907  10.394
 6578TIP3    H243714   4.290   6.978  10.432
 6579TIP3   OH243715   3.858   6.350   9.975
 6579TIP3    H143716   3.815   6.437   9.968
 6579TIP3    H243717   3.803   6.296   9.917
 6580TIP3   OH243718   3.931   6.573  10.191
 6580TIP3    H143719   3.959   6.490  10.234
 6580TIP3    H243720   3.999   6.584  10.123
 6581TIP3   OH243721   4.947   7.393  10.274
 6581TIP3    H143722   5.012   7.326  10.243
 6581TIP3    H243723   4.927   7.358  10.361
 6582TIP3   OH243724   4.704   6.822  10.472
 6582TIP3    H143725   4.737   6.761  10.404
 6582TIP3    H243726   4.787   6.839  10.520
 6583TIP3   OH243727   5.564   5.989  10.542
 6583TIP3    H143728   5.582   6.049  10.617
 6583TIP3    H243729   5.622   6.030  10.476
 6584TIP3   OH243730   5.018   6.269  10.501
 6584TIP3    H143731   5.038   6.174  10.502
 6584TIP3    H243732   5.010   6.283  10.405
 6585TIP3   OH243733   4.333   6.078  10.220
 6585TIP3    H143734   4.344   6.161  10.170
 6585TIP3    H243735   4.293   6.021  10.151
 6586TIP3   OH243736   5.107   6.085  10.057
 6586TIP3    H143737   5.171   6.054  10.125
 6586TIP3    H243738   5.163   6.144  10.006
 6587TIP3   OH243739   3.995   6.320  10.293
 6587TIP3    H143740   4.062   6.266  10.339
 6587TIP3    H243741   4.007   6.288  10.202
 6588TIP3   OH243742   4.510   6.475  10.227
 6588TIP3    H143743   4.579   6.417  10.265
 6588TIP3    H243744   4.460   6.410  10.175
 6589TIP3   OH243745   5.626   6.146  10.766
 6589TIP3    H143746   5.547   6.205  10.754
 6589TIP3    H243747   5.609   6.120  10.857
 6590TIP3   OH243748   4.225   5.966  10.620
 6590TIP3    H143749   4.196   6.027  10.549
 6590TIP3    H243750   4.160   5.989  10.690
 6591TIP3   OH243751   4.952   6.916   9.979
 6591TIP3    H143752   4.927   6.889   9.889
 6591TIP3    H243753   4.922   7.009   9.984
 6592TIP3   OH243754   4.475   6.733  10.652
 6592TIP3    H143755   4.404   6.799  10.670
 6592TIP3    H243756   4.545   6.792  10.619
 6593TIP3   OH243757   5.289   6.021  10.257
 6593TIP3    H143758   5.267   5.944  10.311
 6593TIP3    H243759   5.356   6.065  10.313
 6594TIP3   OH243760   4.179   6.155  10.425
 6594TIP3    H143761   4.243   6.223  10.458
 6594TIP3    H243762   4.233   6.113  10.353
 6595TIP3   OH243763   4.322   6.935  10.730
 6595TIP3    H143764   4.314   7.028  10.701
 6595TIP3    H243765   4.235   6.925  10.775
 6596TIP3   OH243766   3.928   6.893   9.809
 6596TIP3    H143767   3.904   6.929   9.722
 6596TIP3    H243768   3.937   6.975   9.862
 6597TIP3   OH243769   5.289   7.062  10.486
 6597TIP3    H143770   5.192   7.072  10.497
 6597TIP3    H243771   5.315   7.153  10.465
 6598TIP3   OH243772   5.319   5.893  10.628
 6598TIP3    H143773   5.246   5.955  10.613
 6598TIP3    H243774   5.391   5.930  10.573
 6599TIP3   OH243775   4.616   5.702  10.368
 6599TIP3    H143776   4.601   5.606  10.363
 6599TIP3    H243777   4.530   5.733  10.403
 6600TIP3   OH243778   5.114   7.240  10.144
 6600TIP3    H143779   5.157   7.168  10.093
 6600TIP3    H243780   5.160   7.318  10.105
 6601TIP3   OH243781   5.237   7.032   9.996
 6601TIP3    H143782   5.206   6.963   9.936
 6601TIP3    H243783   5.240   6.983  10.080
 6602TIP3   OH243784   5.401   6.889  10.843
 6602TIP3    H143785   5.414   6.830  10.766
 6602TIP3    H243786   5.422   6.977  10.806
 6603TIP3   OH243787   4.847   6.580   9.821
 6603TIP3    H143788   4.779   6.639   9.784
 6603TIP3    H243789   4.919   6.590   9.756
 6604TIP3   OH243790   4.857   6.439   9.522
 6604TIP3    H143791   4.927   6.437   9.589
 6604TIP3    H243792   4.887   6.366   9.466
 6605TIP3   OH243793   5.587   6.521  10.647
 6605TIP3    H143794   5.522   6.595  10.654
 6605TIP3    H243795   5.636   6.547  10.568
 6606TIP3   OH243796   5.193   6.601   9.916
 6606TIP3    H143797   5.118   6.626   9.975
 6606TIP3    H243798   5.241   6.534   9.968
 6607TIP3   OH243799   5.183   6.416  10.823
 6607TIP3    H143800   5.185   6.495  10.879
 6607TIP3    H243801   5.120   6.448  10.755
 6608TIP3   OH243802   4.354   6.668  10.105
 6608TIP3    H143803   4.322   6.628  10.020
 6608TIP3    H243804   4.415   6.599  10.139
 6609TIP3   OH243805   4.485   7.005  10.373
 6609TIP3    H143806   4.486   6.954  10.291
 6609TIP3    H243807   4.564   6.970  10.418
 6610TIP3   OH243808   4.386   6.543  10.471
 6610TIP3    H143809   4.441   6.553  10.391
 6610TIP3    H243810   4.426   6.608  10.534
 6611TIP3   OH243811   5.029   7.100  10.543
 6611TIP3    H143812   4.999   7.167  10.604
 6611TIP3    H243813   5.002   7.015  10.586
 6612TIP3   OH243814   4.494   7.006  10.931
 6612TIP3    H143815   4.446   7.059  10.996
 6612TIP3    H243816   4.420   6.974  10.876
 6613TIP3   OH243817   5.082   6.523   9.679
 6613TIP3    H143818   5.136   6.540   9.760
 6613TIP3    H243819   5.129   6.571   9.607
 6614TIP3   OH243820   4.175   6.602  10.862
 6614TIP3    H143821   4.180   6.668  10.932
 6614TIP3    H243822   4.083   6.609  10.834
 6615TIP3   OH243823   4.852   7.195  10.027
 6615TIP3    H143824   4.894   7.225  10.108
 6615TIP3    H243825   4.796   7.269  10.003
 6616TIP3   OH243826   5.453   5.695   9.672
 6616TIP3    H143827   5.358   5.706   9.695
 6616TIP3    H243828   5.473   5.779   9.627
 6617TIP3   OH243829   4.249   6.569   9.869
 6617TIP3    H143830   4.221   6.647   9.817
 6617TIP3    H243831   4.185   6.502   9.843
 6618TIP3   OH243832   5.566   7.129   9.509
 6618TIP3    H143833   5.581   7.224   9.523
 6618TIP3    H243834   5.658   7.099   9.507
 6619TIP3   OH243835   3.863   6.813  10.750
 6619TIP3    H143836   3.814   6.806  10.666
 6619TIP3    H243837   3.865   6.719  10.779
 6620TIP3   OH243838   3.836   7.087  10.434
 6620TIP3    H143839   3.932   7.074  10.433
 6620TIP3    H243840   3.828   7.167  10.488
 6621TIP3   OH243841   4.743   7.085  10.866
 6621TIP3    H143842   4.753   7.175  10.900
 6621TIP3    H243843   4.657   7.057  10.906
 6622TIP3   OH243844   4.801   7.486   9.869
 6622TIP3    H143845   4.788   7.478   9.773
 6622TIP3    H243846   4.799   7.582   9.885
 6623TIP3   OH243847   4.163   7.373  10.051
 6623TIP3    H143848   4.178   7.332  10.139
 6623TIP3    H243849   4.079   7.332  10.028
 6624TIP3   OH243850   5.104   7.408   9.567
 6624TIP3    H143851   5.151   7.333   9.524
 6624TIP3    H243852   5.109   7.381   9.662
 6625TIP3   OH243853   5.075   7.401   9.845
 6625TIP3    H143854   4.979   7.407   9.861
 6625TIP3    H243855   5.097   7.325   9.902
 6626TIP3   OH243856   4.088   6.938  10.848
 6626TIP3    H143857   4.108   6.906  10.936
 6626TIP3    H243858   3.998   6.905  10.828
 6627TIP3   OH243859   4.357   5.795  10.441
 6627TIP3    H143860   4.265   5.780  10.408
 6627TIP3    H243861   4.343   5.874  10.496
 6628TIP3   OH243862   4.820   5.767  10.784
 6628TIP3    H143863   4.857   5.719  10.860
 6628TIP3    H243864   4.723   5.748  10.798
 6629TIP3   OH243865   5.128   6.140  10.866
 6629TIP3    H143866   5.102   6.127  10.959
 6629TIP3    H243867   5.135   6.237  10.852
 6630TIP3   OH243868   5.221   6.629   9.464
 6630TIP3    H143869   5.222   6.607   9.368
 6630TIP3    H243870   5.310   6.669   9.467
 6631TIP3   OH243871   4.785   6.018   9.513
 6631TIP3    H143872   4.753   6.011   9.605
 6631TIP3    H243873   4.754   5.931   9.482
 6632TIP3   OH243874   4.364   6.290  10.571
 6632TIP3    H143875   4.292   6.289  10.637
 6632TIP3    H243876   4.359   6.381  10.533
 6633TIP3   OH243877   4.363   6.299  10.058
 6633TIP3    H143878   4.269   6.276  10.045
 6633TIP3    H243879   4.400   6.272   9.972
 6634TIP3   OH243880   4.915   6.352   9.936
 6634TIP3    H143881   4.876   6.434   9.898
 6634TIP3    H243882   4.983   6.334   9.869
 6635TIP3   OH243883   5.019   6.301  10.220
 6635TIP3    H143884   4.989   6.357  10.146
 6635TIP3    H243885   5.027   6.216  10.173
 6636TIP3   OH243886   4.124   6.317  10.742
 6636TIP3    H143887   4.136   6.354  10.832
 6636TIP3    H243888   4.089   6.229  10.761
 6637TIP3   OH243889   4.465   6.054   9.425
 6637TIP3    H143890   4.419   6.012   9.501
 6637TIP3    H243891   4.394   6.098   9.376
 6638TIP3   OH243892   3.795   6.024  10.139
 6638TIP3    H143893   3.864   6.020  10.209
 6638TIP3    H243894   3.839   5.988  10.060
 6639TIP3   OH243895   3.920   6.096   9.672
 6639TIP3    H143896   3.973   6.157   9.617
 6639TIP3    H243897   3.852   6.159   9.704
 6640TIP3   OH243898   4.942   6.457  10.682
 6640TIP3    H143899   4.977   6.391  10.618
 6640TIP3    H243900   4.888   6.402  10.742
 6641TIP3   OH243901   4.618   6.058  10.159
 6641TIP3    H143902   4.525   6.057  10.187
 6641TIP3    H243903   4.666   6.039  10.241
 6642TIP3   OH243904   4.099   6.211  10.046
 6642TIP3    H143905   4.011   6.227  10.006
 6642TIP3    H243906   4.127   6.127  10.005
 6643TIP3   OH243907   4.463   6.217   9.808
 6643TIP3    H143908   4.559   6.227   9.823
 6643TIP3    H243909   4.439   6.285   9.743
 6644TIP3   OH243910   5.060   5.980  10.485
 6644TIP3    H143911   4.989   5.986  10.553
 6644TIP3    H243912   5.009   5.954  10.406
 6645TIP3   OH243913   4.334   6.334   9.567
 6645TIP3    H143914   4.281   6.296   9.495
 6645TIP3    H243915   4.416   6.355   9.519
 6646TIP3   OH243916   4.746   6.332  10.347
 6646TIP3    H143917   4.806   6.280  10.294
 6646TIP3    H243918   4.732   6.277  10.425
 6647TIP3   OH243919   4.247   5.947   9.991
 6647TIP3    H143920   4.216   5.855   9.992
 6647TIP3    H243921   4.326   5.939   9.936
 6648TIP3   OH243922   4.610   6.165  10.588
 6648TIP3    H143923   4.527   6.216  10.595
 6648TIP3    H243924   4.666   6.200  10.659
 6649TIP3   OH243925   4.669   6.787   9.759
 6649TIP3    H143926   4.589   6.741   9.725
 6649TIP3    H243927   4.645   6.801   9.853
 6650TIP3   OH243928   5.391   6.702  10.640
 6650TIP3    H143929   5.444   6.755  10.578
 6650TIP3    H243930   5.304   6.709  10.595
 6651TIP3   OH243931   5.051   6.068   9.577
 6651TIP3    H143932   4.956   6.084   9.563
 6651TIP3    H243933   5.086   6.153   9.612
 6652TIP3   OH243934   4.819   6.815  10.874
 6652TIP3    H143935   4.786   6.772  10.955
 6652TIP3    H243936   4.788   6.906  10.885
 6653TIP3   OH243937   5.126   6.262   9.737
 6653TIP3    H143938   5.213   6.248   9.780
 6653TIP3    H243939   5.139   6.344   9.686
 6654TIP3   OH243940   4.181   6.728  10.339
 6654TIP3    H143941   4.247   6.718  10.268
 6654TIP3    H243942   4.186   6.642  10.384
 6655TIP3   OH243943   4.878   6.934   9.662
 6655TIP3    H143944   4.843   7.018   9.697
 6655TIP3    H243945   4.805   6.872   9.684
 6656TIP3   OH243946   3.875   6.570  10.864
 6656TIP3    H143947   3.896   6.526  10.948
 6656TIP3    H243948   3.817   6.506  10.819
 6657TIP3   OH243949   5.045   7.057  10.879
 6657TIP3    H143950   4.953   7.074  10.852
 6657TIP3    H243951   5.049   7.083  10.972
 6658TIP3   OH243952   5.616   6.273   9.715
 6658TIP3    H143953   5.558   6.248   9.640
 6658TIP3    H243954   5.623   6.369   9.691
 6659TIP3   OH243955   5.440   7.157   9.756
 6659TIP3    H143956   5.408   7.073   9.791
 6659TIP3    H243957   5.477   7.136   9.669
 6660TIP3   OH243958   5.166   6.638  10.467
 6660TIP3    H143959   5.072   6.618  10.455
 6660TIP3    H243960   5.208   6.564  10.421
 6661TIP3   OH243961   4.418   7.073  10.078
 6661TIP3    H143962   4.467   7.154  10.057
 6661TIP3    H243963   4.330   7.095  10.044
 6662TIP3   OH243964   3.994   6.556   9.535
 6662TIP3    H143965   4.052   6.623   9.576
 6662TIP3    H243966   3.905   6.587   9.558
 6663TIP3   OH243967   4.558   6.839  10.027
 6663TIP3    H143968   4.526   6.931  10.038
 6663TIP3    H243969   4.488   6.789  10.073
 6664TIP3   OH243970   4.602   7.260  10.672
 6664TIP3    H143971   4.651   7.338  10.643
 6664TIP3    H243972   4.665   7.218  10.733
 6665TIP3   OH243973   4.427   7.337   9.981
 6665TIP3    H143974   4.330   7.350   9.997
 6665TIP3    H243975   4.463   7.421  10.015
 6666TIP3   OH243976   4.956   6.856  10.628
 6666TIP3    H143977   4.924   6.839  10.718
 6666TIP3    H243978   5.020   6.785  10.615
 6667TIP3   OH243979   5.192   6.965   9.540
 6667TIP3    H143980   5.220   6.917   9.620
 6667TIP3    H243981   5.097   6.946   9.547
 6668TIP3   OH243982   5.214   7.341  10.860
 6668TIP3    H143983   5.168   7.273  10.810
 6668TIP3    H243984   5.254   7.396  10.789
 6669TIP3   OH243985   5.635   7.397   9.566
 6669TIP3    H143986   5.704   7.463   9.544
 6669TIP3    H243987   5.564   7.459   9.595
 6670TIP3   OH243988   4.045   6.044  10.818
 6670TIP3    H143989   3.953   6.076  10.814
 6670TIP3    H243990   4.038   5.959  10.863
 6671TIP3   OH243991   5.267   6.828   9.766
 6671TIP3    H143992   5.243   6.749   9.819
 6671TIP3    H243993   5.364   6.829   9.779
 6672TIP3   OH243994   4.007   7.219  10.662
 6672TIP3    H143995   4.036   7.126  10.663
 6672TIP3    H243996   4.035   7.248  10.750
 6673TIP3   OH243997   4.604   7.072   9.391
 6673TIP3    H143998   4.612   6.996   9.331
 6673TIP3    H243999   4.557   7.029   9.466
 6674TIP3   OH244000   4.479   7.024   9.636
 6674TIP3    H144001   4.508   6.973   9.713
 6674TIP3    H244002   4.489   7.117   9.669
 6675TIP3   OH244003   4.135   6.749   9.685
 6675TIP3    H144004   4.063   6.789   9.737
 6675TIP3    H244005   4.185   6.827   9.654
 6676TIP3   OH244006   4.914   6.016  10.712
 6676TIP3    H144007   4.986   6.022  10.776
 6676TIP3    H244008   4.876   5.928  10.730
 6677TIP3   OH244009   4.991   5.974   9.826
 6677TIP3    H144010   5.014   6.019   9.742
 6677TIP3    H244011   5.048   6.018   9.889
 6678TIP3   OH244012   4.760   7.190   9.705
 6678TIP3    H144013   4.679   7.244   9.712
 6678TIP3    H244014   4.814   7.246   9.647
 6679TIP3   OH244015   4.715   6.149   9.907
 6679TIP3    H144016   4.792   6.209   9.912
 6679TIP3    H244017   4.687   6.137  10.000
 6680TIP3   OH244018   4.784   6.261  10.819
 6680TIP3    H144019   4.775   6.307  10.903
 6680TIP3    H244020   4.828   6.177  10.837
 6681TIP3   OH244021   4.799   5.855   9.994
 6681TIP3    H144022   4.767   5.919  10.059
 6681TIP3    H244023   4.869   5.909   9.951
 6682TIP3   OH244024   4.501   7.293   9.709
 6682TIP3    H144025   4.510   7.375   9.653
 6682TIP3    H244026   4.473   7.330   9.795
 6683TIP3   OH244027   4.365   5.966   9.666
 6683TIP3    H144028   4.360   6.056   9.705
 6683TIP3    H244029   4.456   5.941   9.692
 6684TIP3   OH244030   5.392   6.070  10.858
 6684TIP3    H144031   5.295   6.074  10.867
 6684TIP3    H244032   5.407   6.024  10.775
 6685TIP3   OH244033   5.250   6.418  10.310
 6685TIP3    H144034   5.167   6.373  10.284
 6685TIP3    H244035   5.298   6.350  10.362
 6686TIP3   OH244036   4.188   7.010   9.570
 6686TIP3    H144037   4.255   7.072   9.602
 6686TIP3    H244038   4.240   6.963   9.502
 6687TIP3   OH244039   4.022   6.278   9.484
 6687TIP3    H144040   4.025   6.374   9.506
 6687TIP3    H244041   3.933   6.261   9.453
 6688TIP3   OH244042   5.356   7.342  10.477
 6688TIP3    H144043   5.346   7.412  10.409
 6688TIP3    H244044   5.452   7.350  10.494
 6689TIP3   OH244045   4.103   5.756  10.360
 6689TIP3    H144046   4.086   5.757  10.263
 6689TIP3    H244047   4.064   5.670  10.384
 6690TIP3   OH244048   3.999   7.149   9.974
 6690TIP3    H144049   3.914   7.193   9.968
 6690TIP3    H244050   4.047   7.193   9.903
 6691TIP3   OH244051   4.804   7.257   9.403
 6691TIP3    H144052   4.733   7.191   9.424
 6691TIP3    H244053   4.875   7.196   9.378
 6692TIP3   OH244054   5.259   7.234   9.423
 6692TIP3    H144055   5.286   7.154   9.471
 6692TIP3    H244056   5.335   7.250   9.365
 6693TIP3   OH244057   4.346   6.825   9.402
 6693TIP3    H144058   4.360   6.750   9.461
 6693TIP3    H244059   4.422   6.813   9.341
 6694TIP3   OH244060   4.890   6.936   9.381
 6694TIP3    H144061   4.863   6.944   9.474
 6694TIP3    H244062   4.871   6.841   9.366
 6695TIP3   OH244063   5.151   6.775  10.865
 6695TIP3    H144064   5.231   6.832  10.870
 6695TIP3    H244065   5.083   6.841  10.884
 6696TIP3   OH244066   4.467   6.627   9.647
 6696TIP3    H144067   4.416   6.573   9.709
 6696TIP3    H244068   4.497   6.560   9.582
 6697TIP3   OH244069   4.394   6.422  10.864
 6697TIP3    H144070   4.329   6.488  10.893
 6697TIP3    H244071   4.432   6.458  10.783
 6698TIP3   OH244072   4.575   6.450   9.466
 6698TIP3    H144073   4.560   6.441   9.369
 6698TIP3    H244074   4.672   6.454   9.473
 6699TIP3   OH244075   5.473   6.721   9.417
 6699TIP3    H144076   5.495   6.649   9.355
 6699TIP3    H244077   5.522   6.796   9.382
 6700TIP3   OH244078   4.400   6.187  10.950
 6700TIP3    H144079   4.454   6.116  10.912
 6700TIP3    H244080   4.433   6.265  10.899
 6701TIP3   OH244081   4.472   5.985  10.737
 6701TIP3    H144082   4.525   6.030  10.667
 6701TIP3    H244083   4.384   5.974  10.694
 6702TIP3   OH244084   4.630   6.526  10.756
 6702TIP3    H144085   4.707   6.516  10.700
 6702TIP3    H244086   4.593   6.612  10.729
 6703TIP3   OH244087   4.559   5.731  10.768
 6703TIP3    H144088   4.533   5.825  10.775
 6703TIP3    H244089   4.479   5.689  10.733
 6704TIP3   OH244090   4.556   7.519   9.575
 6704TIP3    H144091   4.654   7.528   9.581
 6704TIP3    H244092   4.542   7.577   9.500
 6705TIP3   OH244093   3.912   6.976   9.521
 6705TIP3    H144094   4.009   6.986   9.539
 6705TIP3    H244095   3.917   6.912   9.446
 6706TIP3   OH244096   3.794   7.513  10.014
 6706TIP3    H144097   3.719   7.465   9.971
 6706TIP3    H244098   3.819   7.450  10.084
 6707TIP3   OH244099   3.874   7.328  10.205
 6707TIP3    H144100   3.838   7.241  10.226
 6707TIP3    H244101   3.896   7.362  10.294
 6708TIP3   OH244102   5.628   7.407  10.501
 6708TIP3    H144103   5.632   7.425  10.596
 6708TIP3    H244104   5.697   7.466  10.468
 6709TIP3   OH244105   5.587   7.368  10.791
 6709TIP3    H144106   5.538   7.292  10.753
 6709TIP3    H244107   5.636   7.325  10.861
 6710TIP3   OH244108   5.558   6.778   9.806
 6710TIP3    H144109   5.648   6.812   9.820
 6710TIP3    H244110   5.558   6.701   9.867
 6711TIP3   OH244111   5.596   6.581   9.989
 6711TIP3    H144112   5.521   6.532  10.029
 6711TIP3    H244113   5.655   6.593  10.066
 6712TIP3   OH244114   5.572   6.849  10.490
 6712TIP3    H144115   5.652   6.811  10.452
 6712TIP3    H244116   5.586   6.944  10.471
 6713TIP3   OH244117   5.425   7.142  10.718
 6713TIP3    H144118   5.357   7.173  10.779
 6713TIP3    H244119   5.373   7.100  10.646
 6714TIP3   OH244120   5.627   6.568   9.652
 6714TIP3    H144121   5.579   6.584   9.567
 6714TIP3    H244122   5.611   6.649   9.702
 6715TIP3   OH244123   5.445   6.272   9.489
 6715TIP3    H144124   5.476   6.347   9.431
 6715TIP3    H244125   5.445   6.198   9.427
 6716TIP3   OH244126   5.379   6.428  10.049
 6716TIP3    H144127   5.364   6.332  10.044
 6716TIP3    H244128   5.347   6.448  10.139
 6717TIP3   OH244129   3.880   6.638  10.455
 6717TIP3    H144130   3.897   6.628  10.358
 6717TIP3    H244131   3.969   6.617  10.491
 6718TIP3   OH244132   5.390   6.026   9.390
 6718TIP3    H144133   5.447   5.990   9.460
 6718TIP3    H244134   5.302   5.993   9.411
 6719TIP3   OH244135   5.343   6.186   9.889
 6719TIP3    H144136   5.374   6.094   9.906
 6719TIP3    H244137   5.426   6.227   9.858
 6720TIP3   OH244138   5.410   6.241  10.437
 6720TIP3    H144139   5.506   6.264  10.437
 6720TIP3    H244140   5.391   6.255  10.531
 6721TIP3   OH244141   5.417   6.315  10.715
 6721TIP3    H144142   5.328   6.342  10.748
 6721TIP3    H244143   5.459   6.401  10.694
 6722TIP3   OH244144   5.413   5.915   9.899
 6722TIP3    H144145   5.435   5.872   9.984
 6722TIP3    H244146   5.354   5.851   9.855
 6723TIP3   OH244147   3.960   5.995  10.357
 6723TIP3    H144148   4.007   5.913  10.380
 6723TIP3    H244149   4.017   6.064  10.393
 6724TIP3   OH244150   3.789   6.294  10.457
 6724TIP3    H144151   3.846   6.270  10.382
 6724TIP3    H244152   3.835   6.375  10.485
 6725TIP3   OH244153   5.595   5.915   9.557
 6725TIP3    H144154   5.635   5.847   9.500
 6725TIP3    H244155   5.662   5.985   9.558
 6726TIP3   OH244156   3.826   5.925   9.867
 6726TIP3    H144157   3.732   5.939   9.850
 6726TIP3    H244158   3.867   5.971   9.793
 6727TIP3   OH244159   5.300   7.416  10.062
 6727TIP3    H144160   5.368   7.386   9.999
 6727TIP3    H244161   5.351   7.466  10.126
 6728TIP3   OH244162   3.822   5.792  10.696
 6728TIP3    H144163   3.753   5.769  10.762
 6728TIP3    H244164   3.774   5.856  10.641
 6729TIP3   OH244165   4.332   7.206  10.736
 6729TIP3    H144166   4.300   7.293  10.708
 6729TIP3    H244167   4.426   7.215  10.711
 6730TIP3   OH244168   4.991   7.488  -0.031
 6730TIP3    H144169   5.063   7.425  -0.054
 6730TIP3    H244170   5.032   7.518   0.052
 6731TIP3   OH244171   5.500   5.740  10.862
 6731TIP3    H144172   5.411   5.764  10.833
 6731TIP3    H244173   5.512   5.653  10.820
 6732TIP3   OH244174   4.074   7.529  10.741
 6732TIP3    H144175   4.003   7.581  10.702
 6732TIP3    H244176   4.041   7.510  10.830
 6733TIP3   OH244177   4.321   7.485  10.638
 6733TIP3    H144178   4.237   7.506  10.685
 6733TIP3    H244179   4.318   7.549  10.565
 6734TIP3   OH244180   4.794   7.479  10.565
 6734TIP3    H144181   4.749   7.535  10.499
 6734TIP3    H244182   4.807   7.544  10.638
 6735TIP3   OH244183   5.023   7.356  10.656
 6735TIP3    H144184   4.936   7.390  10.628
 6735TIP3    H244185   5.070   7.440  10.657
 6736TIP3   OH244186   5.287   7.519  10.685
 6736TIP3    H144187   5.274   7.613  10.663
 6736TIP3    H244188   5.305   7.480  10.598
 6737TIP3   OH244189   4.024   7.396  10.432
 6737TIP3    H144190   4.016   7.352  10.520
 6737TIP3    H244191   4.105   7.357  10.395
 6738TIP3   OH244192   4.231   7.267  10.298
 6738TIP3    H144193   4.215   7.174  10.322
 6738TIP3    H244194   4.316   7.283  10.344
 6739TIP3   OH244195   4.492   7.317  10.384
 6739TIP3    H144196   4.506   7.223  10.360
 6739TIP3    H244197   4.496   7.312  10.481
 6740TIP3   OH244198   4.836   5.880  10.300
 6740TIP3    H144199   4.769   5.817  10.328
 6740TIP3    H244200   4.891   5.826  10.242
 6741TIP3   OH244201   5.350   5.686  10.307
 6741TIP3    H144202   5.411   5.744  10.254
 6741TIP3    H244203   5.262   5.721  10.282
 6742TIP3   OH244204   5.516   5.811  10.133
 6742TIP3    H144205   5.584   5.753  10.092
 6742TIP3    H244206   5.568   5.894  10.144
 6743TIP3   OH244207   4.074   5.743  10.084
 6743TIP3    H144208   3.994   5.724  10.032
 6743TIP3    H244209   4.119   5.656  10.079
 6744TIP3   OH244210   3.950   5.718   9.656
 6744TIP3    H144211   4.000   5.783   9.603
 6744TIP3    H244212   3.894   5.776   9.711
 6745TIP3   OH244213   4.519   5.736  10.064
 6745TIP3    H144214   4.609   5.771  10.054
 6745TIP3    H244215   4.518   5.714  10.157
 6746TIP3   OH244216   5.093   5.737  10.225
 6746TIP3    H144217   5.086   5.749  10.130
 6746TIP3    H244218   5.054   5.647  10.238
 6747TIP3   OH244219   5.218   5.740   9.794
 6747TIP3    H144220   5.143   5.799   9.779
 6747TIP3    H244221   5.175   5.655   9.818
 6748TIP3   OH244222   3.941   7.313   9.761
 6748TIP3    H144223   3.875   7.311   9.689
 6748TIP3    H244224   3.941   7.409   9.777
 6749TIP3   OH244225   4.132   5.912   9.508
 6749TIP3    H144226   4.186   5.851   9.455
 6749TIP3    H244227   4.199   5.945   9.571
 6750TIP3   OH244228   4.635   5.936   9.748
 6750TIP3    H144229   4.661   5.879   9.822
 6750TIP3    H244230   4.644   6.023   9.793
 6751TIP3   OH244231   4.829   7.445   9.592
 6751TIP3    H144232   4.922   7.466   9.570
 6751TIP3    H244233   4.807   7.391   9.513
 6752TIP3   OH244234   5.498   7.394   9.865
 6752TIP3    H144235   5.479   7.316   9.808
 6752TIP3    H244236   5.492   7.468   9.801
 6753TIP3   OH244237   4.120   7.412   9.454
 6753TIP3    H144238   4.094   7.438   9.544
 6753TIP3    H244239   4.199   7.356   9.469
 6754TIP3   OH244240   6.869   6.657  10.068
 6754TIP3    H144241   6.865   6.756  10.068
 6754TIP3    H244242   6.794   6.634  10.010
 6755TIP3   OH244243   6.752   6.581  10.420
 6755TIP3    H144244   6.752   6.517  10.492
 6755TIP3    H244245   6.717   6.531  10.345
 6756TIP3   OH244246   5.989   6.550  10.574
 6756TIP3    H144247   5.997   6.481  10.643
 6756TIP3    H244248   6.063   6.607  10.597
 6757TIP3   OH244249   7.121   6.877  10.249
 6757TIP3    H144250   7.080   6.805  10.299
 6757TIP3    H244251   7.124   6.948  10.316
 6758TIP3   OH244252   6.080   6.995  10.423
 6758TIP3    H144253   6.050   6.907  10.393
 6758TIP3    H244254   6.176   6.978  10.432
 6759TIP3   OH244255   5.743   6.350   9.974
 6759TIP3    H144256   5.701   6.437   9.966
 6759TIP3    H244257   5.689   6.297   9.915
 6760TIP3   OH244258   5.816   6.573  10.191
 6760TIP3    H144259   5.844   6.490  10.234
 6760TIP3    H244260   5.884   6.584  10.122
 6761TIP3   OH244261   6.833   7.393  10.274
 6761TIP3    H144262   6.898   7.326  10.243
 6761TIP3    H244263   6.813   7.358  10.361
 6762TIP3   OH244264   6.589   6.822  10.472
 6762TIP3    H144265   6.623   6.761  10.404
 6762TIP3    H244266   6.672   6.839  10.520
 6763TIP3   OH244267   7.450   5.990  10.542
 6763TIP3    H144268   7.468   6.049  10.617
 6763TIP3    H244269   7.509   6.030  10.476
 6764TIP3   OH244270   6.904   6.269  10.501
 6764TIP3    H144271   6.924   6.174  10.502
 6764TIP3    H244272   6.896   6.283  10.405
 6765TIP3   OH244273   6.218   6.078  10.220
 6765TIP3    H144274   6.230   6.161  10.170
 6765TIP3    H244275   6.179   6.021  10.151
 6766TIP3   OH244276   6.992   6.086  10.058
 6766TIP3    H144277   7.056   6.055  10.125
 6766TIP3    H244278   7.049   6.144  10.006
 6767TIP3   OH244279   5.880   6.320  10.293
 6767TIP3    H144280   5.947   6.266  10.339
 6767TIP3    H244281   5.892   6.288  10.202
 6768TIP3   OH244282   6.396   6.475  10.227
 6768TIP3    H144283   6.464   6.417  10.265
 6768TIP3    H244284   6.345   6.410  10.175
 6769TIP3   OH244285   7.511   6.147  10.765
 6769TIP3    H144286   7.432   6.205  10.754
 6769TIP3    H244287   7.495   6.120  10.857
 6770TIP3   OH244288   6.111   5.967  10.620
 6770TIP3    H144289   6.082   6.027  10.549
 6770TIP3    H244290   6.045   5.989  10.690
 6771TIP3   OH244291   6.838   6.916   9.979
 6771TIP3    H144292   6.813   6.889   9.889
 6771TIP3    H244293   6.808   7.009   9.984
 6772TIP3   OH244294   6.361   6.733  10.652
 6772TIP3    H144295   6.290   6.799  10.670
 6772TIP3    H244296   6.431   6.792  10.619
 6773TIP3   OH244297   7.175   6.021  10.257
 6773TIP3    H144298   7.152   5.945  10.311
 6773TIP3    H244299   7.242   6.065  10.313
 6774TIP3   OH244300   6.064   6.156  10.424
 6774TIP3    H144301   6.128   6.223  10.458
 6774TIP3    H244302   6.118   6.113  10.353
 6775TIP3   OH244303   6.207   6.935  10.730
 6775TIP3    H144304   6.200   7.028  10.701
 6775TIP3    H244305   6.120   6.925  10.775
 6776TIP3   OH244306   5.813   6.892   9.807
 6776TIP3    H144307   5.788   6.928   9.720
 6776TIP3    H244308   5.822   6.974   9.860
 6777TIP3   OH244309   7.174   7.062  10.486
 6777TIP3    H144310   7.077   7.072  10.497
 6777TIP3    H244311   7.201   7.153  10.465
 6778TIP3   OH244312   7.203   5.894  10.628
 6778TIP3    H144313   7.130   5.956  10.613
 6778TIP3    H244314   7.276   5.929  10.574
 6779TIP3   OH244315   6.502   5.702  10.369
 6779TIP3    H144316   6.487   5.606  10.363
 6779TIP3    H244317   6.415   5.733  10.403
 6780TIP3   OH244318   7.000   7.240  10.143
 6780TIP3    H144319   7.043   7.168  10.093
 6780TIP3    H244320   7.046   7.318  10.105
 6781TIP3   OH244321   7.123   7.032   9.996
 6781TIP3    H144322   7.092   6.963   9.936
 6781TIP3    H244323   7.125   6.983  10.080
 6782TIP3   OH244324   7.287   6.889  10.843
 6782TIP3    H144325   7.299   6.831  10.766
 6782TIP3    H244326   7.308   6.977  10.805
 6783TIP3   OH244327   6.733   6.580   9.821
 6783TIP3    H144328   6.664   6.639   9.785
 6783TIP3    H244329   6.804   6.590   9.755
 6784TIP3   OH244330   6.742   6.439   9.522
 6784TIP3    H144331   6.812   6.437   9.589
 6784TIP3    H244332   6.772   6.366   9.466
 6785TIP3   OH244333   7.474   6.521  10.648
 6785TIP3    H144334   7.408   6.594  10.655
 6785TIP3    H244335   7.521   6.548  10.568
 6786TIP3   OH244336   7.080   6.601   9.913
 6786TIP3    H144337   7.005   6.626   9.973
 6786TIP3    H244338   7.127   6.534   9.967
 6787TIP3   OH244339   7.070   6.417  10.823
 6787TIP3    H144340   7.071   6.495  10.879
 6787TIP3    H244341   7.006   6.448  10.755
 6788TIP3   OH244342   6.239   6.668  10.105
 6788TIP3    H144343   6.207   6.628  10.020
 6788TIP3    H244344   6.301   6.599  10.139
 6789TIP3   OH244345   6.371   7.005  10.373
 6789TIP3    H144346   6.371   6.954  10.291
 6789TIP3    H244347   6.450   6.970  10.418
 6790TIP3   OH244348   6.272   6.543  10.472
 6790TIP3    H144349   6.326   6.552  10.391
 6790TIP3    H244350   6.312   6.608  10.534
 6791TIP3   OH244351   6.915   7.100  10.543
 6791TIP3    H144352   6.884   7.167  10.604
 6791TIP3    H244353   6.888   7.015  10.586
 6792TIP3   OH244354   6.380   7.006  10.931
 6792TIP3    H144355   6.332   7.059  10.996
 6792TIP3    H244356   6.305   6.974  10.876
 6793TIP3   OH244357   6.967   6.523   9.679
 6793TIP3    H144358   7.022   6.540   9.760
 6793TIP3    H244359   7.012   6.572   9.608
 6794TIP3   OH244360   6.061   6.602  10.862
 6794TIP3    H144361   6.066   6.668  10.932
 6794TIP3    H244362   5.969   6.609  10.834
 6795TIP3   OH244363   6.737   7.195  10.027
 6795TIP3    H144364   6.780   7.225  10.108
 6795TIP3    H244365   6.682   7.269  10.003
 6796TIP3   OH244366   7.340   5.692   9.674
 6796TIP3    H144367   7.245   5.705   9.695
 6796TIP3    H244368   7.360   5.776   9.628
 6797TIP3   OH244369   6.135   6.568   9.869
 6797TIP3    H144370   6.107   6.647   9.817
 6797TIP3    H244371   6.070   6.502   9.843
 6798TIP3   OH244372   7.451   7.129   9.507
 6798TIP3    H144373   7.467   7.224   9.523
 6798TIP3    H244374   7.543   7.098   9.506
 6799TIP3   OH244375   5.748   6.813  10.750
 6799TIP3    H144376   5.699   6.806  10.666
 6799TIP3    H244377   5.751   6.719  10.779
 6800TIP3   OH244378   5.722   7.087  10.434
 6800TIP3    H144379   5.817   7.074  10.433
 6800TIP3    H244380   5.714   7.167  10.488
 6801TIP3   OH244381   6.628   7.085  10.866
 6801TIP3    H144382   6.639   7.175  10.900
 6801TIP3    H244383   6.542   7.057  10.906
 6802TIP3   OH244384   6.686   7.486   9.869
 6802TIP3    H144385   6.674   7.479   9.773
 6802TIP3    H244386   6.685   7.582   9.885
 6803TIP3   OH244387   6.049   7.373  10.051
 6803TIP3    H144388   6.064   7.332  10.139
 6803TIP3    H244389   5.964   7.332  10.028
 6804TIP3   OH244390   6.991   7.406   9.567
 6804TIP3    H144391   7.037   7.331   9.524
 6804TIP3    H244392   6.995   7.381   9.661
 6805TIP3   OH244393   6.961   7.401   9.845
 6805TIP3    H144394   6.864   7.407   9.861
 6805TIP3    H244395   6.983   7.325   9.902
 6806TIP3   OH244396   5.974   6.938  10.848
 6806TIP3    H144397   5.994   6.906  10.936
 6806TIP3    H244398   5.884   6.905  10.828
 6807TIP3   OH244399   6.242   5.794  10.441
 6807TIP3    H144400   6.151   5.780  10.409
 6807TIP3    H244401   6.229   5.874  10.496
 6808TIP3   OH244402   6.705   5.766  10.784
 6808TIP3    H144403   6.744   5.719  10.859
 6808TIP3    H244404   6.608   5.749  10.798
 6809TIP3   OH244405   7.013   6.140  10.866
 6809TIP3    H144406   6.988   6.127  10.959
 6809TIP3    H244407   7.021   6.237  10.852
 6810TIP3   OH244408   7.111   6.626   9.464
 6810TIP3    H144409   7.108   6.607   9.368
 6810TIP3    H244410   7.197   6.671   9.467
 6811TIP3   OH244411   6.670   6.018   9.513
 6811TIP3    H144412   6.638   6.011   9.605
 6811TIP3    H244413   6.639   5.931   9.482
 6812TIP3   OH244414   6.250   6.290  10.571
 6812TIP3    H144415   6.177   6.289  10.637
 6812TIP3    H244416   6.245   6.381  10.533
 6813TIP3   OH244417   6.248   6.299  10.058
 6813TIP3    H144418   6.154   6.276  10.045
 6813TIP3    H244419   6.286   6.272   9.972
 6814TIP3   OH244420   6.800   6.352   9.936
 6814TIP3    H144421   6.762   6.434   9.898
 6814TIP3    H244422   6.869   6.333   9.869
 6815TIP3   OH244423   6.905   6.301  10.220
 6815TIP3    H144424   6.875   6.357  10.146
 6815TIP3    H244425   6.913   6.216  10.173
 6816TIP3   OH244426   6.010   6.317  10.742
 6816TIP3    H144427   6.021   6.354  10.832
 6816TIP3    H244428   5.974   6.229  10.761
 6817TIP3   OH244429   6.351   6.054   9.424
 6817TIP3    H144430   6.305   6.012   9.500
 6817TIP3    H244431   6.280   6.098   9.376
 6818TIP3   OH244432   5.680   6.024  10.140
 6818TIP3    H144433   5.749   6.020  10.209
 6818TIP3    H244434   5.725   5.988  10.061
 6819TIP3   OH244435   5.808   6.097   9.674
 6819TIP3    H144436   5.857   6.157   9.616
 6819TIP3    H244437   5.738   6.160   9.704
 6820TIP3   OH244438   6.827   6.457  10.682
 6820TIP3    H144439   6.862   6.391  10.618
 6820TIP3    H244440   6.774   6.403  10.742
 6821TIP3   OH244441   6.504   6.058  10.159
 6821TIP3    H144442   6.410   6.057  10.188
 6821TIP3    H244443   6.552   6.039  10.241
 6822TIP3   OH244444   5.984   6.211  10.045
 6822TIP3    H144445   5.896   6.227  10.006
 6822TIP3    H244446   6.013   6.127  10.005
 6823TIP3   OH244447   6.348   6.217   9.808
 6823TIP3    H144448   6.444   6.228   9.823
 6823TIP3    H244449   6.325   6.285   9.743
 6824TIP3   OH244450   6.945   5.979  10.485
 6824TIP3    H144451   6.874   5.987  10.553
 6824TIP3    H244452   6.895   5.954  10.406
 6825TIP3   OH244453   6.220   6.334   9.567
 6825TIP3    H144454   6.165   6.297   9.495
 6825TIP3    H244455   6.301   6.355   9.519
 6826TIP3   OH244456   6.631   6.332  10.347
 6826TIP3    H144457   6.692   6.280  10.294
 6826TIP3    H244458   6.617   6.277  10.425
 6827TIP3   OH244459   6.133   5.947   9.991
 6827TIP3    H144460   6.101   5.855   9.992
 6827TIP3    H244461   6.212   5.939   9.936
 6828TIP3   OH244462   6.495   6.164  10.588
 6828TIP3    H144463   6.413   6.216  10.595
 6828TIP3    H244464   6.551   6.200  10.659
 6829TIP3   OH244465   6.555   6.787   9.759
 6829TIP3    H144466   6.474   6.741   9.725
 6829TIP3    H244467   6.531   6.801   9.853
 6830TIP3   OH244468   7.276   6.702  10.640
 6830TIP3    H144469   7.329   6.756  10.578
 6830TIP3    H244470   7.189   6.709  10.595
 6831TIP3   OH244471   6.937   6.068   9.576
 6831TIP3    H144472   6.842   6.084   9.563
 6831TIP3    H244473   6.971   6.153   9.612
 6832TIP3   OH244474   6.704   6.815  10.874
 6832TIP3    H144475   6.671   6.772  10.955
 6832TIP3    H244476   6.674   6.906  10.885
 6833TIP3   OH244477   7.010   6.262   9.737
 6833TIP3    H144478   7.098   6.248   9.780
 6833TIP3    H244479   7.022   6.344   9.687
 6834TIP3   OH244480   6.066   6.728  10.339
 6834TIP3    H144481   6.132   6.718  10.267
 6834TIP3    H244482   6.071   6.642  10.385
 6835TIP3   OH244483   6.763   6.934   9.662
 6835TIP3    H144484   6.729   7.018   9.697
 6835TIP3    H244485   6.690   6.872   9.684
 6836TIP3   OH244486   5.762   6.570  10.864
 6836TIP3    H144487   5.782   6.526  10.948
 6836TIP3    H244488   5.703   6.506  10.819
 6837TIP3   OH244489   6.930   7.057  10.879
 6837TIP3    H144490   6.839   7.074  10.852
 6837TIP3    H244491   6.935   7.082  10.972
 6838TIP3   OH244492   7.499   6.273   9.717
 6838TIP3    H144493   7.443   6.246   9.642
 6838TIP3    H244494   7.509   6.368   9.693
 6839TIP3   OH244495   7.326   7.157   9.755
 6839TIP3    H144496   7.293   7.073   9.791
 6839TIP3    H244497   7.363   7.135   9.668
 6840TIP3   OH244498   7.052   6.638  10.467
 6840TIP3    H144499   6.958   6.618  10.455
 6840TIP3    H244500   7.094   6.563  10.421
 6841TIP3   OH244501   6.303   7.073  10.078
 6841TIP3    H144502   6.353   7.154  10.057
 6841TIP3    H244503   6.215   7.095  10.044
 6842TIP3   OH244504   5.886   6.555   9.542
 6842TIP3    H144505   5.938   6.628   9.578
 6842TIP3    H244506   5.793   6.583   9.553
 6843TIP3   OH244507   6.443   6.839  10.027
 6843TIP3    H144508   6.411   6.931  10.038
 6843TIP3    H244509   6.373   6.789  10.073
 6844TIP3   OH244510   6.488   7.260  10.672
 6844TIP3    H144511   6.537   7.338  10.643
 6844TIP3    H244512   6.550   7.218  10.733
 6845TIP3   OH244513   6.312   7.337   9.981
 6845TIP3    H144514   6.216   7.350   9.997
 6845TIP3    H244515   6.349   7.421  10.015
 6846TIP3   OH244516   6.842   6.856  10.628
 6846TIP3    H144517   6.809   6.839  10.718
 6846TIP3    H244518   6.906   6.785  10.615
 6847TIP3   OH244519   7.077   6.966   9.541
 6847TIP3    H144520   7.106   6.917   9.621
 6847TIP3    H244521   6.981   6.946   9.548
 6848TIP3   OH244522   7.100   7.340  10.860
 6848TIP3    H144523   7.052   7.273  10.809
 6848TIP3    H244524   7.140   7.396  10.789
 6849TIP3   OH244525   7.521   7.397   9.566
 6849TIP3    H144526   7.590   7.463   9.545
 6849TIP3    H244527   7.450   7.459   9.594
 6850TIP3   OH244528   5.931   6.044  10.818
 6850TIP3    H144529   5.839   6.076  10.814
 6850TIP3    H244530   5.924   5.959  10.863
 6851TIP3   OH244531   7.153   6.828   9.765
 6851TIP3    H144532   7.129   6.749   9.818
 6851TIP3    H244533   7.248   6.832   9.782
 6852TIP3   OH244534   5.893   7.219  10.662
 6852TIP3    H144535   5.922   7.126  10.663
 6852TIP3    H244536   5.920   7.248  10.750
 6853TIP3   OH244537   6.489   7.072   9.391
 6853TIP3    H144538   6.498   6.996   9.331
 6853TIP3    H244539   6.443   7.029   9.466
 6854TIP3   OH244540   6.364   7.024   9.636
 6854TIP3    H144541   6.394   6.973   9.713
 6854TIP3    H244542   6.375   7.117   9.669
 6855TIP3   OH244543   6.021   6.750   9.686
 6855TIP3    H144544   5.946   6.788   9.736
 6855TIP3    H244545   6.070   6.828   9.655
 6856TIP3   OH244546   6.800   6.016  10.712
 6856TIP3    H144547   6.871   6.022  10.776
 6856TIP3    H244548   6.762   5.928  10.730
 6857TIP3   OH244549   6.876   5.974   9.825
 6857TIP3    H144550   6.900   6.019   9.742
 6857TIP3    H244551   6.934   6.018   9.888
 6858TIP3   OH244552   6.646   7.190   9.705
 6858TIP3    H144553   6.564   7.244   9.713
 6858TIP3    H244554   6.700   7.246   9.647
 6859TIP3   OH244555   6.600   6.149   9.907
 6859TIP3    H144556   6.678   6.209   9.912
 6859TIP3    H244557   6.573   6.137  10.000
 6860TIP3   OH244558   6.669   6.261  10.819
 6860TIP3    H144559   6.661   6.307  10.903
 6860TIP3    H244560   6.713   6.177  10.837
 6861TIP3   OH244561   6.686   5.854   9.994
 6861TIP3    H144562   6.652   5.920  10.057
 6861TIP3    H244563   6.755   5.909   9.950
 6862TIP3   OH244564   6.387   7.293   9.709
 6862TIP3    H144565   6.395   7.375   9.653
 6862TIP3    H244566   6.359   7.330   9.795
 6863TIP3   OH244567   6.251   5.966   9.666
 6863TIP3    H144568   6.245   6.056   9.705
 6863TIP3    H244569   6.341   5.941   9.692
 6864TIP3   OH244570   7.278   6.070  10.858
 6864TIP3    H144571   7.181   6.074  10.866
 6864TIP3    H244572   7.293   6.024  10.775
 6865TIP3   OH244573   7.135   6.418  10.310
 6865TIP3    H144574   7.053   6.373  10.284
 6865TIP3    H244575   7.184   6.350  10.363
 6866TIP3   OH244576   6.074   7.010   9.570
 6866TIP3    H144577   6.141   7.072   9.602
 6866TIP3    H244578   6.126   6.963   9.502
 6867TIP3   OH244579   5.906   6.278   9.484
 6867TIP3    H144580   5.909   6.375   9.504
 6867TIP3    H244581   5.816   6.265   9.453
 6868TIP3   OH244582   7.241   7.342  10.477
 6868TIP3    H144583   7.232   7.412  10.409
 6868TIP3    H244584   7.337   7.350  10.494
 6869TIP3   OH244585   5.989   5.756  10.360
 6869TIP3    H144586   5.971   5.757  10.263
 6869TIP3    H244587   5.949   5.670  10.384
 6870TIP3   OH244588   5.885   7.149   9.974
 6870TIP3    H144589   5.799   7.193   9.968
 6870TIP3    H244590   5.932   7.194   9.903
 6871TIP3   OH244591   6.689   7.257   9.403
 6871TIP3    H144592   6.619   7.191   9.424
 6871TIP3    H244593   6.760   7.197   9.378
 6872TIP3   OH244594   7.144   7.231   9.421
 6872TIP3    H144595   7.173   7.153   9.472
 6872TIP3    H244596   7.220   7.252   9.366
 6873TIP3   OH244597   6.232   6.825   9.402
 6873TIP3    H144598   6.246   6.750   9.461
 6873TIP3    H244599   6.307   6.813   9.341
 6874TIP3   OH244600   6.776   6.937   9.381
 6874TIP3    H144601   6.748   6.944   9.474
 6874TIP3    H244602   6.757   6.841   9.366
 6875TIP3   OH244603   7.036   6.775  10.865
 6875TIP3    H144604   7.116   6.832  10.870
 6875TIP3    H244605   6.968   6.841  10.884
 6876TIP3   OH244606   6.353   6.627   9.648
 6876TIP3    H144607   6.301   6.573   9.709
 6876TIP3    H244608   6.383   6.560   9.582
 6877TIP3   OH244609   6.280   6.422  10.864
 6877TIP3    H144610   6.215   6.488  10.894
 6877TIP3    H244611   6.317   6.458  10.783
 6878TIP3   OH244612   6.460   6.450   9.466
 6878TIP3    H144613   6.443   6.442   9.370
 6878TIP3    H244614   6.558   6.454   9.472
 6879TIP3   OH244615   7.392   6.681   9.407
 6879TIP3    H144616   7.374   6.644   9.320
 6879TIP3    H244617   7.401   6.778   9.389
 6880TIP3   OH244618   6.287   6.187  10.951
 6880TIP3    H144619   6.340   6.116  10.911
 6880TIP3    H244620   6.318   6.264  10.899
 6881TIP3   OH244621   6.359   5.982  10.737
 6881TIP3    H144622   6.410   6.030  10.668
 6881TIP3    H244623   6.270   5.973  10.695
 6882TIP3   OH244624   6.515   6.526  10.757
 6882TIP3    H144625   6.592   6.516  10.700
 6882TIP3    H244626   6.478   6.612  10.729
 6883TIP3   OH244627   6.441   5.726  10.777
 6883TIP3    H144628   6.422   5.823  10.775
 6883TIP3    H244629   6.364   5.692  10.728
 6884TIP3   OH244630   6.442   7.519   9.575
 6884TIP3    H144631   6.539   7.529   9.581
 6884TIP3    H244632   6.428   7.577   9.500
 6885TIP3   OH244633   5.798   6.978   9.521
 6885TIP3    H144634   5.895   6.985   9.539
 6885TIP3    H244635   5.801   6.913   9.447
 6886TIP3   OH244636   5.680   7.513  10.014
 6886TIP3    H144637   5.605   7.465   9.971
 6886TIP3    H244638   5.705   7.450  10.084
 6887TIP3   OH244639   5.759   7.328  10.205
 6887TIP3    H144640   5.723   7.241  10.226
 6887TIP3    H244641   5.782   7.362  10.294
 6888TIP3   OH244642   7.508   7.408  10.501
 6888TIP3    H144643   7.518   7.424  10.596
 6888TIP3    H244644   7.581   7.462  10.468
 6889TIP3   OH244645   7.472   7.369  10.789
 6889TIP3    H144646   7.423   7.292  10.753
 6889TIP3    H244647   7.522   7.327  10.859
 6890TIP3   OH244648   7.447   6.774   9.802
 6890TIP3    H144649   7.533   6.812   9.821
 6890TIP3    H244650   7.444   6.702   9.869
 6891TIP3   OH244651   7.480   6.581   9.991
 6891TIP3    H144652   7.405   6.531  10.030
 6891TIP3    H244653   7.541   6.592  10.067
 6892TIP3   OH244654   7.457   6.849  10.489
 6892TIP3    H144655   7.538   6.810  10.453
 6892TIP3    H244656   7.472   6.944  10.470
 6893TIP3   OH244657   7.310   7.142  10.718
 6893TIP3    H144658   7.242   7.174  10.778
 6893TIP3    H244659   7.259   7.100  10.646
 6894TIP3   OH244660   7.513   6.563   9.630
 6894TIP3    H144661   7.455   6.596   9.558
 6894TIP3    H244662   7.501   6.634   9.696
 6895TIP3   OH244663   7.350   6.285   9.481
 6895TIP3    H144664   7.357   6.352   9.411
 6895TIP3    H244665   7.331   6.203   9.431
 6896TIP3   OH244666   7.264   6.428  10.049
 6896TIP3    H144667   7.250   6.332  10.044
 6896TIP3    H244668   7.232   6.448  10.139
 6897TIP3   OH244669   5.766   6.638  10.455
 6897TIP3    H144670   5.782   6.628  10.358
 6897TIP3    H244671   5.854   6.617  10.491
 6898TIP3   OH244672   7.275   6.033   9.395
 6898TIP3    H144673   7.333   5.988   9.460
 6898TIP3    H244674   7.188   5.992   9.410
 6899TIP3   OH244675   7.228   6.187   9.889
 6899TIP3    H144676   7.259   6.095   9.906
 6899TIP3    H244677   7.311   6.227   9.860
 6900TIP3   OH244678   7.294   6.240  10.437
 6900TIP3    H144679   7.390   6.263  10.436
 6900TIP3    H244680   7.277   6.254  10.532
 6901TIP3   OH244681   7.302   6.315  10.716
 6901TIP3    H144682   7.213   6.341  10.748
 6901TIP3    H244683   7.345   6.401  10.694
 6902TIP3   OH244684   7.296   5.916   9.899
 6902TIP3    H144685   7.320   5.873   9.984
 6902TIP3    H244686   7.238   5.851   9.855
 6903TIP3   OH244687   5.845   5.995  10.356
 6903TIP3    H144688   5.892   5.913  10.380
 6903TIP3    H244689   5.903   6.065  10.392
 6904TIP3   OH244690   5.674   6.294  10.457
 6904TIP3    H144691   5.732   6.270  10.382
 6904TIP3    H244692   5.721   6.375  10.485
 6905TIP3   OH244693   7.479   5.918   9.554
 6905TIP3    H144694   7.521   5.847   9.501
 6905TIP3    H244695   7.548   5.985   9.560
 6906TIP3   OH244696   5.712   5.924   9.868
 6906TIP3    H144697   5.617   5.939   9.850
 6906TIP3    H244698   5.753   5.971   9.793
 6907TIP3   OH244699   7.185   7.415  10.062
 6907TIP3    H144700   7.253   7.386   9.999
 6907TIP3    H244701   7.236   7.466  10.126
 6908TIP3   OH244702   5.707   5.791  10.696
 6908TIP3    H144703   5.639   5.769  10.762
 6908TIP3    H244704   5.660   5.856  10.641
 6909TIP3   OH244705   6.217   7.206  10.736
 6909TIP3    H144706   6.185   7.293  10.708
 6909TIP3    H244707   6.312   7.215  10.711
 6910TIP3   OH244708   6.877   7.488  -0.031
 6910TIP3    H144709   6.948   7.425  -0.054
 6910TIP3    H244710   6.918   7.518   0.052
 6911TIP3   OH244711   7.386   5.740  10.862
 6911TIP3    H144712   7.297   5.764  10.834
 6911TIP3    H244713   7.398   5.652  10.820
 6912TIP3   OH244714   5.960   7.529  10.741
 6912TIP3    H144715   5.888   7.581  10.702
 6912TIP3    H244716   5.927   7.510  10.830
 6913TIP3   OH244717   6.207   7.485  10.638
 6913TIP3    H144718   6.123   7.506  10.685
 6913TIP3    H244719   6.203   7.549  10.565
 6914TIP3   OH244720   6.680   7.479  10.565
 6914TIP3    H144721   6.635   7.535  10.499
 6914TIP3    H244722   6.693   7.544  10.638
 6915TIP3   OH244723   6.908   7.356  10.656
 6915TIP3    H144724   6.822   7.390  10.628
 6915TIP3    H244725   6.956   7.440  10.657
 6916TIP3   OH244726   7.173   7.518  10.686
 6916TIP3    H144727   7.160   7.613  10.663
 6916TIP3    H244728   7.190   7.480  10.598
 6917TIP3   OH244729   5.909   7.396  10.432
 6917TIP3    H144730   5.902   7.352  10.520
 6917TIP3    H244731   5.991   7.357  10.395
 6918TIP3   OH244732   6.117   7.267  10.298
 6918TIP3    H144733   6.101   7.174  10.322
 6918TIP3    H244734   6.202   7.283  10.344
 6919TIP3   OH244735   6.378   7.317  10.384
 6919TIP3    H144736   6.392   7.223  10.360
 6919TIP3    H244737   6.382   7.312  10.481
 6920TIP3   OH244738   6.722   5.880  10.300
 6920TIP3    H144739   6.654   5.817  10.328
 6920TIP3    H244740   6.777   5.827  10.242
 6921TIP3   OH244741   7.236   5.686  10.307
 6921TIP3    H144742   7.297   5.743  10.254
 6921TIP3    H244743   7.147   5.720  10.282
 6922TIP3   OH244744   7.402   5.811  10.133
 6922TIP3    H144745   7.472   5.755  10.092
 6922TIP3    H244746   7.453   5.895  10.145
 6923TIP3   OH244747   5.960   5.743  10.084
 6923TIP3    H144748   5.880   5.725  10.032
 6923TIP3    H244749   6.005   5.656  10.078
 6924TIP3   OH244750   5.836   5.718   9.656
 6924TIP3    H144751   5.886   5.783   9.603
 6924TIP3    H244752   5.780   5.775   9.710
 6925TIP3   OH244753   6.405   5.736  10.064
 6925TIP3    H144754   6.495   5.771  10.054
 6925TIP3    H244755   6.403   5.714  10.157
 6926TIP3   OH244756   6.979   5.737  10.225
 6926TIP3    H144757   6.972   5.749  10.130
 6926TIP3    H244758   6.939   5.648  10.239
 6927TIP3   OH244759   7.104   5.741   9.793
 6927TIP3    H144760   7.029   5.800   9.778
 6927TIP3    H244761   7.059   5.656   9.818
 6928TIP3   OH244762   5.827   7.313   9.761
 6928TIP3    H144763   5.761   7.311   9.689
 6928TIP3    H244764   5.827   7.409   9.777
 6929TIP3   OH244765   6.018   5.912   9.508
 6929TIP3    H144766   6.071   5.851   9.455
 6929TIP3    H244767   6.085   5.945   9.571
 6930TIP3   OH244768   6.520   5.936   9.748
 6930TIP3    H144769   6.546   5.879   9.822
 6930TIP3    H244770   6.529   6.023   9.793
 6931TIP3   OH244771   6.715   7.445   9.592
 6931TIP3    H144772   6.807   7.466   9.570
 6931TIP3    H244773   6.693   7.391   9.513
 6932TIP3   OH244774   7.383   7.394   9.865
 6932TIP3    H144775   7.365   7.316   9.808
 6932TIP3    H244776   7.378   7.468   9.801
 6933TIP3   OH244777   6.006   7.412   9.454
 6933TIP3    H144778   5.980   7.438   9.544
 6933TIP3    H244779   6.084   7.356   9.469
 6934TIP3   OH244780   7.872   6.554  10.577
 6934TIP3    H144781   7.885   6.481  10.640
 6934TIP3    H244782   7.951   6.605  10.595
 6935TIP3   OH244783   7.947   6.982  10.439
 6935TIP3    H144784   7.931   6.898  10.392
 6935TIP3    H244785   8.045   6.985  10.434
 6936TIP3   OH244786   7.627   6.349   9.974
 6936TIP3    H144787   7.586   6.438   9.968
 6936TIP3    H244788   7.570   6.296   9.917
 6937TIP3   OH244789   7.702   6.574  10.190
 6937TIP3    H144790   7.729   6.492  10.234
 6937TIP3    H244791   7.772   6.584  10.123
 6938TIP3   OH244792   7.762   6.317  10.294
 6938TIP3    H144793   7.832   6.267  10.339
 6938TIP3    H244794   7.781   6.288  10.203
 6939TIP3   OH244795   7.976   5.966  10.619
 6939TIP3    H144796   7.963   6.030  10.546
 6939TIP3    H244797   7.917   5.998  10.688
 6940TIP3   OH244798   7.939   6.141  10.417
 6940TIP3    H144799   7.995   6.213  10.460
 6940TIP3    H244800   7.999   6.111  10.346
 6941TIP3   OH244801   8.073   6.966  10.730
 6941TIP3    H144802   8.066   7.053  10.693
 6941TIP3    H244803   7.985   6.951  10.772
 6942TIP3   OH244804   7.705   6.895   9.809
 6942TIP3    H144805   7.674   6.927   9.723
 6942TIP3    H244806   7.706   6.977   9.862
 6943TIP3   OH244807   7.934   6.601  10.866
 6943TIP3    H144808   7.940   6.667  10.936
 6943TIP3    H244809   7.844   6.610  10.833
 6944TIP3   OH244810   8.019   6.573   9.863
 6944TIP3    H144811   7.990   6.653   9.816
 6944TIP3    H244812   7.951   6.508   9.843
 6945TIP3   OH244813   7.631   6.812  10.751
 6945TIP3    H144814   7.585   6.805  10.666
 6945TIP3    H244815   7.638   6.718  10.779
 6946TIP3   OH244816   7.608   7.088  10.435
 6946TIP3    H144817   7.703   7.075  10.432
 6946TIP3    H244818   7.602   7.169  10.487
 6947TIP3   OH244819   7.923   7.364  10.053
 6947TIP3    H144820   7.940   7.326  10.141
 6947TIP3    H244821   7.837   7.324  10.032
 6948TIP3   OH244822   7.851   6.946  10.864
 6948TIP3    H144823   7.877   6.896  10.941
 6948TIP3    H244824   7.769   6.902  10.829
 6949TIP3   OH244825   7.902   6.321  10.749
 6949TIP3    H144826   7.901   6.358  10.838
 6949TIP3    H244827   7.865   6.231  10.761
 6950TIP3   OH244828   7.563   6.023  10.139
 6950TIP3    H144829   7.631   6.021  10.209
 6950TIP3    H244830   7.611   5.990  10.061
 6951TIP3   OH244831   7.688   6.097   9.674
 6951TIP3    H144832   7.741   6.157   9.619
 6951TIP3    H244833   7.619   6.160   9.703
 6952TIP3   OH244834   7.866   6.216  10.044
 6952TIP3    H144835   7.778   6.224  10.004
 6952TIP3    H244836   7.899   6.129  10.014
 6953TIP3   OH244837   7.969   5.941   9.972
 6953TIP3    H144838   7.964   5.847   9.999
 6953TIP3    H244839   8.065   5.949   9.964
 6954TIP3   OH244840   7.947   6.727  10.332
 6954TIP3    H144841   8.023   6.722  10.272
 6954TIP3    H244842   7.956   6.645  10.385
 6955TIP3   OH244843   7.649   6.570  10.865
 6955TIP3    H144844   7.668   6.525  10.948
 6955TIP3    H244845   7.589   6.507  10.819
 6956TIP3   OH244846   7.771   6.555   9.536
 6956TIP3    H144847   7.823   6.625   9.578
 6956TIP3    H244848   7.679   6.583   9.557
 6957TIP3   OH244849   7.813   6.045  10.826
 6957TIP3    H144850   7.722   6.075  10.810
 6957TIP3    H244851   7.802   5.955  10.861
 6958TIP3   OH244852   7.786   7.221  10.657
 6958TIP3    H144853   7.797   7.125  10.665
 6958TIP3    H244854   7.802   7.252  10.746
 6959TIP3   OH244855   7.907   6.751   9.680
 6959TIP3    H144856   7.835   6.785   9.737
 6959TIP3    H244857   7.955   6.832   9.661
 6960TIP3   OH244858   7.957   7.012   9.564
 6960TIP3    H144859   8.022   7.073   9.604
 6960TIP3    H244860   8.017   6.966   9.504
 6961TIP3   OH244861   7.796   6.275   9.491
 6961TIP3    H144862   7.797   6.372   9.501
 6961TIP3    H244863   7.709   6.259   9.453
 6962TIP3   OH244864   7.873   5.757  10.361
 6962TIP3    H144865   7.862   5.760  10.264
 6962TIP3    H244866   7.836   5.670  10.385
 6963TIP3   OH244867   7.764   7.148   9.973
 6963TIP3    H144868   7.681   7.196   9.968
 6963TIP3    H244869   7.817   7.192   9.905
 6964TIP3   OH244870   7.686   6.977   9.519
 6964TIP3    H144871   7.782   6.987   9.538
 6964TIP3    H244872   7.690   6.912   9.445
 6965TIP3   OH244873   7.564   7.514  10.014
 6965TIP3    H144874   7.490   7.466   9.972
 6965TIP3    H244875   7.591   7.451  10.084
 6966TIP3   OH244876   7.643   7.327  10.204
 6966TIP3    H144877   7.608   7.240  10.226
 6966TIP3    H244878   7.670   7.360  10.293
 6967TIP3   OH244879   7.652   6.640  10.453
 6967TIP3    H144880   7.673   6.626  10.358
 6967TIP3    H244881   7.739   6.618  10.492
 6968TIP3   OH244882   7.728   5.995  10.356
 6968TIP3    H144883   7.780   5.914  10.376
 6968TIP3    H244884   7.790   6.063  10.389
 6969TIP3   OH244885   7.556   6.295  10.457
 6969TIP3    H144886   7.617   6.270  10.383
 6969TIP3    H244887   7.603   6.374  10.486
 6970TIP3   OH244888   7.596   5.920   9.865
 6970TIP3    H144889   7.502   5.938   9.850
 6970TIP3    H244890   7.637   5.972   9.793
 6971TIP3   OH244891   7.591   5.790  10.696
 6971TIP3    H144892   7.522   5.769  10.762
 6971TIP3    H244893   7.545   5.855  10.640
 6972TIP3   OH244894   7.847   7.533  10.745
 6972TIP3    H144895   7.773   7.579  10.701
 6972TIP3    H244896   7.808   7.511  10.831
 6973TIP3   OH244897   8.073   7.456  10.618
 6973TIP3    H144898   8.007   7.490  10.682
 6973TIP3    H244899   8.091   7.538  10.569
 6974TIP3   OH244900   7.784   7.396  10.436
 6974TIP3    H144901   7.789   7.352  10.523
 6974TIP3    H244902   7.868   7.361  10.396
 6975TIP3   OH244903   7.983   7.267  10.315
 6975TIP3    H144904   7.977   7.170  10.327
 6975TIP3    H244905   8.073   7.279  10.349
 6976TIP3   OH244906   7.838   5.737  10.088
 6976TIP3    H144907   7.759   5.719  10.032
 6976TIP3    H244908   7.890   5.656  10.082
 6977TIP3   OH244909   7.720   5.719   9.653
 6977TIP3    H144910   7.770   5.787   9.604
 6977TIP3    H244911   7.665   5.774   9.711
 6978TIP3   OH244912   7.715   7.314   9.756
 6978TIP3    H144913   7.644   7.312   9.689
 6978TIP3    H244914   7.715   7.410   9.775
 6979TIP3   OH244915   7.902   5.907   9.516
 6979TIP3    H144916   7.958   5.856   9.455
 6979TIP3    H244917   7.967   5.952   9.572
 6980TIP3   OH244918   7.897   7.419   9.455
 6980TIP3    H144919   7.867   7.442   9.544
 6980TIP3    H244920   7.968   7.356   9.472
 6981TIP3   OH244921   1.806   7.869  10.539
 6981TIP3    H144922   1.811   7.926  10.617
 6981TIP3    H244923   1.848   7.921  10.471
 6982TIP3   OH244924   0.567   7.962  10.220
 6982TIP3    H144925   0.573   8.046  10.172
 6982TIP3    H244926   0.526   7.905  10.150
 6983TIP3   OH244927   1.336   7.972  10.045
 6983TIP3    H144928   1.394   7.941  10.120
 6983TIP3    H244929   1.404   8.026  10.005
 6984TIP3   OH244930   1.857   7.997  10.762
 6984TIP3    H144931   1.799   8.072  10.739
 6984TIP3    H244932   1.851   7.999  10.858
 6985TIP3   OH244933   0.454   7.840  10.633
 6985TIP3    H144934   0.430   7.899  10.557
 6985TIP3    H244935   0.384   7.868  10.697
 6986TIP3   OH244936   1.511   7.915  10.229
 6986TIP3    H144937   1.488   7.839  10.287
 6986TIP3    H244938   1.571   7.958  10.292
 6987TIP3   OH244939   0.433   8.004  10.441
 6987TIP3    H144940   0.464   8.094  10.462
 6987TIP3    H244941   0.470   7.991  10.350
 6988TIP3   OH244942   1.566   7.813  10.682
 6988TIP3    H144943   1.482   7.823  10.633
 6988TIP3    H244944   1.615   7.800  10.597
 6989TIP3   OH244945   0.847   7.585  10.370
 6989TIP3    H144946   0.829   7.489  10.364
 6989TIP3    H244947   0.760   7.618  10.403
 6990TIP3   OH244948   1.683   7.577   9.672
 6990TIP3    H144949   1.589   7.592   9.697
 6990TIP3    H244950   1.703   7.662   9.628
 6991TIP3   OH244951   0.588   7.679  10.442
 6991TIP3    H144952   0.496   7.665  10.411
 6991TIP3    H244953   0.574   7.758  10.497
 6992TIP3   OH244954   1.046   7.647  10.785
 6992TIP3    H144955   1.085   7.603  10.862
 6992TIP3    H244956   0.949   7.632  10.799
 6993TIP3   OH244957   1.364   8.023  10.873
 6993TIP3    H144958   1.322   8.017  10.959
 6993TIP3    H244959   1.351   8.114  10.843
 6994TIP3   OH244960   1.020   7.895   9.524
 6994TIP3    H144961   0.978   7.893   9.611
 6994TIP3    H244962   0.982   7.814   9.483
 6995TIP3   OH244963   0.692   7.934   9.423
 6995TIP3    H144964   0.651   7.901   9.506
 6995TIP3    H244965   0.619   7.978   9.379
 6996TIP3   OH244966   0.046   7.940  10.148
 6996TIP3    H144967   0.102   7.909  10.222
 6996TIP3    H244968   0.063   7.874  10.080
 6997TIP3   OH244969   0.134   7.952   9.656
 6997TIP3    H144970   0.199   8.018   9.622
 6997TIP3    H244971   0.087   8.020   9.707
 6998TIP3   OH244972   0.844   7.928  10.158
 6998TIP3    H144973   0.751   7.938  10.187
 6998TIP3    H244974   0.897   7.924  10.239
 6999TIP3   OH244975   1.270   7.896  10.486
 6999TIP3    H144976   1.206   7.877  10.555
 6999TIP3    H244977   1.242   7.840  10.411
 7000TIP3   OH244978   0.482   7.830   9.996
 7000TIP3    H144979   0.446   7.739   9.990
 7000TIP3    H244980   0.556   7.826   9.935
 7001TIP3   OH244981   0.839   8.030  10.577
 7001TIP3    H144982   0.766   8.092  10.586
 7001TIP3    H244983   0.893   8.067  10.650
 7002TIP3   OH244984   1.284   7.961   9.587
 7002TIP3    H144985   1.189   7.968   9.561
 7002TIP3    H244986   1.311   8.052   9.605
 7003TIP3   OH244987   0.269   7.924  10.822
 7003TIP3    H144988   0.180   7.961  10.814
 7003TIP3    H244989   0.255   7.841  10.868
 7004TIP3   OH244990   1.134   7.903  10.721
 7004TIP3    H144991   1.215   7.908  10.774
 7004TIP3    H244992   1.108   7.810  10.732
 7005TIP3   OH244993   1.210   7.868   9.827
 7005TIP3    H144994   1.245   7.900   9.741
 7005TIP3    H244995   1.275   7.900   9.893
 7006TIP3   OH244996   0.955   8.024   9.909
 7006TIP3    H144997   1.019   8.098   9.912
 7006TIP3    H244998   0.915   8.025   9.998
 7007TIP3   OH244999   1.030   7.743  10.000
 7007TIP3    H145000   0.997   7.810  10.063
 7007TIP3    H245001   1.098   7.796   9.950
 7008TIP3   OH245002   0.598   7.850   9.665
 7008TIP3    H145003   0.589   7.938   9.705
 7008TIP3    H245004   0.690   7.826   9.690
 7009TIP3   OH245005   1.622   7.953  10.873
 7009TIP3    H145006   1.524   7.958  10.867
 7009TIP3    H245007   1.637   7.910  10.784
 7010TIP3   OH245008   0.337   7.641  10.354
 7010TIP3    H145009   0.310   7.644  10.260
 7010TIP3    H245010   0.296   7.557  10.383
 7011TIP3   OH245011   0.618   8.082  10.951
 7011TIP3    H145012   0.677   8.009  10.927
 7011TIP3    H245013   0.674   8.151  10.911
 7012TIP3   OH245014   0.698   7.871  10.739
 7012TIP3    H145015   0.754   7.911  10.670
 7012TIP3    H245016   0.611   7.864  10.696
 7013TIP3   OH245017   0.782   7.612  10.778
 7013TIP3    H145018   0.764   7.708  10.777
 7013TIP3    H245019   0.707   7.581  10.725
 7014TIP3   OH245020   1.617   7.916   9.395
 7014TIP3    H145021   1.678   7.876   9.459
 7014TIP3    H245022   1.531   7.875   9.413
 7015TIP3   OH245023   1.593   8.056   9.926
 7015TIP3    H145024   1.616   7.962   9.911
 7015TIP3    H245025   1.652   8.099   9.861
 7016TIP3   OH245026   1.646   7.796   9.894
 7016TIP3    H145027   1.663   7.758   9.984
 7016TIP3    H245028   1.583   7.731   9.856
 7017TIP3   OH245029   0.195   7.875  10.354
 7017TIP3    H145030   0.240   7.794  10.382
 7017TIP3    H245031   0.238   7.943  10.407
 7018TIP3   OH245032   1.821   7.797   9.554
 7018TIP3    H145033   1.864   7.729   9.497
 7018TIP3    H245034   1.891   7.865   9.563
 7019TIP3   OH245035   0.073   7.781   9.828
 7019TIP3    H145036  -0.020   7.810   9.836
 7019TIP3    H245037   0.112   7.857   9.781
 7020TIP3   OH245038   0.070   7.691  10.710
 7020TIP3    H145039  -0.003   7.657  10.763
 7020TIP3    H245040   0.013   7.748  10.651
 7021TIP3   OH245041   1.726   7.623  10.867
 7021TIP3    H145042   1.641   7.651  10.827
 7021TIP3    H245043   1.741   7.539  10.818
 7022TIP3   OH245044   1.063   7.763  10.297
 7022TIP3    H145045   0.998   7.699  10.328
 7022TIP3    H245046   1.123   7.708  10.243
 7023TIP3   OH245047   1.592   7.528  10.261
 7023TIP3    H145048   1.648   7.610  10.252
 7023TIP3    H245049   1.514   7.582  10.292
 7024TIP3   OH245050   1.746   7.694  10.129
 7024TIP3    H145051   1.816   7.637  10.091
 7024TIP3    H245052   1.795   7.778  10.146
 7025TIP3   OH245053   0.306   7.628  10.082
 7025TIP3    H145054   0.225   7.609  10.032
 7025TIP3    H245055   0.351   7.541  10.078
 7026TIP3   OH245056   0.178   7.600   9.655
 7026TIP3    H145057   0.228   7.667   9.606
 7026TIP3    H245058   0.126   7.658   9.714
 7027TIP3   OH245059   0.748   7.623  10.064
 7027TIP3    H145060   0.840   7.654  10.055
 7027TIP3    H245061   0.743   7.607  10.158
 7028TIP3   OH245062   1.300   7.626  10.218
 7028TIP3    H145063   1.318   7.629  10.124
 7028TIP3    H245064   1.283   7.532  10.237
 7029TIP3   OH245065   1.447   7.628   9.795
 7029TIP3    H145066   1.371   7.685   9.779
 7029TIP3    H245067   1.405   7.542   9.819
 7030TIP3   OH245068   0.369   7.802   9.506
 7030TIP3    H145069   0.416   7.733   9.456
 7030TIP3    H245070   0.436   7.827   9.572
 7031TIP3   OH245071   0.861   7.824   9.751
 7031TIP3    H145072   0.894   7.766   9.822
 7031TIP3    H245073   0.871   7.909   9.798
 7032TIP3   OH245074   3.678   7.874  10.535
 7032TIP3    H145075   3.699   7.925  10.617
 7032TIP3    H245076   3.737   7.918  10.472
 7033TIP3   OH245077   2.448   7.962  10.220
 7033TIP3    H145078   2.461   8.044  10.171
 7033TIP3    H245079   2.411   7.903  10.150
 7034TIP3   OH245080   3.224   7.967  10.050
 7034TIP3    H145081   3.284   7.941  10.124
 7034TIP3    H245082   3.287   8.026  10.005
 7035TIP3   OH245083   3.737   7.994  10.760
 7035TIP3    H145084   3.685   8.074  10.738
 7035TIP3    H245085   3.736   7.998  10.857
 7036TIP3   OH245086   2.340   7.839  10.632
 7036TIP3    H145087   2.316   7.898  10.556
 7036TIP3    H245088   2.272   7.869  10.696
 7037TIP3   OH245089   3.396   7.893  10.254
 7037TIP3    H145090   3.382   7.825  10.321
 7037TIP3    H245091   3.457   7.953  10.301
 7038TIP3   OH245092   2.311   8.003  10.442
 7038TIP3    H145093   2.347   8.091  10.465
 7038TIP3    H245094   2.352   7.989  10.354
 7039TIP3   OH245095   3.433   7.781  10.626
 7039TIP3    H145096   3.357   7.838  10.608
 7039TIP3    H245097   3.505   7.816  10.570
 7040TIP3   OH245098   2.730   7.584  10.365
 7040TIP3    H145099   2.715   7.488  10.367
 7040TIP3    H245100   2.646   7.618  10.405
 7041TIP3   OH245101   3.569   7.577   9.672
 7041TIP3    H145102   3.475   7.592   9.695
 7041TIP3    H245103   3.590   7.661   9.627
 7042TIP3   OH245104   2.473   7.681  10.442
 7042TIP3    H145105   2.380   7.665  10.411
 7042TIP3    H245106   2.459   7.759  10.497
 7043TIP3   OH245107   2.933   7.647  10.783
 7043TIP3    H145108   2.972   7.604  10.861
 7043TIP3    H245109   2.837   7.633  10.798
 7044TIP3   OH245110   3.249   8.023  10.869
 7044TIP3    H145111   3.213   8.014  10.958
 7044TIP3    H245112   3.237   8.116  10.846
 7045TIP3   OH245113   2.906   7.895   9.524
 7045TIP3    H145114   2.865   7.897   9.611
 7045TIP3    H245115   2.868   7.815   9.483
 7046TIP3   OH245116   2.576   7.935   9.424
 7046TIP3    H145117   2.535   7.902   9.505
 7046TIP3    H245118   2.504   7.978   9.378
 7047TIP3   OH245119   1.912   7.913  10.136
 7047TIP3    H145120   1.973   7.902  10.211
 7047TIP3    H245121   1.957   7.873  10.059
 7048TIP3   OH245122   2.019   7.950   9.662
 7048TIP3    H145123   2.080   8.015   9.623
 7048TIP3    H245124   1.968   8.017   9.710
 7049TIP3   OH245125   2.728   7.925  10.157
 7049TIP3    H145126   2.636   7.938  10.187
 7049TIP3    H245127   2.782   7.924  10.237
 7050TIP3   OH245128   3.178   7.863  10.489
 7050TIP3    H145129   3.105   7.878  10.552
 7050TIP3    H245130   3.128   7.842  10.408
 7051TIP3   OH245131   2.367   7.830   9.998
 7051TIP3    H145132   2.329   7.740   9.991
 7051TIP3    H245133   2.438   7.829   9.934
 7052TIP3   OH245134   2.726   8.030  10.577
 7052TIP3    H145135   2.652   8.091  10.586
 7052TIP3    H245136   2.779   8.067  10.650
 7053TIP3   OH245137   3.170   7.961   9.588
 7053TIP3    H145138   3.075   7.968   9.562
 7053TIP3    H245139   3.197   8.052   9.605
 7054TIP3   OH245140   2.154   7.927  10.819
 7054TIP3    H145141   2.063   7.960  10.811
 7054TIP3    H245142   2.146   7.844  10.867
 7055TIP3   OH245143   3.024   7.902  10.715
 7055TIP3    H145144   3.098   7.909  10.777
 7055TIP3    H245145   2.991   7.812  10.733
 7056TIP3   OH245146   3.096   7.866   9.828
 7056TIP3    H145147   3.130   7.900   9.742
 7056TIP3    H245148   3.161   7.899   9.893
 7057TIP3   OH245149   2.841   8.024   9.908
 7057TIP3    H145150   2.904   8.098   9.912
 7057TIP3    H245151   2.801   8.025   9.997
 7058TIP3   OH245152   2.914   7.739   9.993
 7058TIP3    H145153   2.883   7.804  10.060
 7058TIP3    H245154   2.984   7.795   9.950
 7059TIP3   OH245155   2.480   7.851   9.668
 7059TIP3    H145156   2.472   7.940   9.704
 7059TIP3    H245157   2.574   7.829   9.689
 7060TIP3   OH245158   3.502   7.933  10.855
 7060TIP3    H145159   3.407   7.956  10.862
 7060TIP3    H245160   3.520   7.911  10.763
 7061TIP3   OH245161   2.219   7.640  10.360
 7061TIP3    H145162   2.201   7.645  10.263
 7061TIP3    H245163   2.175   7.555  10.383
 7062TIP3   OH245164   2.504   8.081  10.950
 7062TIP3    H145165   2.564   8.009  10.927
 7062TIP3    H245166   2.560   8.150  10.910
 7063TIP3   OH245167   2.584   7.871  10.739
 7063TIP3    H145168   2.640   7.911  10.670
 7063TIP3    H245169   2.496   7.864  10.695
 7064TIP3   OH245170   2.670   7.615  10.774
 7064TIP3    H145171   2.649   7.710  10.776
 7064TIP3    H245172   2.592   7.580  10.727
 7065TIP3   OH245173   3.503   7.916   9.395
 7065TIP3    H145174   3.564   7.877   9.459
 7065TIP3    H245175   3.417   7.875   9.413
 7066TIP3   OH245176   3.478   8.056   9.926
 7066TIP3    H145177   3.501   7.962   9.909
 7066TIP3    H245178   3.537   8.100   9.861
 7067TIP3   OH245179   3.530   7.796   9.895
 7067TIP3    H145180   3.549   7.756   9.983
 7067TIP3    H245181   3.469   7.731   9.855
 7068TIP3   OH245182   2.079   7.879  10.349
 7068TIP3    H145183   2.124   7.797  10.378
 7068TIP3    H245184   2.126   7.944  10.402
 7069TIP3   OH245185   3.706   7.796   9.553
 7069TIP3    H145186   3.750   7.729   9.497
 7069TIP3    H245187   3.776   7.864   9.563
 7070TIP3   OH245188   1.939   7.808   9.866
 7070TIP3    H145189   1.845   7.823   9.848
 7070TIP3    H245190   1.982   7.854   9.792
 7071TIP3   OH245191   1.935   7.672  10.693
 7071TIP3    H145192   1.868   7.658  10.763
 7071TIP3    H245193   1.888   7.741  10.640
 7072TIP3   OH245194   3.615   7.627  10.861
 7072TIP3    H145195   3.524   7.649  10.833
 7072TIP3    H245196   3.627   7.538  10.820
 7073TIP3   OH245197   2.952   7.764  10.299
 7073TIP3    H145198   2.885   7.700  10.329
 7073TIP3    H245199   3.009   7.708  10.244
 7074TIP3   OH245200   3.463   7.575  10.309
 7074TIP3    H145201   3.526   7.629  10.254
 7074TIP3    H245202   3.376   7.610  10.281
 7075TIP3   OH245203   3.629   7.690  10.133
 7075TIP3    H145204   3.701   7.637  10.090
 7075TIP3    H245205   3.679   7.775  10.145
 7076TIP3   OH245206   2.191   7.628  10.083
 7076TIP3    H145207   2.109   7.610  10.032
 7076TIP3    H245208   2.232   7.540  10.082
 7077TIP3   OH245209   2.065   7.602   9.656
 7077TIP3    H145210   2.114   7.669   9.605
 7077TIP3    H245211   2.008   7.658   9.710
 7078TIP3   OH245212   2.642   7.609  10.060
 7078TIP3    H145213   2.726   7.660  10.058
 7078TIP3    H245214   2.627   7.610  10.155
 7079TIP3   OH245215   3.205   7.620  10.226
 7079TIP3    H145216   3.201   7.633  10.131
 7079TIP3    H245217   3.165   7.532  10.238
 7080TIP3   OH245218   3.332   7.626   9.792
 7080TIP3    H145219   3.257   7.687   9.780
 7080TIP3    H245220   3.289   7.541   9.818
 7081TIP3   OH245221   2.251   7.802   9.507
 7081TIP3    H145222   2.298   7.735   9.456
 7081TIP3    H245223   2.318   7.830   9.571
 7082TIP3   OH245224   2.744   7.819   9.752
 7082TIP3    H145225   2.781   7.769   9.825
 7082TIP3    H245226   2.756   7.908   9.794
 7083TIP3   OH245227   5.564   7.875  10.535
 7083TIP3    H145228   5.585   7.925  10.617
 7083TIP3    H245229   5.623   7.918  10.472
 7084TIP3   OH245230   4.335   7.962  10.220
 7084TIP3    H145231   4.346   8.044  10.171
 7084TIP3    H245232   4.297   7.904  10.151
 7085TIP3   OH245233   5.110   7.971  10.050
 7085TIP3    H145234   5.170   7.939  10.123
 7085TIP3    H245235   5.177   8.023  10.004
 7086TIP3   OH245236   5.623   7.994  10.760
 7086TIP3    H145237   5.571   8.074  10.738
 7086TIP3    H245238   5.622   7.998  10.857
 7087TIP3   OH245239   4.226   7.839  10.631
 7087TIP3    H145240   4.201   7.898  10.556
 7087TIP3    H245241   4.158   7.869  10.696
 7088TIP3   OH245242   5.281   7.893  10.254
 7088TIP3    H145243   5.267   7.825  10.321
 7088TIP3    H245244   5.343   7.953  10.300
 7089TIP3   OH245245   4.197   8.003  10.442
 7089TIP3    H145246   4.235   8.091  10.465
 7089TIP3    H245247   4.238   7.990  10.353
 7090TIP3   OH245248   5.319   7.781  10.626
 7090TIP3    H145249   5.243   7.838  10.608
 7090TIP3    H245250   5.391   7.816  10.570
 7091TIP3   OH245251   4.617   7.586  10.369
 7091TIP3    H145252   4.601   7.490  10.364
 7091TIP3    H245253   4.531   7.618  10.403
 7092TIP3   OH245254   5.454   7.577   9.673
 7092TIP3    H145255   5.360   7.592   9.695
 7092TIP3    H245256   5.475   7.661   9.627
 7093TIP3   OH245257   4.358   7.680  10.442
 7093TIP3    H145258   4.266   7.665  10.411
 7093TIP3    H245259   4.344   7.759  10.497
 7094TIP3   OH245260   4.819   7.648  10.783
 7094TIP3    H145261   4.858   7.604  10.861
 7094TIP3    H245262   4.722   7.633  10.798
 7095TIP3   OH245263   5.134   8.023  10.869
 7095TIP3    H145264   5.098   8.014  10.958
 7095TIP3    H245265   5.122   8.116  10.846
 7096TIP3   OH245266   4.792   7.895   9.524
 7096TIP3    H145267   4.749   7.894   9.611
 7096TIP3    H245268   4.753   7.815   9.484
 7097TIP3   OH245269   4.462   7.935   9.424
 7097TIP3    H145270   4.421   7.901   9.506
 7097TIP3    H245271   4.390   7.978   9.379
 7098TIP3   OH245272   3.794   7.908  10.138
 7098TIP3    H145273   3.861   7.904  10.211
 7098TIP3    H245274   3.841   7.874  10.059
 7099TIP3   OH245275   3.904   7.950   9.663
 7099TIP3    H145276   3.965   8.015   9.623
 7099TIP3    H245277   3.854   8.017   9.711
 7100TIP3   OH245278   4.614   7.929  10.158
 7100TIP3    H145279   4.522   7.938  10.188
 7100TIP3    H245280   4.668   7.924  10.238
 7101TIP3   OH245281   5.063   7.863  10.488
 7101TIP3    H145282   4.989   7.878  10.551
 7101TIP3    H245283   5.013   7.842  10.408
 7102TIP3   OH245284   4.250   7.830   9.996
 7102TIP3    H145285   4.218   7.738   9.990
 7102TIP3    H245286   4.325   7.827   9.935
 7103TIP3   OH245287   4.611   8.030  10.577
 7103TIP3    H145288   4.538   8.091  10.586
 7103TIP3    H245289   4.665   8.067  10.650
 7104TIP3   OH245290   5.055   7.961   9.588
 7104TIP3    H145291   4.960   7.968   9.562
 7104TIP3    H245292   5.082   8.052   9.604
 7105TIP3   OH245293   4.040   7.927  10.820
 7105TIP3    H145294   3.949   7.960  10.811
 7105TIP3    H245295   4.031   7.843  10.867
 7106TIP3   OH245296   4.910   7.903  10.715
 7106TIP3    H145297   4.984   7.909  10.777
 7106TIP3    H245298   4.877   7.812  10.733
 7107TIP3   OH245299   4.982   7.867   9.827
 7107TIP3    H145300   5.015   7.900   9.742
 7107TIP3    H245301   5.048   7.898   9.892
 7108TIP3   OH245302   4.724   8.027   9.908
 7108TIP3    H145303   4.792   8.096   9.913
 7108TIP3    H245304   4.685   8.024   9.998
 7109TIP3   OH245305   4.801   7.742   9.998
 7109TIP3    H145306   4.768   7.807  10.062
 7109TIP3    H245307   4.869   7.796   9.950
 7110TIP3   OH245308   4.367   7.851   9.667
 7110TIP3    H145309   4.359   7.939   9.706
 7110TIP3    H245310   4.459   7.826   9.691
 7111TIP3   OH245311   5.387   7.933  10.855
 7111TIP3    H145312   5.293   7.956  10.862
 7111TIP3    H245313   5.406   7.911  10.763
 7112TIP3   OH245314   4.105   7.640  10.360
 7112TIP3    H145315   4.087   7.644  10.263
 7112TIP3    H245316   4.063   7.555  10.383
 7113TIP3   OH245317   4.390   8.081  10.950
 7113TIP3    H145318   4.449   8.009  10.927
 7113TIP3    H245319   4.445   8.150  10.910
 7114TIP3   OH245320   4.469   7.872  10.739
 7114TIP3    H145321   4.526   7.910  10.670
 7114TIP3    H245322   4.382   7.864  10.695
 7115TIP3   OH245323   4.555   7.614  10.774
 7115TIP3    H145324   4.535   7.710  10.776
 7115TIP3    H245325   4.478   7.580  10.727
 7116TIP3   OH245326   5.388   7.916   9.395
 7116TIP3    H145327   5.450   7.876   9.459
 7116TIP3    H245328   5.303   7.874   9.412
 7117TIP3   OH245329   5.364   8.056   9.927
 7117TIP3    H145330   5.387   7.962   9.909
 7117TIP3    H245331   5.423   8.100   9.861
 7118TIP3   OH245332   5.416   7.796   9.895
 7118TIP3    H145333   5.435   7.756   9.983
 7118TIP3    H245334   5.355   7.731   9.855
 7119TIP3   OH245335   3.965   7.880  10.350
 7119TIP3    H145336   4.008   7.797  10.379
 7119TIP3    H245337   4.013   7.945  10.403
 7120TIP3   OH245338   5.592   7.796   9.553
 7120TIP3    H145339   5.636   7.729   9.497
 7120TIP3    H245340   5.662   7.864   9.563
 7121TIP3   OH245341   3.824   7.809   9.868
 7121TIP3    H145342   3.731   7.824   9.847
 7121TIP3    H245343   3.867   7.854   9.792
 7122TIP3   OH245344   3.820   7.673  10.691
 7122TIP3    H145345   3.755   7.657  10.763
 7122TIP3    H245346   3.774   7.742  10.640
 7123TIP3   OH245347   5.500   7.627  10.861
 7123TIP3    H145348   5.410   7.649  10.833
 7123TIP3    H245349   5.512   7.538  10.820
 7124TIP3   OH245350   4.838   7.760  10.300
 7124TIP3    H145351   4.769   7.698  10.328
 7124TIP3    H245352   4.893   7.706  10.242
 7125TIP3   OH245353   5.349   7.575  10.309
 7125TIP3    H145354   5.411   7.629  10.254
 7125TIP3    H245355   5.261   7.610  10.281
 7126TIP3   OH245356   5.515   7.690  10.133
 7126TIP3    H145357   5.586   7.637  10.090
 7126TIP3    H245358   5.564   7.775  10.145
 7127TIP3   OH245359   4.074   7.628  10.086
 7127TIP3    H145360   3.994   7.610  10.033
 7127TIP3    H245361   4.119   7.542  10.080
 7128TIP3   OH245362   3.949   7.602   9.655
 7128TIP3    H145363   3.999   7.670   9.605
 7128TIP3    H245364   3.893   7.659   9.710
 7129TIP3   OH245365   4.522   7.619  10.062
 7129TIP3    H145366   4.611   7.657  10.056
 7129TIP3    H245367   4.515   7.607  10.157
 7130TIP3   OH245368   5.091   7.620  10.226
 7130TIP3    H145369   5.086   7.632  10.131
 7130TIP3    H245370   5.050   7.532  10.239
 7131TIP3   OH245371   5.217   7.626   9.792
 7131TIP3    H145372   5.143   7.686   9.779
 7131TIP3    H245373   5.174   7.541   9.818
 7132TIP3   OH245374   4.136   7.802   9.507
 7132TIP3    H145375   4.184   7.734   9.456
 7132TIP3    H245376   4.204   7.830   9.571
 7133TIP3   OH245377   4.633   7.823   9.750
 7133TIP3    H145378   4.664   7.765   9.822
 7133TIP3    H245379   4.642   7.909   9.797
 7134TIP3   OH245380   7.449   7.875  10.535
 7134TIP3    H145381   7.471   7.925  10.617
 7134TIP3    H245382   7.509   7.918  10.473
 7135TIP3   OH245383   6.220   7.962  10.220
 7135TIP3    H145384   6.232   8.044  10.171
 7135TIP3    H245385   6.182   7.903  10.150
 7136TIP3   OH245386   6.995   7.967  10.050
 7136TIP3    H145387   7.055   7.941  10.124
 7136TIP3    H245388   7.058   8.026  10.005
 7137TIP3   OH245389   7.510   7.995  10.760
 7137TIP3    H145390   7.458   8.074  10.737
 7137TIP3    H245391   7.508   7.998  10.857
 7138TIP3   OH245392   6.111   7.839  10.631
 7138TIP3    H145393   6.087   7.898  10.556
 7138TIP3    H245394   6.044   7.869  10.696
 7139TIP3   OH245395   7.167   7.893  10.254
 7139TIP3    H145396   7.153   7.825  10.321
 7139TIP3    H245397   7.229   7.953  10.301
 7140TIP3   OH245398   6.083   8.003  10.442
 7140TIP3    H145399   6.120   8.091  10.464
 7140TIP3    H245400   6.123   7.988  10.354
 7141TIP3   OH245401   7.205   7.780  10.626
 7141TIP3    H145402   7.129   7.838  10.609
 7141TIP3    H245403   7.276   7.815  10.570
 7142TIP3   OH245404   6.503   7.586  10.369
 7142TIP3    H145405   6.487   7.490  10.364
 7142TIP3    H245406   6.416   7.618  10.403
 7143TIP3   OH245407   7.340   7.577   9.672
 7143TIP3    H145408   7.246   7.591   9.695
 7143TIP3    H245409   7.361   7.661   9.628
 7144TIP3   OH245410   6.244   7.681  10.442
 7144TIP3    H145411   6.152   7.665  10.411
 7144TIP3    H245412   6.230   7.759  10.497
 7145TIP3   OH245413   6.705   7.648  10.783
 7145TIP3    H145414   6.744   7.604  10.861
 7145TIP3    H245415   6.608   7.633  10.798
 7146TIP3   OH245416   7.020   8.023  10.869
 7146TIP3    H145417   6.984   8.014  10.958
 7146TIP3    H245418   7.008   8.116  10.846
 7147TIP3   OH245419   6.677   7.895   9.524
 7147TIP3    H145420   6.635   7.893   9.611
 7147TIP3    H245421   6.638   7.815   9.483
 7148TIP3   OH245422   6.348   7.935   9.424
 7148TIP3    H145423   6.307   7.901   9.506
 7148TIP3    H245424   6.276   7.978   9.378
 7149TIP3   OH245425   5.680   7.908  10.138
 7149TIP3    H145426   5.746   7.904  10.211
 7149TIP3    H245427   5.727   7.874  10.059
 7150TIP3   OH245428   5.789   7.950   9.663
 7150TIP3    H145429   5.851   8.015   9.623
 7150TIP3    H245430   5.739   8.018   9.711
 7151TIP3   OH245431   6.500   7.929  10.158
 7151TIP3    H145432   6.407   7.938  10.188
 7151TIP3    H245433   6.553   7.924  10.238
 7152TIP3   OH245434   6.949   7.862  10.488
 7152TIP3    H145435   6.875   7.878  10.551
 7152TIP3    H245436   6.899   7.842  10.408
 7153TIP3   OH245437   6.136   7.830   9.996
 7153TIP3    H145438   6.103   7.738   9.990
 7153TIP3    H245439   6.210   7.827   9.935
 7154TIP3   OH245440   6.497   8.029  10.577
 7154TIP3    H145441   6.424   8.091  10.586
 7154TIP3    H245442   6.551   8.067  10.650
 7155TIP3   OH245443   6.941   7.961   9.587
 7155TIP3    H145444   6.846   7.968   9.562
 7155TIP3    H245445   6.968   8.052   9.605
 7156TIP3   OH245446   5.926   7.927  10.820
 7156TIP3    H145447   5.835   7.960  10.811
 7156TIP3    H245448   5.917   7.843  10.867
 7157TIP3   OH245449   6.795   7.902  10.715
 7157TIP3    H145450   6.869   7.909  10.777
 7157TIP3    H245451   6.762   7.812  10.733
 7158TIP3   OH245452   6.867   7.867   9.828
 7158TIP3    H145453   6.901   7.900   9.742
 7158TIP3    H245454   6.932   7.899   9.893
 7159TIP3   OH245455   6.611   8.024   9.909
 7159TIP3    H145456   6.675   8.098   9.912
 7159TIP3    H245457   6.572   8.025   9.998
 7160TIP3   OH245458   6.687   7.741   9.998
 7160TIP3    H145459   6.653   7.806  10.063
 7160TIP3    H245460   6.754   7.795   9.950
 7161TIP3   OH245461   6.253   7.851   9.667
 7161TIP3    H145462   6.245   7.939   9.706
 7161TIP3    H245463   6.345   7.826   9.691
 7162TIP3   OH245464   7.273   7.934  10.855
 7162TIP3    H145465   7.179   7.956  10.863
 7162TIP3    H245466   7.292   7.911  10.763
 7163TIP3   OH245467   5.991   7.640  10.360
 7163TIP3    H145468   5.972   7.644  10.263
 7163TIP3    H245469   5.949   7.555  10.383
 7164TIP3   OH245470   6.275   8.081  10.950
 7164TIP3    H145471   6.335   8.008  10.927
 7164TIP3    H245472   6.331   8.150  10.910
 7165TIP3   OH245473   6.355   7.872  10.739
 7165TIP3    H145474   6.412   7.910  10.670
 7165TIP3    H245475   6.268   7.864  10.695
 7166TIP3   OH245476   6.441   7.614  10.774
 7166TIP3    H145477   6.421   7.710  10.776
 7166TIP3    H245478   6.364   7.580  10.727
 7167TIP3   OH245479   7.274   7.917   9.395
 7167TIP3    H145480   7.335   7.876   9.459
 7167TIP3    H245481   7.188   7.875   9.413
 7168TIP3   OH245482   7.250   8.056   9.926
 7168TIP3    H145483   7.272   7.962   9.909
 7168TIP3    H245484   7.309   8.100   9.861
 7169TIP3   OH245485   7.299   7.797   9.895
 7169TIP3    H145486   7.320   7.757   9.982
 7169TIP3    H245487   7.240   7.731   9.854
 7170TIP3   OH245488   5.850   7.880  10.350
 7170TIP3    H145489   5.894   7.797  10.379
 7170TIP3    H245490   5.898   7.945  10.403
 7171TIP3   OH245491   7.476   7.796   9.553
 7171TIP3    H145492   7.521   7.729   9.497
 7171TIP3    H245493   7.545   7.864   9.564
 7172TIP3   OH245494   5.710   7.810   9.868
 7172TIP3    H145495   5.616   7.824   9.848
 7172TIP3    H245496   5.753   7.854   9.793
 7173TIP3   OH245497   5.705   7.673  10.691
 7173TIP3    H145498   5.640   7.657  10.763
 7173TIP3    H245499   5.659   7.742  10.640
 7174TIP3   OH245500   7.386   7.626  10.862
 7174TIP3    H145501   7.296   7.649  10.834
 7174TIP3    H245502   7.398   7.538  10.820
 7175TIP3   OH245503   6.722   7.763  10.297
 7175TIP3    H145504   6.655   7.699  10.328
 7175TIP3    H245505   6.778   7.707  10.241
 7176TIP3   OH245506   7.234   7.575  10.309
 7176TIP3    H145507   7.297   7.629  10.254
 7176TIP3    H245508   7.146   7.610  10.281
 7177TIP3   OH245509   7.401   7.690  10.133
 7177TIP3    H145510   7.472   7.637  10.090
 7177TIP3    H245511   7.451   7.775  10.145
 7178TIP3   OH245512   5.959   7.628  10.086
 7178TIP3    H145513   5.880   7.610  10.033
 7178TIP3    H245514   6.005   7.542  10.080
 7179TIP3   OH245515   5.835   7.602   9.655
 7179TIP3    H145516   5.885   7.670   9.605
 7179TIP3    H245517   5.778   7.659   9.710
 7180TIP3   OH245518   6.407   7.619  10.062
 7180TIP3    H145519   6.497   7.657  10.056
 7180TIP3    H245520   6.400   7.607  10.157
 7181TIP3   OH245521   6.977   7.620  10.226
 7181TIP3    H145522   6.972   7.633  10.131
 7181TIP3    H245523   6.936   7.532  10.239
 7182TIP3   OH245524   7.103   7.627   9.792
 7182TIP3    H145525   7.029   7.687   9.780
 7182TIP3    H245526   7.060   7.542   9.818
 7183TIP3   OH245527   6.022   7.802   9.507
 7183TIP3    H145528   6.070   7.734   9.456
 7183TIP3    H245529   6.089   7.830   9.571
 7184TIP3   OH245530   6.518   7.822   9.750
 7184TIP3    H145531   6.549   7.765   9.822
 7184TIP3    H245532   6.528   7.908   9.797
 7185TIP3   OH245533   7.968   7.839  10.624
 7185TIP3    H145534   7.971   7.907  10.552
 7185TIP3    H245535   7.918   7.883  10.694
 7186TIP3   OH245536   7.981   8.014  10.437
 7186TIP3    H145537   8.008   8.106  10.454
 7186TIP3    H245538   8.011   7.998  10.346
 7187TIP3   OH245539   7.565   7.908  10.138
 7187TIP3    H145540   7.631   7.905  10.211
 7187TIP3    H245541   7.614   7.875  10.059
 7188TIP3   OH245542   7.671   7.950   9.662
 7188TIP3    H145543   7.735   8.014   9.626
 7188TIP3    H245544   7.620   8.018   9.710
 7189TIP3   OH245545   7.964   7.822   9.975
 7189TIP3    H145546   7.964   7.727   9.999
 7189TIP3    H245547   8.059   7.836   9.964
 7190TIP3   OH245548   7.809   7.932  10.827
 7190TIP3    H145549   7.719   7.960  10.809
 7190TIP3    H245550   7.802   7.844  10.867
 7191TIP3   OH245551   7.875   7.640  10.361
 7191TIP3    H145552   7.863   7.645  10.264
 7191TIP3    H245553   7.835   7.554  10.384
 7192TIP3   OH245554   7.734   7.880  10.353
 7192TIP3    H145555   7.781   7.797  10.376
 7192TIP3    H245556   7.788   7.945  10.399
 7193TIP3   OH245557   7.595   7.806   9.866
 7193TIP3    H145558   7.502   7.823   9.848
 7193TIP3    H245559   7.636   7.855   9.793
 7194TIP3   OH245560   7.589   7.672  10.691
 7194TIP3    H145561   7.523   7.658  10.762
 7194TIP3    H245562   7.545   7.742  10.639
 7195TIP3   OH245563   7.838   7.621  10.088
 7195TIP3    H145564   7.759   7.605  10.033
 7195TIP3    H245565   7.889   7.540  10.082
 7196TIP3   OH245566   7.719   7.602   9.652
 7196TIP3    H145567   7.769   7.672   9.606
 7196TIP3    H245568   7.664   7.657   9.711
 7197TIP3   OH245569   7.904   7.793   9.516
 7197TIP3    H145570   7.958   7.740   9.455
 7197TIP3    H245571   7.972   7.836   9.571
 7198TIP3   OH245572   1.212   1.001   0.685
 7198TIP3    H145573   1.209   1.099   0.684
 7198TIP3    H245574   1.137   0.977   0.627
 7199TIP3   OH245575   1.096   0.925   1.037
 7199TIP3    H145576   1.095   0.861   1.109
 7199TIP3    H245577   1.060   0.873   0.963
 7200TIP3   OH245578   0.348   0.883   1.204
 7200TIP3    H145579   0.346   0.816   1.278
 7200TIP3    H245580   0.413   0.945   1.240
 7201TIP3   OH245581   1.464   1.220   0.867
 7201TIP3    H145582   1.424   1.148   0.917
 7201TIP3    H245583   1.467   1.291   0.934
 7202TIP3   OH245584   0.421   1.339   1.044
 7202TIP3    H145585   0.397   1.252   1.007
 7202TIP3    H245586   0.518   1.325   1.046
 7203TIP3   OH245587   0.093   0.697   0.586
 7203TIP3    H145588   0.048   0.783   0.584
 7203TIP3    H245589   0.029   0.640   0.542
 7204TIP3   OH245590   0.180   0.921   0.821
 7204TIP3    H145591   0.179   0.825   0.841
 7204TIP3    H245592   0.223   0.923   0.733
 7205TIP3   OH245593   1.177   1.737   0.891
 7205TIP3    H145594   1.242   1.669   0.861
 7205TIP3    H245595   1.154   1.702   0.977
 7206TIP3   OH245596   0.935   1.165   1.087
 7206TIP3    H145597   0.967   1.103   1.020
 7206TIP3    H245598   1.017   1.181   1.137
 7207TIP3   OH245599   1.797   0.324   1.158
 7207TIP3    H145600   1.810   0.387   1.233
 7207TIP3    H245601   1.848   0.371   1.091
 7208TIP3   OH245602   1.251   0.612   1.118
 7208TIP3    H145603   1.267   0.515   1.118
 7208TIP3    H245604   1.240   0.626   1.022
 7209TIP3   OH245605   0.563   0.422   0.838
 7209TIP3    H145606   0.575   0.505   0.787
 7209TIP3    H245607   0.523   0.364   0.769
 7210TIP3   OH245608   1.335   0.429   0.674
 7210TIP3    H145609   1.400   0.399   0.743
 7210TIP3    H245610   1.392   0.486   0.620
 7211TIP3   OH245611   0.243   0.672   0.910
 7211TIP3    H145612   0.294   0.602   0.956
 7211TIP3    H245613   0.235   0.630   0.821
 7212TIP3   OH245614   0.735   0.817   0.848
 7212TIP3    H145615   0.808   0.761   0.881
 7212TIP3    H245616   0.690   0.752   0.791
 7213TIP3   OH245617   1.839   0.473   1.384
 7213TIP3    H145618   1.776   0.548   1.374
 7213TIP3    H245619   1.840   0.460   1.480
 7214TIP3   OH245620   0.456   0.315   1.236
 7214TIP3    H145621   0.423   0.374   1.165
 7214TIP3    H245622   0.390   0.334   1.308
 7215TIP3   OH245623   1.180   1.260   0.597
 7215TIP3    H145624   1.154   1.231   0.508
 7215TIP3    H245625   1.151   1.353   0.600
 7216TIP3   OH245626   0.704   1.075   1.261
 7216TIP3    H145627   0.638   1.141   1.290
 7216TIP3    H245628   0.777   1.135   1.236
 7217TIP3   OH245629   1.516   0.368   0.875
 7217TIP3    H145630   1.493   0.289   0.926
 7217TIP3    H245631   1.586   0.406   0.930
 7218TIP3   OH245632   0.411   0.503   1.043
 7218TIP3    H145633   0.478   0.565   1.079
 7218TIP3    H245634   0.463   0.458   0.971
 7219TIP3   OH245635   0.548   1.274   1.343
 7219TIP3    H145636   0.544   1.368   1.315
 7219TIP3    H245637   0.462   1.269   1.391
 7220TIP3   OH245638   0.153   1.237   0.422
 7220TIP3    H145639   0.131   1.273   0.336
 7220TIP3    H245640   0.164   1.317   0.478
 7221TIP3   OH245641   1.517   1.404   1.103
 7221TIP3    H145642   1.420   1.416   1.115
 7221TIP3    H245643   1.545   1.495   1.082
 7222TIP3   OH245644   1.552   0.242   1.257
 7222TIP3    H145645   1.477   0.296   1.230
 7222TIP3    H245646   1.620   0.266   1.190
 7223TIP3   OH245647   0.840   0.055   0.953
 7223TIP3    H145648   0.847  -0.036   0.988
 7223TIP3    H245649   0.766   0.084   1.009
 7224TIP3   OH245650   1.345   1.582   0.765
 7224TIP3    H145651   1.385   1.510   0.712
 7224TIP3    H245652   1.389   1.661   0.725
 7225TIP3   OH245653   1.465   1.375   0.615
 7225TIP3    H145654   1.436   1.307   0.552
 7225TIP3    H245655   1.468   1.324   0.698
 7226TIP3   OH245656   1.625   1.236   1.463
 7226TIP3    H145657   1.642   1.169   1.392
 7226TIP3    H245658   1.648   1.319   1.417
 7227TIP3   OH245659   1.076   0.920   0.437
 7227TIP3    H145660   1.009   0.982   0.403
 7227TIP3    H245661   1.148   0.934   0.373
 7228TIP3   OH245662   1.084   0.779   0.142
 7228TIP3    H145663   1.156   0.782   0.208
 7228TIP3    H245664   1.114   0.706   0.087
 7229TIP3   OH245665   1.811   0.863   1.262
 7229TIP3    H145666   1.753   0.942   1.271
 7229TIP3    H245667   1.866   0.890   1.186
 7230TIP3   OH245668   1.422   0.945   0.533
 7230TIP3    H145669   1.347   0.969   0.592
 7230TIP3    H245670   1.470   0.877   0.585
 7231TIP3   OH245671   1.414   0.761   1.445
 7231TIP3    H145672   1.415   0.844   1.496
 7231TIP3    H245673   1.352   0.789   1.375
 7232TIP3   OH245674   0.581   1.011   0.725
 7232TIP3    H145675   0.551   0.973   0.638
 7232TIP3    H245676   0.646   0.942   0.755
 7233TIP3   OH245677   0.710   1.345   0.993
 7233TIP3    H145678   0.716   1.299   0.908
 7233TIP3    H245679   0.792   1.313   1.037
 7234TIP3   OH245680   0.609   0.890   1.085
 7234TIP3    H145681   0.672   0.892   1.010
 7234TIP3    H245682   0.653   0.951   1.150
 7235TIP3   OH245683   1.257   1.444   1.160
 7235TIP3    H145684   1.229   1.507   1.227
 7235TIP3    H245685   1.232   1.358   1.202
 7236TIP3   OH245686   0.711   1.329   1.558
 7236TIP3    H145687   0.667   1.402   1.608
 7236TIP3    H245688   0.643   1.308   1.489
 7237TIP3   OH245689   1.308   0.864   0.298
 7237TIP3    H145690   1.363   0.884   0.378
 7237TIP3    H245691   1.354   0.916   0.227
 7238TIP3   OH245692   0.404   0.944   1.474
 7238TIP3    H145693   0.411   1.011   1.544
 7238TIP3    H245694   0.308   0.953   1.455
 7239TIP3   OH245695   1.082   1.539   0.642
 7239TIP3    H145696   1.122   1.568   0.724
 7239TIP3    H245697   1.024   1.613   0.619
 7240TIP3   OH245698   0.538   1.527   1.632
 7240TIP3    H145699   0.528   1.522   1.535
 7240TIP3    H245700   0.445   1.521   1.663
 7241TIP3   OH245701   1.685   0.044   0.290
 7241TIP3    H145702   1.589   0.054   0.306
 7241TIP3    H245703   1.706   0.127   0.242
 7242TIP3   OH245704   0.482   0.913   0.485
 7242TIP3    H145705   0.451   0.991   0.434
 7242TIP3    H245706   0.417   0.846   0.461
 7243TIP3   OH245707   1.796   1.472   0.124
 7243TIP3    H145708   1.809   1.567   0.142
 7243TIP3    H245709   1.887   1.440   0.121
 7244TIP3   OH245710   0.139   1.105   1.340
 7244TIP3    H145711   0.062   1.151   1.304
 7244TIP3    H245712   0.094   1.046   1.403
 7245TIP3   OH245713   0.090   1.448   1.037
 7245TIP3    H145714   0.181   1.424   1.055
 7245TIP3    H245715   0.070   1.509   1.110
 7246TIP3   OH245716   1.886   1.501   1.621
 7246TIP3    H145717   1.879   1.404   1.618
 7246TIP3    H245718   1.799   1.523   1.660
 7247TIP3   OH245719   0.983   1.454   1.507
 7247TIP3    H145720   0.989   1.538   1.558
 7247TIP3    H245721   0.895   1.419   1.531
 7248TIP3   OH245722   1.027   1.828   0.488
 7248TIP3    H145723   1.019   1.823   0.392
 7248TIP3    H245724   1.031   1.925   0.504
 7249TIP3   OH245725   0.397   1.713   0.667
 7249TIP3    H145726   0.407   1.676   0.757
 7249TIP3    H245727   0.311   1.675   0.644
 7250TIP3   OH245728   1.328   1.745   0.192
 7250TIP3    H145729   1.383   1.676   0.148
 7250TIP3    H245730   1.340   1.720   0.285
 7251TIP3   OH245731   1.302   1.743   0.464
 7251TIP3    H145732   1.206   1.751   0.482
 7251TIP3    H245733   1.326   1.669   0.521
 7252TIP3   OH245734   1.601   0.649   1.669
 7252TIP3    H145735   1.555   0.693   1.596
 7252TIP3    H245736   1.601   0.557   1.639
 7253TIP3   OH245737   0.317   1.292   1.468
 7253TIP3    H145738   0.333   1.253   1.557
 7253TIP3    H245739   0.233   1.249   1.445
 7254TIP3   OH245740   0.587   0.140   1.058
 7254TIP3    H145741   0.499   0.135   1.016
 7254TIP3    H245742   0.571   0.218   1.114
 7255TIP3   OH245743   1.051   0.105   1.403
 7255TIP3    H145744   1.091   0.059   1.477
 7255TIP3    H245745   0.956   0.090   1.416
 7256TIP3   OH245746   1.376   0.482   1.489
 7256TIP3    H145747   1.321   0.466   1.569
 7256TIP3    H245748   1.362   0.576   1.467
 7257TIP3   OH245749   1.462   0.952   0.085
 7257TIP3    H145750   1.446   0.963  -0.010
 7257TIP3    H245751   1.538   1.010   0.092
 7258TIP3   OH245752   1.018   0.360   0.137
 7258TIP3    H145753   0.978   0.353   0.226
 7258TIP3    H245754   0.981   0.277   0.102
 7259TIP3   OH245755   0.595   0.634   1.190
 7259TIP3    H145756   0.522   0.633   1.255
 7259TIP3    H245757   0.592   0.724   1.153
 7260TIP3   OH245758   0.591   0.646   0.678
 7260TIP3    H145759   0.498   0.620   0.663
 7260TIP3    H245760   0.629   0.618   0.593
 7261TIP3   OH245761   1.144   0.694   0.549
 7261TIP3    H145762   1.106   0.778   0.514
 7261TIP3    H245763   1.214   0.677   0.484
 7262TIP3   OH245764   1.049   0.716   1.694
 7262TIP3    H145765   0.996   0.639   1.728
 7262TIP3    H245766   1.132   0.704   1.743
 7263TIP3   OH245767   1.247   0.645   0.837
 7263TIP3    H145768   1.218   0.701   0.764
 7263TIP3    H245769   1.256   0.559   0.791
 7264TIP3   OH245770   0.355   0.660   1.355
 7264TIP3    H145771   0.362   0.698   1.445
 7264TIP3    H245772   0.312   0.576   1.376
 7265TIP3   OH245773   0.698   0.308   0.053
 7265TIP3    H145774   0.660   0.325   0.142
 7265TIP3    H245775   0.642   0.378   0.014
 7266TIP3   OH245776   0.052   0.403   0.765
 7266TIP3    H145777   0.102   0.367   0.841
 7266TIP3    H245778   0.066   0.336   0.699
 7267TIP3   OH245779   0.150   0.452   0.293
 7267TIP3    H145780   0.204   0.509   0.234
 7267TIP3    H245781   0.080   0.511   0.323
 7268TIP3   OH245782   1.165   0.801   1.291
 7268TIP3    H145783   1.205   0.732   1.234
 7268TIP3    H245784   1.119   0.749   1.359
 7269TIP3   OH245785   0.848   0.404   0.776
 7269TIP3    H145786   0.755   0.398   0.803
 7269TIP3    H245787   0.896   0.381   0.858
 7270TIP3   OH245788   0.331   0.557   0.666
 7270TIP3    H145789   0.243   0.571   0.625
 7270TIP3    H245790   0.356   0.473   0.624
 7271TIP3   OH245791   0.690   0.562   0.430
 7271TIP3    H145792   0.787   0.569   0.443
 7271TIP3    H245793   0.667   0.626   0.361
 7272TIP3   OH245794   1.289   0.331   1.095
 7272TIP3    H145795   1.221   0.327   1.166
 7272TIP3    H245796   1.241   0.293   1.020
 7273TIP3   OH245797   0.557   0.688   0.189
 7273TIP3    H145798   0.511   0.639   0.119
 7273TIP3    H245799   0.642   0.695   0.143
 7274TIP3   OH245800   1.605   1.893   1.736
 7274TIP3    H145801   1.634   1.921   1.647
 7274TIP3    H245802   1.684   1.916   1.787
 7275TIP3   OH245803   0.380   1.131   1.694
 7275TIP3    H145804   0.451   1.159   1.755
 7275TIP3    H245805   0.302   1.143   1.751
 7276TIP3   OH245806   0.975   0.676   0.965
 7276TIP3    H145807   1.035   0.623   0.912
 7276TIP3    H245808   0.960   0.621   1.043
 7277TIP3   OH245809   0.477   0.290   0.610
 7277TIP3    H145810   0.443   0.199   0.610
 7277TIP3    H245811   0.555   0.280   0.553
 7278TIP3   OH245812   0.838   0.508   1.208
 7278TIP3    H145813   0.756   0.562   1.215
 7278TIP3    H245814   0.895   0.544   1.278
 7279TIP3   OH245815   0.898   1.127   0.378
 7279TIP3    H145816   0.817   1.083   0.343
 7279TIP3    H245817   0.873   1.143   0.471
 7280TIP3   OH245818   1.618   1.052   1.257
 7280TIP3    H145819   1.675   1.100   1.195
 7280TIP3    H245820   1.532   1.055   1.210
 7281TIP3   OH245821   1.282   0.419   0.178
 7281TIP3    H145822   1.186   0.425   0.182
 7281TIP3    H245823   1.316   0.494   0.233
 7282TIP3   OH245824   1.047   1.159   1.501
 7282TIP3    H145825   1.012   1.115   1.579
 7282TIP3    H245826   1.020   1.250   1.513
 7283TIP3   OH245827   1.352   0.602   0.361
 7283TIP3    H145828   1.442   0.587   0.396
 7283TIP3    H245829   1.364   0.683   0.309
 7284TIP3   OH245830   0.438   1.087   0.937
 7284TIP3    H145831   0.496   1.077   0.858
 7284TIP3    H245832   0.466   1.010   0.986
 7285TIP3   OH245833   1.108   1.277   0.281
 7285TIP3    H145834   1.072   1.362   0.313
 7285TIP3    H245835   1.034   1.215   0.301
 7286TIP3   OH245836   0.119   0.892   1.478
 7286TIP3    H145837   0.126   0.862   1.570
 7286TIP3    H245838   0.040   0.848   1.443
 7287TIP3   OH245839   0.808   0.867   1.698
 7287TIP3    H145840   0.775   0.834   1.613
 7287TIP3    H245841   0.900   0.833   1.699
 7288TIP3   OH245842   1.279   1.401   1.497
 7288TIP3    H145843   1.186   1.418   1.473
 7288TIP3    H245844   1.274   1.430   1.590
 7289TIP3   OH245845   1.844   0.620   0.336
 7289TIP3    H145846   1.786   0.589   0.263
 7289TIP3    H245847   1.850   0.714   0.309
 7290TIP3   OH245848   1.842   1.202   1.616
 7290TIP3    H145849   1.755   1.226   1.577
 7290TIP3    H245850   1.899   1.198   1.535
 7291TIP3   OH245851   1.678   1.499   0.375
 7291TIP3    H145852   1.637   1.417   0.406
 7291TIP3    H245853   1.701   1.481   0.282
 7292TIP3   OH245854   1.395   0.982   1.085
 7292TIP3    H145855   1.300   0.962   1.074
 7292TIP3    H245856   1.437   0.906   1.040
 7293TIP3   OH245857   0.647   1.414   0.696
 7293TIP3    H145858   0.696   1.496   0.675
 7293TIP3    H245859   0.559   1.438   0.662
 7294TIP3   OH245860   0.217   0.900   0.150
 7294TIP3    H145861   0.281   0.960   0.193
 7294TIP3    H245862   0.133   0.935   0.181
 7295TIP3   OH245863   0.787   1.182   0.646
 7295TIP3    H145864   0.755   1.273   0.655
 7295TIP3    H245865   0.716   1.132   0.691
 7296TIP3   OH245866   0.832   1.601   1.289
 7296TIP3    H145867   0.879   1.680   1.259
 7296TIP3    H245868   0.895   1.566   1.355
 7297TIP3   OH245869   0.655   1.680   0.600
 7297TIP3    H145870   0.559   1.695   0.613
 7297TIP3    H245871   0.692   1.765   0.632
 7298TIP3   OH245872   1.183   1.199   1.249
 7298TIP3    H145873   1.153   1.180   1.340
 7298TIP3    H245874   1.248   1.129   1.232
 7299TIP3   OH245875   1.412   1.304   0.159
 7299TIP3    H145876   1.449   1.261   0.238
 7299TIP3    H245877   1.319   1.287   0.174
 7300TIP3   OH245878   1.468   1.658   1.498
 7300TIP3    H145879   1.397   1.609   1.451
 7300TIP3    H245880   1.485   1.728   1.431
 7301TIP3   OH245881   1.865   1.745   0.183
 7301TIP3    H145882   1.936   1.808   0.166
 7301TIP3    H245883   1.793   1.806   0.211
 7302TIP3   OH245884   0.274   0.383   1.434
 7302TIP3    H145885   0.184   0.418   1.441
 7302TIP3    H245886   0.261   0.299   1.483
 7303TIP3   OH245887   1.496   1.171   0.388
 7303TIP3    H145888   1.472   1.091   0.438
 7303TIP3    H245889   1.592   1.173   0.400
 7304TIP3   OH245890   0.235   1.562   1.277
 7304TIP3    H145891   0.266   1.470   1.282
 7304TIP3    H245892   0.258   1.593   1.365
 7305TIP3   OH245893   0.706   1.369   0.254
 7305TIP3    H145894   0.739   1.317   0.328
 7305TIP3    H245895   0.718   1.462   0.285
 7306TIP3   OH245896   0.360   1.092   0.302
 7306TIP3    H145897   0.290   1.130   0.360
 7306TIP3    H245898   0.410   1.170   0.274
 7307TIP3   OH245899   1.146   0.360   1.335
 7307TIP3    H145900   1.218   0.363   1.399
 7307TIP3    H245901   1.111   0.271   1.352
 7308TIP3   OH245902   1.228   0.313   0.447
 7308TIP3    H145903   1.244   0.365   0.367
 7308TIP3    H245904   1.277   0.366   0.512
 7309TIP3   OH245905   0.986   1.531   0.320
 7309TIP3    H145906   0.907   1.588   0.336
 7309TIP3    H245907   1.043   1.586   0.265
 7310TIP3   OH245908   0.943   0.493   0.525
 7310TIP3    H145909   1.021   0.552   0.529
 7310TIP3    H245910   0.916   0.482   0.619
 7311TIP3   OH245911   0.999   0.597   1.443
 7311TIP3    H145912   1.007   0.651   1.525
 7311TIP3    H245913   1.063   0.525   1.453
 7312TIP3   OH245914   1.032   0.200   0.618
 7312TIP3    H145915   0.995   0.268   0.677
 7312TIP3    H245916   1.097   0.254   0.568
 7313TIP3   OH245917   0.726   1.639   0.329
 7313TIP3    H145918   0.743   1.721   0.276
 7313TIP3    H245919   0.700   1.674   0.416
 7314TIP3   OH245920   0.589   0.309   0.295
 7314TIP3    H145921   0.589   0.402   0.321
 7314TIP3    H245922   0.683   0.286   0.308
 7315TIP3   OH245923   1.615   0.386   1.527
 7315TIP3    H145924   1.521   0.415   1.513
 7315TIP3    H245925   1.645   0.377   1.435
 7316TIP3   OH245926   1.478   0.761   0.927
 7316TIP3    H145927   1.395   0.716   0.901
 7316TIP3    H245928   1.527   0.693   0.979
 7317TIP3   OH245929   0.420   1.353   0.187
 7317TIP3    H145930   0.486   1.415   0.222
 7317TIP3    H245931   0.471   1.307   0.119
 7318TIP3   OH245932   0.251   0.623   0.101
 7318TIP3    H145933   0.248   0.719   0.122
 7318TIP3    H245934   0.164   0.601   0.068
 7319TIP3   OH245935   1.584   1.688   1.096
 7319TIP3    H145936   1.576   1.756   1.025
 7319TIP3    H245937   1.681   1.692   1.113
 7320TIP3   OH245938   0.318   0.123   0.963
 7320TIP3    H145939   0.303   0.108   0.867
 7320TIP3    H245940   0.300   0.034   1.000
 7321TIP3   OH245941   0.229   1.488   0.590
 7321TIP3    H145942   0.146   1.536   0.587
 7321TIP3    H245943   0.278   1.537   0.522
 7322TIP3   OH245944   0.151   1.754   1.719
 7322TIP3    H145945   0.210   1.729   1.793
 7322TIP3    H245946   0.106   1.669   1.699
 7323TIP3   OH245947   0.617   1.645   1.878
 7323TIP3    H145948   0.694   1.599   1.913
 7323TIP3    H245949   0.616   1.620   1.784
 7324TIP3   OH245950   1.037   1.610   0.048
 7324TIP3    H145951   0.967   1.545   0.065
 7324TIP3    H245952   1.108   1.560   0.005
 7325TIP3   OH245953   1.267   1.487   1.756
 7325TIP3    H145954   1.235   1.398   1.783
 7325TIP3    H245955   1.344   1.499   1.814
 7326TIP3   OH245956   1.509   1.568   0.096
 7326TIP3    H145957   1.521   1.472   0.093
 7326TIP3    H245958   1.542   1.598   0.009
 7327TIP3   OH245959   0.141   1.137   1.822
 7327TIP3    H145960   0.157   1.046   1.791
 7327TIP3    H245961   0.071   1.163   1.761
 7328TIP3   OH245962   0.560   1.151   0.022
 7328TIP3    H145963   0.591   1.084   0.084
 7328TIP3    H245964   0.638   1.157  -0.036
 7329TIP3   OH245965   0.813   1.133   1.756
 7329TIP3    H145966   0.779   1.165   1.670
 7329TIP3    H245967   0.818   1.035   1.745
 7330TIP3   OH245968   1.378   1.118   1.497
 7330TIP3    H145969   1.459   1.174   1.492
 7330TIP3    H245970   1.310   1.187   1.500
 7331TIP3   OH245971   0.217   0.854   1.759
 7331TIP3    H145972   0.275   0.776   1.749
 7331TIP3    H245973   0.205   0.856   1.855
 7332TIP3   OH245974   0.696   0.973   0.262
 7332TIP3    H145975   0.646   0.917   0.324
 7332TIP3    H245976   0.729   0.904   0.199
 7333TIP3   OH245977   0.622   0.749   1.493
 7333TIP3    H145978   0.563   0.822   1.519
 7333TIP3    H245979   0.666   0.787   1.415
 7334TIP3   OH245980   0.805   0.796   0.090
 7334TIP3    H145981   0.785   0.780  -0.005
 7334TIP3    H245982   0.902   0.802   0.093
 7335TIP3   OH245983   1.130   1.008   1.827
 7335TIP3    H145984   1.226   1.005   1.812
 7335TIP3    H245985   1.113   0.931   1.883
 7336TIP3   OH245986   1.734   1.022  11.009
 7336TIP3    H145987   1.718   0.984  10.923
 7336TIP3    H245988   1.741   1.117  10.988
 7337TIP3   OH245989   0.666   0.491   1.598
 7337TIP3    H145990   0.676   0.421   1.531
 7337TIP3    H245991   0.656   0.572   1.543
 7338TIP3   OH245992   0.704   0.328   1.353
 7338TIP3    H145993   0.755   0.374   1.282
 7338TIP3    H245994   0.615   0.320   1.313
 7339TIP3   OH245995   0.856   0.877   1.376
 7339TIP3    H145996   0.933   0.860   1.320
 7339TIP3    H245997   0.820   0.960   1.342
 7340TIP3   OH245998   1.296   0.650   1.872
 7340TIP3    H145999   1.321   0.557   1.863
 7340TIP3    H246000   1.383   0.695   1.877
 7341TIP3   OH246001   1.431   0.933   1.692
 7341TIP3    H146002   1.405   1.003   1.629
 7341TIP3    H246003   1.527   0.928   1.672
 7342TIP3   OH246004   0.509   0.615   1.789
 7342TIP3    H146005   0.433   0.556   1.774
 7342TIP3    H246006   0.575   0.576   1.728
 7343TIP3   OH246007   0.773   0.079   1.395
 7343TIP3    H146008   0.763   0.177   1.383
 7343TIP3    H246009   0.698   0.042   1.349
 7344TIP3   OH246010   0.910   0.504   1.756
 7344TIP3    H146011   0.877   0.483   1.846
 7344TIP3    H246012   0.832   0.483   1.702
 7345TIP3   OH246013   1.182   0.424   1.666
 7345TIP3    H146014   1.085   0.421   1.675
 7345TIP3    H246015   1.210   0.357   1.731
 7346TIP3   OH246016   1.338   0.289   1.853
 7346TIP3    H146017   1.337   0.190   1.851
 7346TIP3    H246018   1.313   0.307   1.945
 7347TIP3   OH246019   0.322   0.407   1.765
 7347TIP3    H146020   0.346   0.333   1.706
 7347TIP3    H246021   0.313   0.362   1.852
 7348TIP3   OH246022   0.814   8.146   1.640
 7348TIP3    H146023   0.881   8.075   1.645
 7348TIP3    H246024   0.791   8.132   1.546
 7349TIP3   OH246025   0.839   0.176   1.874
 7349TIP3    H146026   0.825   0.131   1.788
 7349TIP3    H246027   0.780   0.254   1.865
 7350TIP3   OH246028   0.787   1.865   0.195
 7350TIP3    H146029   0.884   1.872   0.199
 7350TIP3    H246030   0.765   1.928   0.125
 7351TIP3   OH246031   0.151   1.317   0.139
 7351TIP3    H146032   0.247   1.334   0.156
 7351TIP3    H246033   0.155   1.258   0.064
 7352TIP3   OH246034   0.035   1.869   0.624
 7352TIP3    H146035  -0.046   1.821   0.595
 7352TIP3    H246036   0.054   1.808   0.698
 7353TIP3   OH246037   0.123   1.674   0.815
 7353TIP3    H146038   0.075   1.591   0.832
 7353TIP3    H246039   0.134   1.711   0.905
 7354TIP3   OH246040   1.856   1.752   1.116
 7354TIP3    H146041   1.862   1.765   1.212
 7354TIP3    H246042   1.926   1.810   1.085
 7355TIP3   OH246043   1.812   1.710   1.412
 7355TIP3    H146044   1.767   1.634   1.371
 7355TIP3    H246045   1.863   1.663   1.481
 7356TIP3   OH246046   1.657   1.283   1.879
 7356TIP3    H146047   1.567   1.281   1.914
 7356TIP3    H246048   1.695   1.364   1.918
 7357TIP3   OH246049   1.792   1.115   0.419
 7357TIP3    H146050   1.877   1.156   0.441
 7357TIP3    H246051   1.788   1.045   0.488
 7358TIP3   OH246052   1.825   0.925   0.610
 7358TIP3    H146053   1.750   0.875   0.648
 7358TIP3    H246054   1.885   0.937   0.686
 7359TIP3   OH246055   1.800   1.194   1.106
 7359TIP3    H146056   1.881   1.155   1.068
 7359TIP3    H246057   1.817   1.289   1.092
 7360TIP3   OH246058   1.658   1.484   1.334
 7360TIP3    H146059   1.589   1.519   1.392
 7360TIP3    H246060   1.603   1.444   1.263
 7361TIP3   OH246061   1.855   0.906   0.243
 7361TIP3    H146062   1.794   0.941   0.174
 7361TIP3    H246063   1.843   0.975   0.312
 7362TIP3   OH246064   1.693   0.633   0.098
 7362TIP3    H146065   1.693   0.699   0.028
 7362TIP3    H246066   1.671   0.549   0.054
 7363TIP3   OH246067   1.608   0.771   0.667
 7363TIP3    H146068   1.593   0.676   0.661
 7363TIP3    H246069   1.576   0.791   0.757
 7364TIP3   OH246070   0.089   0.976   1.075
 7364TIP3    H146071   0.109   0.970   0.979
 7364TIP3    H246072   0.168   0.967   1.131
 7365TIP3   OH246073   1.694   0.968   1.639
 7365TIP3    H146074   1.756   0.892   1.647
 7365TIP3    H246075   1.754   1.045   1.635
 7366TIP3   OH246076   1.842   0.754   1.702
 7366TIP3    H146077   1.754   0.715   1.685
 7366TIP3    H246078   1.900   0.676   1.693
 7367TIP3   OH246079   1.595   0.363   0.121
 7367TIP3    H146080   1.681   0.332   0.089
 7367TIP3    H246081   1.540   0.333   0.049
 7368TIP3   OH246082   1.571   0.534   0.511
 7368TIP3    H146083   1.601   0.441   0.521
 7368TIP3    H246084   1.652   0.572   0.473
 7369TIP3   OH246085   1.638   0.586   1.055
 7369TIP3    H146086   1.734   0.605   1.055
 7369TIP3    H246087   1.620   0.594   1.150
 7370TIP3   OH246088   1.644   0.658   1.333
 7370TIP3    H146089   1.556   0.686   1.365
 7370TIP3    H246090   1.688   0.743   1.311
 7371TIP3   OH246091   0.089   0.476   1.652
 7371TIP3    H146092   0.173   0.479   1.701
 7371TIP3    H246093   0.031   0.429   1.712
 7372TIP3   OH246094   1.885   0.072   1.884
 7372TIP3    H146095   1.898   0.005   1.815
 7372TIP3    H246096   1.878   0.148   1.824
 7373TIP3   OH246097   1.637   0.264   0.516
 7373TIP3    H146098   1.662   0.218   0.600
 7373TIP3    H246099   1.578   0.199   0.473
 7374TIP3   OH246100   0.186   0.345   0.979
 7374TIP3    H146101   0.235   0.262   0.996
 7374TIP3    H246102   0.246   0.411   1.017
 7375TIP3   OH246103   0.044   0.647   1.085
 7375TIP3    H146104   0.085   0.623   1.001
 7375TIP3    H246105   0.072   0.736   1.102
 7376TIP3   OH246106   1.827   0.277   1.701
 7376TIP3    H146107   1.731   0.298   1.698
 7376TIP3    H246108   1.826   0.215   1.626
 7377TIP3   OH246109   1.835   0.256   0.177
 7377TIP3    H146110   1.871   0.191   0.115
 7377TIP3    H246111   1.899   0.328   0.181
 7378TIP3   OH246112   0.070   0.246   0.442
 7378TIP3    H146113  -0.023   0.271   0.450
 7378TIP3    H246114   0.110   0.322   0.396
 7379TIP3   OH246115   1.528   1.759   0.678
 7379TIP3    H146116   1.596   1.730   0.614
 7379TIP3    H246117   1.579   1.809   0.743
 7380TIP3   OH246118   0.054   0.120   1.309
 7380TIP3    H146119  -0.009   0.106   1.380
 7380TIP3    H246120   0.010   0.197   1.267
 7381TIP3   OH246121   0.273   1.451   1.729
 7381TIP3    H146122   0.189   1.473   1.687
 7381TIP3    H246123   0.250   1.449   1.823
 7382TIP3   OH246124   0.560   1.549   1.353
 7382TIP3    H146125   0.529   1.638   1.329
 7382TIP3    H246126   0.654   1.559   1.327
 7383TIP3   OH246127   0.996   1.693   1.647
 7383TIP3    H146128   1.008   1.659   1.739
 7383TIP3    H246129   1.086   1.723   1.623
 7384TIP3   OH246130   1.223   1.819   1.577
 7384TIP3    H146131   1.298   1.762   1.554
 7384TIP3    H246132   1.259   1.862   1.657
 7385TIP3   OH246133   1.709   0.105   1.493
 7385TIP3    H146134   1.624   0.122   1.450
 7385TIP3    H246135   1.722   0.012   1.470
 7386TIP3   OH246136   0.304   1.874   1.356
 7386TIP3    H146137   0.230   1.925   1.318
 7386TIP3    H246138   0.272   1.860   1.446
 7387TIP3   OH246139   0.555   1.832   1.264
 7387TIP3    H146140   0.466   1.846   1.303
 7387TIP3    H246141   0.548   1.892   1.188
 7388TIP3   OH246142   1.023   1.822   1.179
 7388TIP3    H146143   0.977   1.879   1.115
 7388TIP3    H246144   1.036   1.885   1.254
 7389TIP3   OH246145   1.251   1.703   1.285
 7389TIP3    H146146   1.167   1.732   1.246
 7389TIP3    H246147   1.301   1.785   1.276
 7390TIP3   OH246148   1.509   1.860   1.305
 7390TIP3    H146149   1.506   1.956   1.282
 7390TIP3    H246150   1.532   1.823   1.217
 7391TIP3   OH246151   0.255   1.743   1.047
 7391TIP3    H146152   0.241   1.698   1.133
 7391TIP3    H246153   0.335   1.700   1.010
 7392TIP3   OH246154   0.460   1.611   0.915
 7392TIP3    H146155   0.444   1.518   0.939
 7392TIP3    H246156   0.545   1.627   0.961
 7393TIP3   OH246157   0.719   1.658   1.005
 7393TIP3    H146158   0.735   1.565   0.978
 7393TIP3    H246159   0.726   1.653   1.101
 7394TIP3   OH246160   1.060   0.232   0.913
 7394TIP3    H146161   0.999   0.163   0.945
 7394TIP3    H246162   1.123   0.176   0.864
 7395TIP3   OH246163   1.580   0.067   0.942
 7395TIP3    H146164   1.643   0.092   0.871
 7395TIP3    H246165   1.493   0.062   0.900
 7396TIP3   OH246166   1.747   0.162   0.745
 7396TIP3    H146167   1.810   0.095   0.713
 7396TIP3    H246168   1.800   0.243   0.761
 7397TIP3   OH246169   0.305   0.088   0.699
 7397TIP3    H146170   0.225   0.069   0.647
 7397TIP3    H246171   0.348   0.002   0.696
 7398TIP3   OH246172   0.210   0.105   0.284
 7398TIP3    H146173   0.227   0.159   0.206
 7398TIP3    H246174   0.129   0.143   0.324
 7399TIP3   OH246175   0.744   0.091   0.680
 7399TIP3    H146176   0.837   0.118   0.672
 7399TIP3    H246177   0.750   0.057   0.770
 7400TIP3   OH246178   1.316   0.084   0.844
 7400TIP3    H146179   1.316   0.088   0.748
 7400TIP3    H246180   1.289  -0.009   0.858
 7401TIP3   OH246181   1.429   0.095   0.374
 7401TIP3    H146182   1.362   0.161   0.398
 7401TIP3    H246183   1.405   0.021   0.430
 7402TIP3   OH246184   0.171   1.662   0.375
 7402TIP3    H146185   0.106   1.660   0.304
 7402TIP3    H246186   0.171   1.757   0.392
 7403TIP3   OH246187   0.365   0.259   0.119
 7403TIP3    H146188   0.418   0.193   0.073
 7403TIP3    H246189   0.431   0.285   0.185
 7404TIP3   OH246190   0.864   0.284   0.362
 7404TIP3    H146191   0.891   0.224   0.433
 7404TIP3    H246192   0.872   0.368   0.412
 7405TIP3   OH246193   1.055   1.801   0.213
 7405TIP3    H146194   1.151   1.810   0.197
 7405TIP3    H246195   1.037   1.741   0.137
 7406TIP3   OH246196   1.727   1.740   0.481
 7406TIP3    H146197   1.707   1.660   0.426
 7406TIP3    H246198   1.719   1.813   0.415
 7407TIP3   OH246199   0.291   0.151   1.657
 7407TIP3    H146200   0.259   0.064   1.683
 7407TIP3    H246201   0.386   0.136   1.679
 7408TIP3   OH246202   0.498   0.085   1.824
 7408TIP3    H146203   0.579   0.051   1.785
 7408TIP3    H246204   0.449   0.002   1.838
 7409TIP3   OH246205   0.350   1.745   0.070
 7409TIP3    H146206   0.326   1.783   0.155
 7409TIP3    H246207   0.433   1.701   0.088
 7410TIP3   OH246208   1.343   8.110   1.831
 7410TIP3    H146209   1.341   8.043   1.901
 7410TIP3    H246210   1.426   8.087   1.786
 7411TIP3   OH246211   1.651   1.611   1.688
 7411TIP3    H146212   1.571   1.599   1.633
 7411TIP3    H246213   1.641   1.705   1.710
 7412TIP3   OH246214   3.097   1.001   0.685
 7412TIP3    H146215   3.095   1.099   0.684
 7412TIP3    H246216   3.023   0.977   0.627
 7413TIP3   OH246217   2.982   0.925   1.037
 7413TIP3    H146218   2.981   0.861   1.109
 7413TIP3    H246219   2.946   0.873   0.963
 7414TIP3   OH246220   2.219   0.894   1.191
 7414TIP3    H146221   2.225   0.826   1.261
 7414TIP3    H246222   2.291   0.953   1.218
 7415TIP3   OH246223   3.350   1.221   0.867
 7415TIP3    H146224   3.309   1.149   0.916
 7415TIP3    H246225   3.353   1.291   0.934
 7416TIP3   OH246226   2.309   1.340   1.035
 7416TIP3    H146227   2.279   1.250   1.013
 7416TIP3    H246228   2.404   1.322   1.049
 7417TIP3   OH246229   1.973   0.694   0.592
 7417TIP3    H146230   1.929   0.780   0.586
 7417TIP3    H246231   1.917   0.639   0.535
 7418TIP3   OH246232   2.045   0.919   0.808
 7418TIP3    H146233   2.072   0.835   0.851
 7418TIP3    H246234   2.113   0.928   0.740
 7419TIP3   OH246235   3.062   1.737   0.890
 7419TIP3    H146236   3.127   1.669   0.861
 7419TIP3    H246237   3.040   1.702   0.976
 7420TIP3   OH246238   2.819   1.164   1.086
 7420TIP3    H146239   2.852   1.103   1.019
 7420TIP3    H246240   2.901   1.179   1.137
 7421TIP3   OH246241   3.684   0.325   1.159
 7421TIP3    H146242   3.695   0.390   1.232
 7421TIP3    H246243   3.734   0.371   1.091
 7422TIP3   OH246244   3.136   0.612   1.118
 7422TIP3    H146245   3.153   0.515   1.118
 7422TIP3    H246246   3.126   0.626   1.022
 7423TIP3   OH246247   2.448   0.423   0.838
 7423TIP3    H146248   2.460   0.506   0.787
 7423TIP3    H246249   2.408   0.365   0.769
 7424TIP3   OH246250   3.221   0.429   0.674
 7424TIP3    H146251   3.285   0.399   0.742
 7424TIP3    H246252   3.278   0.486   0.620
 7425TIP3   OH246253   2.109   0.664   0.911
 7425TIP3    H146254   2.176   0.610   0.957
 7425TIP3    H246255   2.120   0.632   0.820
 7426TIP3   OH246256   2.625   0.818   0.844
 7426TIP3    H146257   2.693   0.760   0.882
 7426TIP3    H246258   2.574   0.753   0.792
 7427TIP3   OH246259   3.726   0.476   1.384
 7427TIP3    H146260   3.660   0.548   1.372
 7427TIP3    H246261   3.725   0.461   1.480
 7428TIP3   OH246262   2.339   0.314   1.237
 7428TIP3    H146263   2.309   0.374   1.165
 7428TIP3    H246264   2.272   0.335   1.308
 7429TIP3   OH246265   3.066   1.260   0.597
 7429TIP3    H146266   3.039   1.231   0.509
 7429TIP3    H246267   3.037   1.354   0.600
 7430TIP3   OH246268   2.593   1.073   1.262
 7430TIP3    H146269   2.521   1.136   1.288
 7430TIP3    H246270   2.661   1.137   1.236
 7431TIP3   OH246271   3.401   0.369   0.875
 7431TIP3    H146272   3.378   0.289   0.926
 7431TIP3    H246273   3.471   0.408   0.931
 7432TIP3   OH246274   2.295   0.503   1.043
 7432TIP3    H146275   2.360   0.568   1.077
 7432TIP3    H246276   2.346   0.459   0.970
 7433TIP3   OH246277   2.440   1.270   1.336
 7433TIP3    H146278   2.432   1.366   1.315
 7433TIP3    H246279   2.357   1.263   1.389
 7434TIP3   OH246280   2.041   1.235   0.425
 7434TIP3    H146281   2.019   1.271   0.336
 7434TIP3    H246282   2.049   1.317   0.478
 7435TIP3   OH246283   3.403   1.405   1.103
 7435TIP3    H146284   3.306   1.416   1.115
 7435TIP3    H246285   3.429   1.497   1.083
 7436TIP3   OH246286   3.438   0.239   1.253
 7436TIP3    H146287   3.363   0.296   1.231
 7436TIP3    H246288   3.506   0.268   1.190
 7437TIP3   OH246289   2.725   0.055   0.953
 7437TIP3    H146290   2.733  -0.035   0.988
 7437TIP3    H246291   2.651   0.084   1.009
 7438TIP3   OH246292   3.231   1.582   0.765
 7438TIP3    H146293   3.271   1.510   0.712
 7438TIP3    H246294   3.275   1.661   0.725
 7439TIP3   OH246295   3.351   1.375   0.615
 7439TIP3    H146296   3.322   1.307   0.552
 7439TIP3    H246297   3.354   1.324   0.698
 7440TIP3   OH246298   3.511   1.236   1.463
 7440TIP3    H146299   3.527   1.169   1.392
 7440TIP3    H246300   3.533   1.319   1.417
 7441TIP3   OH246301   2.962   0.920   0.437
 7441TIP3    H146302   2.894   0.982   0.403
 7441TIP3    H246303   3.034   0.934   0.373
 7442TIP3   OH246304   2.970   0.779   0.142
 7442TIP3    H146305   3.042   0.782   0.208
 7442TIP3    H246306   2.999   0.706   0.087
 7443TIP3   OH246307   3.701   0.867   1.267
 7443TIP3    H146308   3.635   0.939   1.270
 7443TIP3    H246309   3.752   0.890   1.186
 7444TIP3   OH246310   3.308   0.945   0.533
 7444TIP3    H146311   3.233   0.969   0.592
 7444TIP3    H246312   3.355   0.878   0.585
 7445TIP3   OH246313   3.300   0.761   1.445
 7445TIP3    H146314   3.300   0.844   1.496
 7445TIP3    H246315   3.238   0.790   1.375
 7446TIP3   OH246316   2.468   1.011   0.723
 7446TIP3    H146317   2.435   0.971   0.639
 7446TIP3    H246318   2.530   0.942   0.757
 7447TIP3   OH246319   2.600   1.349   0.991
 7447TIP3    H146320   2.599   1.297   0.909
 7447TIP3    H246321   2.678   1.313   1.037
 7448TIP3   OH246322   2.501   0.884   1.089
 7448TIP3    H146323   2.555   0.895   1.009
 7448TIP3    H246324   2.540   0.952   1.150
 7449TIP3   OH246325   3.144   1.444   1.162
 7449TIP3    H146326   3.112   1.505   1.227
 7449TIP3    H246327   3.117   1.358   1.202
 7450TIP3   OH246328   2.596   1.331   1.557
 7450TIP3    H146329   2.552   1.403   1.608
 7450TIP3    H246330   2.528   1.311   1.489
 7451TIP3   OH246331   3.194   0.865   0.298
 7451TIP3    H146332   3.249   0.884   0.378
 7451TIP3    H246333   3.239   0.916   0.227
 7452TIP3   OH246334   2.291   0.935   1.477
 7452TIP3    H146335   2.296   1.008   1.542
 7452TIP3    H246336   2.199   0.957   1.453
 7453TIP3   OH246337   2.968   1.539   0.642
 7453TIP3    H146338   3.008   1.568   0.724
 7453TIP3    H246339   2.910   1.613   0.619
 7454TIP3   OH246340   2.438   1.542   1.647
 7454TIP3    H146341   2.423   1.529   1.550
 7454TIP3    H246342   2.343   1.523   1.665
 7455TIP3   OH246343   3.574   0.048   0.295
 7455TIP3    H146344   3.476   0.047   0.305
 7455TIP3    H246345   3.590   0.127   0.240
 7456TIP3   OH246346   2.365   0.912   0.482
 7456TIP3    H146347   2.335   0.991   0.434
 7456TIP3    H246348   2.299   0.846   0.461
 7457TIP3   OH246349   3.682   1.472   0.124
 7457TIP3    H146350   3.694   1.567   0.142
 7457TIP3    H246351   3.773   1.440   0.121
 7458TIP3   OH246352   1.936   1.155   1.365
 7458TIP3    H146353   1.922   1.140   1.271
 7458TIP3    H246354   1.982   1.072   1.392
 7459TIP3   OH246355   1.952   1.430   1.052
 7459TIP3    H146356   2.047   1.418   1.054
 7459TIP3    H246357   1.942   1.511   1.104
 7460TIP3   OH246358   3.777   1.498   1.625
 7460TIP3    H146359   3.760   1.403   1.616
 7460TIP3    H246360   3.688   1.523   1.660
 7461TIP3   OH246361   2.870   1.453   1.508
 7461TIP3    H146362   2.873   1.537   1.559
 7461TIP3    H246363   2.782   1.418   1.531
 7462TIP3   OH246364   2.913   1.829   0.487
 7462TIP3    H146365   2.904   1.823   0.391
 7462TIP3    H246366   2.917   1.925   0.503
 7463TIP3   OH246367   2.277   1.717   0.668
 7463TIP3    H146368   2.293   1.676   0.756
 7463TIP3    H246369   2.193   1.675   0.645
 7464TIP3   OH246370   3.214   1.746   0.192
 7464TIP3    H146371   3.269   1.676   0.148
 7464TIP3    H246372   3.225   1.719   0.285
 7465TIP3   OH246373   3.188   1.743   0.464
 7465TIP3    H146374   3.092   1.751   0.482
 7465TIP3    H246375   3.212   1.669   0.521
 7466TIP3   OH246376   3.488   0.649   1.669
 7466TIP3    H146377   3.440   0.693   1.597
 7466TIP3    H246378   3.487   0.557   1.639
 7467TIP3   OH246379   2.160   1.178   1.486
 7467TIP3    H146380   2.213   1.239   1.542
 7467TIP3    H246381   2.110   1.249   1.443
 7468TIP3   OH246382   2.473   0.140   1.058
 7468TIP3    H146383   2.385   0.136   1.017
 7468TIP3    H246384   2.457   0.217   1.115
 7469TIP3   OH246385   2.936   0.106   1.404
 7469TIP3    H146386   2.977   0.059   1.477
 7469TIP3    H246387   2.841   0.090   1.416
 7470TIP3   OH246388   3.261   0.482   1.486
 7470TIP3    H146389   3.207   0.466   1.567
 7470TIP3    H246390   3.248   0.577   1.466
 7471TIP3   OH246391   3.347   0.952   0.085
 7471TIP3    H146392   3.332   0.963  -0.010
 7471TIP3    H246393   3.424   1.010   0.092
 7472TIP3   OH246394   2.903   0.360   0.137
 7472TIP3    H146395   2.864   0.352   0.225
 7472TIP3    H246396   2.867   0.277   0.102
 7473TIP3   OH246397   2.481   0.634   1.191
 7473TIP3    H146398   2.407   0.633   1.254
 7473TIP3    H246399   2.476   0.724   1.152
 7474TIP3   OH246400   2.477   0.643   0.677
 7474TIP3    H146401   2.383   0.619   0.662
 7474TIP3    H246402   2.514   0.616   0.591
 7475TIP3   OH246403   3.029   0.694   0.549
 7475TIP3    H146404   2.991   0.778   0.514
 7475TIP3    H246405   3.099   0.677   0.484
 7476TIP3   OH246406   2.934   0.716   1.696
 7476TIP3    H146407   2.882   0.638   1.726
 7476TIP3    H246408   3.018   0.704   1.743
 7477TIP3   OH246409   3.133   0.645   0.837
 7477TIP3    H146410   3.104   0.701   0.764
 7477TIP3    H246411   3.142   0.559   0.791
 7478TIP3   OH246412   2.244   0.656   1.355
 7478TIP3    H146413   2.252   0.698   1.442
 7478TIP3    H246414   2.198   0.573   1.378
 7479TIP3   OH246415   2.583   0.309   0.054
 7479TIP3    H146416   2.545   0.325   0.142
 7479TIP3    H246417   2.527   0.378   0.014
 7480TIP3   OH246418   1.911   0.376   0.756
 7480TIP3    H146419   1.978   0.370   0.827
 7480TIP3    H246420   1.954   0.334   0.680
 7481TIP3   OH246421   2.035   0.445   0.293
 7481TIP3    H146422   2.087   0.505   0.235
 7481TIP3    H246423   1.967   0.507   0.326
 7482TIP3   OH246424   3.052   0.801   1.291
 7482TIP3    H146425   3.091   0.732   1.233
 7482TIP3    H246426   3.004   0.749   1.358
 7483TIP3   OH246427   2.734   0.404   0.776
 7483TIP3    H146428   2.641   0.397   0.803
 7483TIP3    H246429   2.782   0.381   0.858
 7484TIP3   OH246430   2.213   0.555   0.663
 7484TIP3    H146431   2.125   0.569   0.623
 7484TIP3    H246432   2.241   0.471   0.624
 7485TIP3   OH246433   2.576   0.561   0.430
 7485TIP3    H146434   2.673   0.569   0.443
 7485TIP3    H246435   2.553   0.626   0.361
 7486TIP3   OH246436   3.175   0.327   1.095
 7486TIP3    H146437   3.107   0.327   1.166
 7486TIP3    H246438   3.126   0.293   1.020
 7487TIP3   OH246439   2.442   0.688   0.189
 7487TIP3    H146440   2.396   0.638   0.120
 7487TIP3    H246441   2.527   0.695   0.143
 7488TIP3   OH246442   3.489   1.889   1.729
 7488TIP3    H146443   3.529   1.929   1.649
 7488TIP3    H246444   3.561   1.917   1.789
 7489TIP3   OH246445   2.270   1.119   1.708
 7489TIP3    H146446   2.336   1.167   1.758
 7489TIP3    H246447   2.186   1.144   1.751
 7490TIP3   OH246448   2.860   0.676   0.965
 7490TIP3    H146449   2.921   0.623   0.912
 7490TIP3    H246450   2.846   0.621   1.043
 7491TIP3   OH246451   2.359   0.289   0.610
 7491TIP3    H146452   2.330   0.198   0.609
 7491TIP3    H246453   2.438   0.281   0.554
 7492TIP3   OH246454   2.724   0.508   1.207
 7492TIP3    H146455   2.642   0.562   1.215
 7492TIP3    H246456   2.781   0.544   1.278
 7493TIP3   OH246457   2.783   1.127   0.378
 7493TIP3    H146458   2.703   1.083   0.343
 7493TIP3    H246459   2.759   1.143   0.471
 7494TIP3   OH246460   3.503   1.052   1.257
 7494TIP3    H146461   3.558   1.100   1.193
 7494TIP3    H246462   3.417   1.054   1.211
 7495TIP3   OH246463   3.168   0.419   0.178
 7495TIP3    H146464   3.071   0.425   0.182
 7495TIP3    H246465   3.201   0.494   0.233
 7496TIP3   OH246466   2.931   1.159   1.500
 7496TIP3    H146467   2.899   1.115   1.580
 7496TIP3    H246468   2.906   1.252   1.513
 7497TIP3   OH246469   3.237   0.603   0.362
 7497TIP3    H146470   3.328   0.587   0.396
 7497TIP3    H246471   3.249   0.683   0.309
 7498TIP3   OH246472   2.295   1.072   0.957
 7498TIP3    H146473   2.362   1.062   0.887
 7498TIP3    H246474   2.300   0.985   1.002
 7499TIP3   OH246475   2.993   1.277   0.281
 7499TIP3    H146476   2.957   1.362   0.313
 7499TIP3    H246477   2.919   1.215   0.301
 7500TIP3   OH246478   1.992   0.907   1.482
 7500TIP3    H146479   2.010   0.865   1.568
 7500TIP3    H246480   1.930   0.847   1.438
 7501TIP3   OH246481   2.694   0.866   1.700
 7501TIP3    H146482   2.662   0.834   1.614
 7501TIP3    H246483   2.786   0.833   1.699
 7502TIP3   OH246484   3.164   1.405   1.495
 7502TIP3    H146485   3.070   1.415   1.472
 7502TIP3    H246486   3.158   1.427   1.590
 7503TIP3   OH246487   3.729   0.621   0.336
 7503TIP3    H146488   3.672   0.589   0.263
 7503TIP3    H246489   3.736   0.714   0.309
 7504TIP3   OH246490   3.729   1.203   1.614
 7504TIP3    H146491   3.639   1.226   1.578
 7504TIP3    H246492   3.783   1.199   1.533
 7505TIP3   OH246493   3.564   1.499   0.375
 7505TIP3    H146494   3.522   1.417   0.406
 7505TIP3    H246495   3.587   1.481   0.282
 7506TIP3   OH246496   3.280   0.982   1.085
 7506TIP3    H146497   3.186   0.961   1.073
 7506TIP3    H246498   3.323   0.907   1.040
 7507TIP3   OH246499   2.531   1.415   0.695
 7507TIP3    H146500   2.581   1.496   0.675
 7507TIP3    H246501   2.444   1.438   0.662
 7508TIP3   OH246502   2.106   0.901   0.145
 7508TIP3    H146503   2.166   0.960   0.195
 7508TIP3    H246504   2.019   0.930   0.179
 7509TIP3   OH246505   2.673   1.182   0.647
 7509TIP3    H146506   2.640   1.274   0.655
 7509TIP3    H246507   2.602   1.132   0.692
 7510TIP3   OH246508   2.722   1.602   1.284
 7510TIP3    H146509   2.768   1.683   1.260
 7510TIP3    H246510   2.778   1.566   1.355
 7511TIP3   OH246511   2.541   1.681   0.599
 7511TIP3    H146512   2.444   1.695   0.613
 7511TIP3    H246513   2.577   1.765   0.632
 7512TIP3   OH246514   3.069   1.199   1.249
 7512TIP3    H146515   3.038   1.180   1.340
 7512TIP3    H246516   3.134   1.129   1.232
 7513TIP3   OH246517   3.298   1.304   0.159
 7513TIP3    H146518   3.335   1.261   0.238
 7513TIP3    H246519   3.204   1.287   0.174
 7514TIP3   OH246520   3.347   1.662   1.497
 7514TIP3    H146521   3.285   1.602   1.451
 7514TIP3    H246522   3.377   1.715   1.420
 7515TIP3   OH246523   3.752   1.746   0.182
 7515TIP3    H146524   3.822   1.810   0.164
 7515TIP3    H246525   3.679   1.806   0.211
 7516TIP3   OH246526   2.159   0.383   1.438
 7516TIP3    H146527   2.068   0.417   1.434
 7516TIP3    H246528   2.144   0.297   1.481
 7517TIP3   OH246529   3.382   1.171   0.388
 7517TIP3    H146530   3.358   1.091   0.438
 7517TIP3    H246531   3.478   1.173   0.400
 7518TIP3   OH246532   2.115   1.571   1.264
 7518TIP3    H146533   2.150   1.480   1.276
 7518TIP3    H246534   2.144   1.591   1.357
 7519TIP3   OH246535   2.592   1.370   0.254
 7519TIP3    H146536   2.625   1.317   0.328
 7519TIP3    H246537   2.604   1.462   0.286
 7520TIP3   OH246538   2.245   1.093   0.299
 7520TIP3    H146539   2.176   1.132   0.356
 7520TIP3    H246540   2.300   1.169   0.276
 7521TIP3   OH246541   3.032   0.360   1.335
 7521TIP3    H146542   3.104   0.363   1.399
 7521TIP3    H246543   2.996   0.271   1.352
 7522TIP3   OH246544   3.113   0.313   0.447
 7522TIP3    H146545   3.130   0.366   0.367
 7522TIP3    H246546   3.162   0.366   0.512
 7523TIP3   OH246547   2.871   1.532   0.320
 7523TIP3    H146548   2.793   1.588   0.336
 7523TIP3    H246549   2.929   1.587   0.265
 7524TIP3   OH246550   2.829   0.493   0.525
 7524TIP3    H146551   2.906   0.552   0.529
 7524TIP3    H246552   2.801   0.482   0.619
 7525TIP3   OH246553   2.886   0.597   1.444
 7525TIP3    H146554   2.893   0.651   1.525
 7525TIP3    H246555   2.950   0.525   1.454
 7526TIP3   OH246556   2.918   0.199   0.618
 7526TIP3    H146557   2.881   0.268   0.677
 7526TIP3    H246558   2.983   0.254   0.568
 7527TIP3   OH246559   2.612   1.639   0.329
 7527TIP3    H146560   2.628   1.721   0.276
 7527TIP3    H246561   2.586   1.674   0.417
 7528TIP3   OH246562   2.474   0.308   0.295
 7528TIP3    H146563   2.475   0.402   0.321
 7528TIP3    H246564   2.568   0.284   0.307
 7529TIP3   OH246565   3.501   0.386   1.527
 7529TIP3    H146566   3.408   0.416   1.513
 7529TIP3    H246567   3.531   0.377   1.435
 7530TIP3   OH246568   3.364   0.761   0.927
 7530TIP3    H146569   3.281   0.716   0.901
 7530TIP3    H246570   3.412   0.693   0.979
 7531TIP3   OH246571   2.306   1.352   0.189
 7531TIP3    H146572   2.372   1.415   0.222
 7531TIP3    H246573   2.355   1.308   0.118
 7532TIP3   OH246574   2.137   0.622   0.104
 7532TIP3    H146575   2.138   0.718   0.122
 7532TIP3    H246576   2.049   0.604   0.071
 7533TIP3   OH246577   3.468   1.692   1.099
 7533TIP3    H146578   3.461   1.755   1.024
 7533TIP3    H246579   3.566   1.692   1.112
 7534TIP3   OH246580   2.205   0.125   0.964
 7534TIP3    H146581   2.190   0.110   0.867
 7534TIP3    H246582   2.184   0.036   0.999
 7535TIP3   OH246583   2.113   1.492   0.592
 7535TIP3    H146584   2.027   1.536   0.586
 7535TIP3    H246585   2.160   1.536   0.520
 7536TIP3   OH246586   2.034   1.756   1.718
 7536TIP3    H146587   2.094   1.737   1.793
 7536TIP3    H246588   1.998   1.668   1.699
 7537TIP3   OH246589   2.505   1.652   1.883
 7537TIP3    H146590   2.579   1.597   1.913
 7537TIP3    H246591   2.498   1.622   1.789
 7538TIP3   OH246592   2.923   1.610   0.048
 7538TIP3    H146593   2.852   1.546   0.064
 7538TIP3    H246594   2.993   1.560   0.005
 7539TIP3   OH246595   3.154   1.489   1.755
 7539TIP3    H146596   3.120   1.400   1.782
 7539TIP3    H246597   3.230   1.497   1.815
 7540TIP3   OH246598   3.395   1.568   0.096
 7540TIP3    H146599   3.407   1.472   0.093
 7540TIP3    H246600   3.428   1.598   0.009
 7541TIP3   OH246601   2.022   1.134   1.822
 7541TIP3    H146602   2.045   1.045   1.788
 7541TIP3    H246603   1.955   1.161   1.758
 7542TIP3   OH246604   2.446   1.151   0.022
 7542TIP3    H146605   2.477   1.084   0.085
 7542TIP3    H246606   2.524   1.158  -0.036
 7543TIP3   OH246607   2.695   1.134   1.755
 7543TIP3    H146608   2.660   1.165   1.669
 7543TIP3    H246609   2.703   1.036   1.745
 7544TIP3   OH246610   3.266   1.118   1.497
 7544TIP3    H146611   3.346   1.176   1.492
 7544TIP3    H246612   3.197   1.186   1.500
 7545TIP3   OH246613   2.117   0.855   1.757
 7545TIP3    H146614   2.160   0.769   1.749
 7545TIP3    H246615   2.095   0.857   1.852
 7546TIP3   OH246616   2.582   0.973   0.263
 7546TIP3    H146617   2.532   0.918   0.325
 7546TIP3    H246618   2.614   0.904   0.199
 7547TIP3   OH246619   2.510   0.748   1.491
 7547TIP3    H146620   2.450   0.818   1.519
 7547TIP3    H246621   2.547   0.788   1.411
 7548TIP3   OH246622   2.691   0.795   0.090
 7548TIP3    H146623   2.669   0.781  -0.004
 7548TIP3    H246624   2.789   0.802   0.093
 7549TIP3   OH246625   3.016   1.008   1.827
 7549TIP3    H146626   3.111   1.005   1.813
 7549TIP3    H246627   2.998   0.930   1.883
 7550TIP3   OH246628   3.620   1.022  11.009
 7550TIP3    H146629   3.604   0.984  10.923
 7550TIP3    H246630   3.626   1.117  10.988
 7551TIP3   OH246631   2.550   0.491   1.598
 7551TIP3    H146632   2.561   0.421   1.531
 7551TIP3    H246633   2.544   0.572   1.543
 7552TIP3   OH246634   2.590   0.328   1.353
 7552TIP3    H146635   2.641   0.375   1.282
 7552TIP3    H246636   2.500   0.320   1.314
 7553TIP3   OH246637   2.743   0.877   1.378
 7553TIP3    H146638   2.818   0.860   1.321
 7553TIP3    H246639   2.705   0.959   1.343
 7554TIP3   OH246640   3.181   0.650   1.872
 7554TIP3    H146641   3.205   0.556   1.865
 7554TIP3    H246642   3.268   0.694   1.879
 7555TIP3   OH246643   3.316   0.933   1.692
 7555TIP3    H146644   3.291   1.003   1.629
 7555TIP3    H246645   3.412   0.928   1.673
 7556TIP3   OH246646   2.395   0.613   1.790
 7556TIP3    H146647   2.318   0.556   1.773
 7556TIP3    H246648   2.461   0.576   1.728
 7557TIP3   OH246649   2.659   0.080   1.395
 7557TIP3    H146650   2.648   0.177   1.383
 7557TIP3    H246651   2.584   0.042   1.350
 7558TIP3   OH246652   2.795   0.504   1.756
 7558TIP3    H146653   2.765   0.479   1.846
 7558TIP3    H246654   2.717   0.482   1.702
 7559TIP3   OH246655   3.067   0.424   1.668
 7559TIP3    H146656   2.970   0.421   1.675
 7559TIP3    H246657   3.095   0.358   1.734
 7560TIP3   OH246658   3.224   0.288   1.853
 7560TIP3    H146659   3.223   0.190   1.851
 7560TIP3    H246660   3.199   0.306   1.946
 7561TIP3   OH246661   2.202   0.409   1.766
 7561TIP3    H146662   2.227   0.335   1.707
 7561TIP3    H246663   2.194   0.364   1.852
 7562TIP3   OH246664   2.700   8.146   1.640
 7562TIP3    H146665   2.767   8.075   1.645
 7562TIP3    H246666   2.677   8.132   1.546
 7563TIP3   OH246667   2.723   0.177   1.874
 7563TIP3    H146668   2.711   0.131   1.788
 7563TIP3    H246669   2.666   0.254   1.864
 7564TIP3   OH246670   2.672   1.866   0.196
 7564TIP3    H146671   2.769   1.873   0.199
 7564TIP3    H246672   2.651   1.925   0.122
 7565TIP3   OH246673   2.035   1.318   0.140
 7565TIP3    H146674   2.131   1.331   0.158
 7565TIP3    H246675   2.037   1.261   0.063
 7566TIP3   OH246676   1.905   1.858   0.634
 7566TIP3    H146677   1.833   1.809   0.589
 7566TIP3    H246678   1.933   1.793   0.702
 7567TIP3   OH246679   1.987   1.672   0.823
 7567TIP3    H146680   1.952   1.584   0.843
 7567TIP3    H246681   2.011   1.705   0.911
 7568TIP3   OH246682   3.742   1.751   1.114
 7568TIP3    H146683   3.748   1.766   1.210
 7568TIP3    H246684   3.812   1.810   1.084
 7569TIP3   OH246685   3.697   1.709   1.413
 7569TIP3    H146686   3.654   1.631   1.371
 7569TIP3    H246687   3.749   1.663   1.482
 7570TIP3   OH246688   3.544   1.283   1.878
 7570TIP3    H146689   3.453   1.281   1.913
 7570TIP3    H246690   3.580   1.364   1.917
 7571TIP3   OH246691   3.677   1.115   0.419
 7571TIP3    H146692   3.763   1.156   0.441
 7571TIP3    H246693   3.673   1.045   0.488
 7572TIP3   OH246694   3.711   0.925   0.609
 7572TIP3    H146695   3.635   0.875   0.648
 7572TIP3    H246696   3.770   0.936   0.686
 7573TIP3   OH246697   3.687   1.193   1.107
 7573TIP3    H146698   3.767   1.155   1.069
 7573TIP3    H246699   3.701   1.288   1.090
 7574TIP3   OH246700   3.540   1.486   1.335
 7574TIP3    H146701   3.470   1.515   1.394
 7574TIP3    H246702   3.489   1.443   1.263
 7575TIP3   OH246703   3.740   0.906   0.243
 7575TIP3    H146704   3.679   0.941   0.174
 7575TIP3    H246705   3.729   0.975   0.312
 7576TIP3   OH246706   3.578   0.633   0.098
 7576TIP3    H146707   3.579   0.699   0.028
 7576TIP3    H246708   3.556   0.549   0.054
 7577TIP3   OH246709   3.493   0.771   0.667
 7577TIP3    H146710   3.478   0.676   0.661
 7577TIP3    H246711   3.461   0.791   0.757
 7578TIP3   OH246712   1.994   0.982   1.074
 7578TIP3    H146713   2.011   0.973   0.978
 7578TIP3    H246714   2.083   0.961   1.108
 7579TIP3   OH246715   3.579   0.969   1.636
 7579TIP3    H146716   3.640   0.892   1.648
 7579TIP3    H246717   3.641   1.045   1.635
 7580TIP3   OH246718   3.729   0.756   1.700
 7580TIP3    H146719   3.640   0.717   1.685
 7580TIP3    H246720   3.785   0.677   1.691
 7581TIP3   OH246721   3.481   0.363   0.122
 7581TIP3    H146722   3.567   0.332   0.089
 7581TIP3    H246723   3.426   0.333   0.049
 7582TIP3   OH246724   3.457   0.534   0.511
 7582TIP3    H146725   3.487   0.440   0.521
 7582TIP3    H246726   3.537   0.571   0.473
 7583TIP3   OH246727   3.524   0.586   1.055
 7583TIP3    H146728   3.620   0.606   1.055
 7583TIP3    H246729   3.505   0.594   1.150
 7584TIP3   OH246730   3.529   0.658   1.332
 7584TIP3    H146731   3.441   0.686   1.366
 7584TIP3    H246732   3.574   0.744   1.312
 7585TIP3   OH246733   1.958   0.513   1.690
 7585TIP3    H146734   2.050   0.485   1.706
 7585TIP3    H246735   1.910   0.430   1.713
 7586TIP3   OH246736   3.773   0.072   1.883
 7586TIP3    H146737   3.781   0.005   1.813
 7586TIP3    H246738   3.764   0.148   1.823
 7587TIP3   OH246739   3.521   0.264   0.518
 7587TIP3    H146740   3.548   0.217   0.600
 7587TIP3    H246741   3.465   0.198   0.473
 7588TIP3   OH246742   2.070   0.347   0.973
 7588TIP3    H146743   2.116   0.262   0.996
 7588TIP3    H246744   2.131   0.411   1.012
 7589TIP3   OH246745   1.904   0.638   1.075
 7589TIP3    H146746   1.961   0.613   1.000
 7589TIP3    H246747   1.950   0.719   1.102
 7590TIP3   OH246748   3.711   0.277   1.701
 7590TIP3    H146749   3.616   0.299   1.699
 7590TIP3    H246750   3.712   0.215   1.626
 7591TIP3   OH246751   3.720   0.255   0.176
 7591TIP3    H146752   3.757   0.190   0.115
 7591TIP3    H246753   3.784   0.327   0.181
 7592TIP3   OH246754   1.937   0.260   0.486
 7592TIP3    H146755   1.845   0.286   0.470
 7592TIP3    H246756   1.983   0.312   0.417
 7593TIP3   OH246757   3.414   1.759   0.678
 7593TIP3    H146758   3.482   1.730   0.614
 7593TIP3    H246759   3.466   1.810   0.742
 7594TIP3   OH246760   1.944   0.149   1.312
 7594TIP3    H146761   1.882   0.118   1.377
 7594TIP3    H246762   1.889   0.204   1.252
 7595TIP3   OH246763   2.156   1.453   1.751
 7595TIP3    H146764   2.084   1.470   1.687
 7595TIP3    H246765   2.117   1.441   1.836
 7596TIP3   OH246766   2.468   1.558   1.344
 7596TIP3    H146767   2.424   1.642   1.329
 7596TIP3    H246768   2.560   1.573   1.316
 7597TIP3   OH246769   2.873   1.685   1.649
 7597TIP3    H146770   2.888   1.653   1.741
 7597TIP3    H246771   2.960   1.720   1.624
 7598TIP3   OH246772   3.087   1.820   1.580
 7598TIP3    H146773   3.143   1.744   1.558
 7598TIP3    H246774   3.118   1.855   1.667
 7599TIP3   OH246775   3.600   0.102   1.491
 7599TIP3    H146776   3.513   0.122   1.454
 7599TIP3    H246777   3.609   0.009   1.470
 7600TIP3   OH246778   2.193   1.876   1.356
 7600TIP3    H146779   2.118   1.923   1.317
 7600TIP3    H246780   2.163   1.855   1.446
 7601TIP3   OH246781   2.439   1.837   1.263
 7601TIP3    H146782   2.349   1.847   1.302
 7601TIP3    H246783   2.431   1.892   1.184
 7602TIP3   OH246784   2.912   1.824   1.180
 7602TIP3    H146785   2.863   1.878   1.116
 7602TIP3    H246786   2.921   1.888   1.255
 7603TIP3   OH246787   3.135   1.709   1.293
 7603TIP3    H146788   3.053   1.730   1.244
 7603TIP3    H246789   3.186   1.788   1.269
 7604TIP3   OH246790   3.390   1.861   1.309
 7604TIP3    H146791   3.393   1.956   1.280
 7604TIP3    H246792   3.416   1.822   1.222
 7605TIP3   OH246793   2.139   1.741   1.047
 7605TIP3    H146794   2.127   1.693   1.133
 7605TIP3    H246795   2.221   1.700   1.013
 7606TIP3   OH246796   2.347   1.610   0.912
 7606TIP3    H146797   2.329   1.518   0.939
 7606TIP3    H246798   2.430   1.626   0.961
 7607TIP3   OH246799   2.607   1.658   1.006
 7607TIP3    H146800   2.621   1.566   0.978
 7607TIP3    H246801   2.607   1.649   1.102
 7608TIP3   OH246802   2.947   0.230   0.913
 7608TIP3    H146803   2.885   0.162   0.945
 7608TIP3    H246804   3.009   0.175   0.863
 7609TIP3   OH246805   3.468   0.058   0.940
 7609TIP3    H146806   3.527   0.094   0.871
 7609TIP3    H246807   3.379   0.062   0.899
 7610TIP3   OH246808   3.634   0.160   0.748
 7610TIP3    H146809   3.697   0.097   0.710
 7610TIP3    H246810   3.686   0.242   0.763
 7611TIP3   OH246811   2.181   0.084   0.704
 7611TIP3    H146812   2.108   0.070   0.643
 7611TIP3    H246813   2.231   0.003   0.693
 7612TIP3   OH246814   2.089   0.107   0.293
 7612TIP3    H146815   2.111   0.157   0.212
 7612TIP3    H246816   2.002   0.139   0.323
 7613TIP3   OH246817   2.629   0.092   0.680
 7613TIP3    H146818   2.722   0.117   0.672
 7613TIP3    H246819   2.635   0.058   0.770
 7614TIP3   OH246820   3.205   0.083   0.846
 7614TIP3    H146821   3.201   0.090   0.750
 7614TIP3    H246822   3.171  -0.008   0.857
 7615TIP3   OH246823   3.318   0.097   0.378
 7615TIP3    H146824   3.246   0.159   0.396
 7615TIP3    H246825   3.292   0.018   0.427
 7616TIP3   OH246826   2.058   1.658   0.372
 7616TIP3    H146827   1.985   1.659   0.307
 7616TIP3    H246828   2.059   1.752   0.393
 7617TIP3   OH246829   2.246   0.253   0.121
 7617TIP3    H146830   2.305   0.193   0.074
 7617TIP3    H246831   2.311   0.285   0.187
 7618TIP3   OH246832   2.749   0.285   0.362
 7618TIP3    H146833   2.777   0.224   0.432
 7618TIP3    H246834   2.757   0.368   0.412
 7619TIP3   OH246835   2.941   1.801   0.213
 7619TIP3    H146836   3.036   1.810   0.196
 7619TIP3    H246837   2.922   1.741   0.137
 7620TIP3   OH246838   3.613   1.740   0.480
 7620TIP3    H146839   3.592   1.660   0.426
 7620TIP3    H246840   3.604   1.813   0.415
 7621TIP3   OH246841   2.177   0.146   1.651
 7621TIP3    H146842   2.141   0.063   1.684
 7621TIP3    H246843   2.269   0.135   1.680
 7622TIP3   OH246844   2.380   0.087   1.823
 7622TIP3    H146845   2.463   0.054   1.786
 7622TIP3    H246846   2.334   0.001   1.837
 7623TIP3   OH246847   2.235   1.749   0.070
 7623TIP3    H146848   2.207   1.783   0.156
 7623TIP3    H246849   2.315   1.700   0.089
 7624TIP3   OH246850   3.228   8.110   1.833
 7624TIP3    H146851   3.226   8.043   1.901
 7624TIP3    H246852   3.311   8.088   1.787
 7625TIP3   OH246853   3.538   1.613   1.689
 7625TIP3    H146854   3.458   1.596   1.636
 7625TIP3    H246855   3.528   1.707   1.712
 7626TIP3   OH246856   4.982   1.001   0.687
 7626TIP3    H146857   4.980   1.099   0.684
 7626TIP3    H246858   4.909   0.977   0.628
 7627TIP3   OH246859   4.868   0.925   1.037
 7627TIP3    H146860   4.866   0.861   1.109
 7627TIP3    H246861   4.831   0.874   0.963
 7628TIP3   OH246862   4.102   0.895   1.192
 7628TIP3    H146863   4.110   0.825   1.260
 7628TIP3    H246864   4.178   0.951   1.216
 7629TIP3   OH246865   5.235   1.221   0.867
 7629TIP3    H146866   5.195   1.149   0.916
 7629TIP3    H246867   5.238   1.292   0.934
 7630TIP3   OH246868   4.195   1.339   1.042
 7630TIP3    H146869   4.164   1.251   1.011
 7630TIP3    H246870   4.291   1.321   1.046
 7631TIP3   OH246871   3.859   0.693   0.592
 7631TIP3    H146872   3.815   0.780   0.585
 7631TIP3    H246873   3.803   0.639   0.535
 7632TIP3   OH246874   3.931   0.919   0.808
 7632TIP3    H146875   3.958   0.835   0.851
 7632TIP3    H246876   3.999   0.928   0.740
 7633TIP3   OH246877   4.948   1.737   0.891
 7633TIP3    H146878   5.013   1.669   0.861
 7633TIP3    H246879   4.925   1.701   0.977
 7634TIP3   OH246880   4.704   1.165   1.087
 7634TIP3    H146881   4.737   1.104   1.020
 7634TIP3    H246882   4.786   1.182   1.136
 7635TIP3   OH246883   5.571   0.324   1.157
 7635TIP3    H146884   5.580   0.388   1.232
 7635TIP3    H246885   5.619   0.375   1.091
 7636TIP3   OH246886   5.022   0.612   1.118
 7636TIP3    H146887   5.038   0.515   1.118
 7636TIP3    H246888   5.011   0.626   1.022
 7637TIP3   OH246889   4.334   0.423   0.838
 7637TIP3    H146890   4.345   0.506   0.787
 7637TIP3    H246891   4.293   0.365   0.769
 7638TIP3   OH246892   5.106   0.429   0.674
 7638TIP3    H146893   5.171   0.399   0.742
 7638TIP3    H246894   5.163   0.486   0.620
 7639TIP3   OH246895   3.994   0.664   0.911
 7639TIP3    H146896   4.061   0.610   0.957
 7639TIP3    H246897   4.006   0.632   0.820
 7640TIP3   OH246898   4.511   0.818   0.845
 7640TIP3    H146899   4.579   0.760   0.882
 7640TIP3    H246900   4.460   0.754   0.792
 7641TIP3   OH246901   5.612   0.475   1.384
 7641TIP3    H146902   5.547   0.549   1.374
 7641TIP3    H246903   5.611   0.460   1.480
 7642TIP3   OH246904   4.225   0.315   1.237
 7642TIP3    H146905   4.194   0.374   1.165
 7642TIP3    H246906   4.158   0.335   1.308
 7643TIP3   OH246907   4.951   1.260   0.598
 7643TIP3    H146908   4.925   1.231   0.509
 7643TIP3    H246909   4.922   1.354   0.600
 7644TIP3   OH246910   4.475   1.076   1.265
 7644TIP3    H146911   4.405   1.140   1.288
 7644TIP3    H246912   4.546   1.136   1.235
 7645TIP3   OH246913   5.293   0.364   0.873
 7645TIP3    H146914   5.261   0.291   0.927
 7645TIP3    H246915   5.353   0.409   0.934
 7646TIP3   OH246916   4.181   0.503   1.043
 7646TIP3    H146917   4.246   0.568   1.076
 7646TIP3    H246918   4.232   0.459   0.970
 7647TIP3   OH246919   4.321   1.276   1.347
 7647TIP3    H146920   4.316   1.367   1.313
 7647TIP3    H246921   4.232   1.267   1.389
 7648TIP3   OH246922   3.927   1.235   0.425
 7648TIP3    H146923   3.905   1.271   0.336
 7648TIP3    H246924   3.935   1.317   0.478
 7649TIP3   OH246925   5.290   1.406   1.110
 7649TIP3    H146926   5.192   1.416   1.112
 7649TIP3    H246927   5.316   1.495   1.079
 7650TIP3   OH246928   5.323   0.240   1.255
 7650TIP3    H146929   5.248   0.296   1.231
 7650TIP3    H246930   5.391   0.269   1.191
 7651TIP3   OH246931   4.610   0.055   0.953
 7651TIP3    H146932   4.618  -0.035   0.988
 7651TIP3    H246933   4.537   0.084   1.009
 7652TIP3   OH246934   5.116   1.582   0.765
 7652TIP3    H146935   5.157   1.510   0.711
 7652TIP3    H246936   5.160   1.661   0.725
 7653TIP3   OH246937   5.237   1.375   0.615
 7653TIP3    H146938   5.208   1.307   0.552
 7653TIP3    H246939   5.239   1.324   0.698
 7654TIP3   OH246940   5.397   1.237   1.458
 7654TIP3    H146941   5.415   1.165   1.392
 7654TIP3    H246942   5.433   1.315   1.409
 7655TIP3   OH246943   4.847   0.920   0.437
 7655TIP3    H146944   4.780   0.982   0.403
 7655TIP3    H246945   4.920   0.934   0.373
 7656TIP3   OH246946   4.856   0.779   0.142
 7656TIP3    H146947   4.927   0.782   0.208
 7656TIP3    H246948   4.885   0.706   0.087
 7657TIP3   OH246949   5.587   0.867   1.266
 7657TIP3    H146950   5.522   0.940   1.269
 7657TIP3    H246951   5.637   0.890   1.186
 7658TIP3   OH246952   5.194   0.945   0.533
 7658TIP3    H146953   5.119   0.969   0.592
 7658TIP3    H246954   5.241   0.878   0.585
 7659TIP3   OH246955   5.187   0.760   1.444
 7659TIP3    H146956   5.186   0.841   1.498
 7659TIP3    H246957   5.124   0.789   1.375
 7660TIP3   OH246958   4.353   1.011   0.723
 7660TIP3    H146959   4.322   0.972   0.638
 7660TIP3    H246960   4.415   0.942   0.756
 7661TIP3   OH246961   4.485   1.348   0.991
 7661TIP3    H146962   4.485   1.297   0.909
 7661TIP3    H246963   4.564   1.313   1.036
 7662TIP3   OH246964   4.386   0.885   1.090
 7662TIP3    H146965   4.440   0.895   1.009
 7662TIP3    H246966   4.425   0.952   1.150
 7663TIP3   OH246967   5.031   1.444   1.163
 7663TIP3    H146968   4.996   1.508   1.225
 7663TIP3    H246969   5.001   1.358   1.201
 7664TIP3   OH246970   4.480   1.329   1.561
 7664TIP3    H146971   4.438   1.403   1.607
 7664TIP3    H246972   4.416   1.307   1.488
 7665TIP3   OH246973   5.079   0.865   0.298
 7665TIP3    H146974   5.134   0.884   0.378
 7665TIP3    H246975   5.125   0.916   0.227
 7666TIP3   OH246976   4.177   0.944   1.475
 7666TIP3    H146977   4.182   1.012   1.544
 7666TIP3    H246978   4.082   0.950   1.454
 7667TIP3   OH246979   4.853   1.539   0.642
 7667TIP3    H146980   4.894   1.568   0.724
 7667TIP3    H246981   4.796   1.613   0.619
 7668TIP3   OH246982   4.300   1.532   1.639
 7668TIP3    H146983   4.308   1.525   1.541
 7668TIP3    H246984   4.205   1.513   1.646
 7669TIP3   OH246985   5.459   0.048   0.295
 7669TIP3    H146986   5.361   0.047   0.305
 7669TIP3    H246987   5.475   0.127   0.240
 7670TIP3   OH246988   4.251   0.912   0.482
 7670TIP3    H146989   4.221   0.991   0.434
 7670TIP3    H246990   4.185   0.846   0.461
 7671TIP3   OH246991   5.567   1.472   0.124
 7671TIP3    H146992   5.580   1.567   0.142
 7671TIP3    H246993   5.659   1.440   0.121
 7672TIP3   OH246994   3.859   1.157   1.376
 7672TIP3    H146995   3.815   1.148   1.289
 7672TIP3    H246996   3.869   1.062   1.397
 7673TIP3   OH246997   3.837   1.429   1.052
 7673TIP3    H146998   3.932   1.418   1.050
 7673TIP3    H246999   3.828   1.512   1.101
 7674TIP3   OH247000   5.657   1.501   1.618
 7674TIP3    H147001   5.650   1.404   1.620
 7674TIP3    H247002   5.573   1.526   1.662
 7675TIP3   OH247003   4.759   1.453   1.509
 7675TIP3    H147004   4.759   1.538   1.558
 7675TIP3    H247005   4.670   1.417   1.530
 7676TIP3   OH247006   4.798   1.829   0.488
 7676TIP3    H147007   4.790   1.823   0.391
 7676TIP3    H247008   4.803   1.925   0.504
 7677TIP3   OH247009   4.163   1.716   0.668
 7677TIP3    H147010   4.178   1.676   0.757
 7677TIP3    H247011   4.078   1.675   0.645
 7678TIP3   OH247012   5.100   1.745   0.192
 7678TIP3    H147013   5.154   1.676   0.148
 7678TIP3    H247014   5.111   1.720   0.286
 7679TIP3   OH247015   5.073   1.743   0.464
 7679TIP3    H147016   4.977   1.751   0.482
 7679TIP3    H247017   5.097   1.669   0.521
 7680TIP3   OH247018   5.373   0.649   1.669
 7680TIP3    H147019   5.325   0.693   1.596
 7680TIP3    H247020   5.372   0.557   1.639
 7681TIP3   OH247021   4.088   1.292   1.472
 7681TIP3    H147022   4.111   1.247   1.556
 7681TIP3    H247023   4.003   1.249   1.446
 7682TIP3   OH247024   4.359   0.140   1.058
 7682TIP3    H147025   4.271   0.136   1.017
 7682TIP3    H247026   4.343   0.217   1.115
 7683TIP3   OH247027   4.821   0.107   1.405
 7683TIP3    H147028   4.862   0.059   1.477
 7683TIP3    H247029   4.726   0.090   1.416
 7684TIP3   OH247030   5.148   0.482   1.488
 7684TIP3    H147031   5.092   0.466   1.568
 7684TIP3    H247032   5.133   0.576   1.467
 7685TIP3   OH247033   5.233   0.952   0.085
 7685TIP3    H147034   5.217   0.963  -0.010
 7685TIP3    H247035   5.309   1.010   0.091
 7686TIP3   OH247036   4.789   0.360   0.137
 7686TIP3    H147037   4.750   0.352   0.225
 7686TIP3    H247038   4.753   0.277   0.102
 7687TIP3   OH247039   4.367   0.634   1.191
 7687TIP3    H147040   4.292   0.633   1.253
 7687TIP3    H247041   4.362   0.724   1.152
 7688TIP3   OH247042   4.362   0.643   0.677
 7688TIP3    H147043   4.268   0.619   0.662
 7688TIP3    H247044   4.400   0.616   0.591
 7689TIP3   OH247045   4.915   0.695   0.549
 7689TIP3    H147046   4.876   0.778   0.514
 7689TIP3    H247047   4.985   0.677   0.484
 7690TIP3   OH247048   4.819   0.716   1.695
 7690TIP3    H147049   4.768   0.638   1.726
 7690TIP3    H247050   4.903   0.704   1.743
 7691TIP3   OH247051   5.019   0.645   0.837
 7691TIP3    H147052   4.989   0.701   0.764
 7691TIP3    H247053   5.027   0.559   0.791
 7692TIP3   OH247054   4.128   0.658   1.356
 7692TIP3    H147055   4.139   0.698   1.444
 7692TIP3    H247056   4.084   0.574   1.377
 7693TIP3   OH247057   4.469   0.309   0.054
 7693TIP3    H147058   4.431   0.325   0.142
 7693TIP3    H247059   4.413   0.378   0.014
 7694TIP3   OH247060   3.797   0.376   0.756
 7694TIP3    H147061   3.863   0.370   0.827
 7694TIP3    H247062   3.839   0.334   0.680
 7695TIP3   OH247063   3.921   0.445   0.293
 7695TIP3    H147064   3.972   0.505   0.235
 7695TIP3    H247065   3.852   0.507   0.326
 7696TIP3   OH247066   4.937   0.802   1.291
 7696TIP3    H147067   4.976   0.732   1.234
 7696TIP3    H247068   4.890   0.749   1.358
 7697TIP3   OH247069   4.620   0.404   0.776
 7697TIP3    H147070   4.527   0.397   0.803
 7697TIP3    H247071   4.667   0.382   0.858
 7698TIP3   OH247072   4.098   0.555   0.664
 7698TIP3    H147073   4.011   0.569   0.623
 7698TIP3    H247074   4.127   0.471   0.623
 7699TIP3   OH247075   4.462   0.561   0.430
 7699TIP3    H147076   4.558   0.569   0.443
 7699TIP3    H247077   4.439   0.626   0.361
 7700TIP3   OH247078   5.061   0.326   1.095
 7700TIP3    H147079   4.993   0.327   1.166
 7700TIP3    H247080   5.011   0.293   1.020
 7701TIP3   OH247081   4.328   0.688   0.189
 7701TIP3    H147082   4.282   0.638   0.120
 7701TIP3    H247083   4.413   0.695   0.143
 7702TIP3   OH247084   5.378   1.884   1.732
 7702TIP3    H147085   5.405   1.925   1.648
 7702TIP3    H247086   5.449   1.918   1.789
 7703TIP3   OH247087   4.145   1.143   1.690
 7703TIP3    H147088   4.219   1.157   1.752
 7703TIP3    H247089   4.068   1.140   1.750
 7704TIP3   OH247090   4.746   0.676   0.965
 7704TIP3    H147091   4.806   0.623   0.912
 7704TIP3    H247092   4.731   0.621   1.043
 7705TIP3   OH247093   4.245   0.289   0.610
 7705TIP3    H147094   4.215   0.198   0.609
 7705TIP3    H247095   4.324   0.281   0.554
 7706TIP3   OH247096   4.609   0.508   1.207
 7706TIP3    H147097   4.528   0.562   1.215
 7706TIP3    H247098   4.666   0.544   1.278
 7707TIP3   OH247099   4.669   1.127   0.378
 7707TIP3    H147100   4.589   1.083   0.343
 7707TIP3    H247101   4.644   1.143   0.471
 7708TIP3   OH247102   5.387   1.057   1.259
 7708TIP3    H147103   5.445   1.098   1.192
 7708TIP3    H247104   5.303   1.052   1.209
 7709TIP3   OH247105   5.054   0.419   0.178
 7709TIP3    H147106   4.957   0.425   0.182
 7709TIP3    H247107   5.087   0.494   0.233
 7710TIP3   OH247108   4.824   1.160   1.503
 7710TIP3    H147109   4.782   1.113   1.577
 7710TIP3    H247110   4.788   1.249   1.512
 7711TIP3   OH247111   5.123   0.603   0.362
 7711TIP3    H147112   5.213   0.588   0.396
 7711TIP3    H247113   5.136   0.683   0.309
 7712TIP3   OH247114   4.181   1.071   0.957
 7712TIP3    H147115   4.247   1.062   0.887
 7712TIP3    H247116   4.186   0.985   1.002
 7713TIP3   OH247117   4.879   1.277   0.281
 7713TIP3    H147118   4.843   1.362   0.313
 7713TIP3    H247119   4.805   1.215   0.301
 7714TIP3   OH247120   3.878   0.910   1.483
 7714TIP3    H147121   3.895   0.865   1.568
 7714TIP3    H247122   3.817   0.850   1.438
 7715TIP3   OH247123   4.579   0.866   1.700
 7715TIP3    H147124   4.547   0.834   1.614
 7715TIP3    H247125   4.671   0.833   1.700
 7716TIP3   OH247126   5.042   1.403   1.496
 7716TIP3    H147127   4.949   1.418   1.469
 7716TIP3    H247128   5.030   1.434   1.589
 7717TIP3   OH247129   5.616   0.621   0.335
 7717TIP3    H147130   5.558   0.588   0.264
 7717TIP3    H247131   5.619   0.715   0.307
 7718TIP3   OH247132   5.615   1.202   1.614
 7718TIP3    H147133   5.527   1.224   1.576
 7718TIP3    H247134   5.672   1.197   1.533
 7719TIP3   OH247135   5.450   1.499   0.375
 7719TIP3    H147136   5.408   1.417   0.406
 7719TIP3    H247137   5.473   1.481   0.282
 7720TIP3   OH247138   5.166   0.983   1.086
 7720TIP3    H147139   5.072   0.963   1.073
 7720TIP3    H247140   5.209   0.907   1.041
 7721TIP3   OH247141   4.417   1.415   0.695
 7721TIP3    H147142   4.467   1.496   0.675
 7721TIP3    H247143   4.329   1.438   0.662
 7722TIP3   OH247144   3.992   0.902   0.145
 7722TIP3    H147145   4.052   0.960   0.195
 7722TIP3    H247146   3.905   0.930   0.179
 7723TIP3   OH247147   4.558   1.182   0.647
 7723TIP3    H147148   4.526   1.274   0.655
 7723TIP3    H247149   4.487   1.132   0.691
 7724TIP3   OH247150   4.603   1.601   1.289
 7724TIP3    H147151   4.650   1.680   1.259
 7724TIP3    H247152   4.666   1.566   1.355
 7725TIP3   OH247153   4.426   1.680   0.601
 7725TIP3    H147154   4.329   1.695   0.613
 7725TIP3    H247155   4.463   1.765   0.632
 7726TIP3   OH247156   4.961   1.203   1.252
 7726TIP3    H147157   4.921   1.178   1.338
 7726TIP3    H247158   5.016   1.126   1.229
 7727TIP3   OH247159   5.184   1.304   0.159
 7727TIP3    H147160   5.220   1.261   0.238
 7727TIP3    H247161   5.090   1.287   0.173
 7728TIP3   OH247162   5.238   1.650   1.495
 7728TIP3    H147163   5.162   1.615   1.445
 7728TIP3    H247164   5.257   1.728   1.436
 7729TIP3   OH247165   5.637   1.745   0.184
 7729TIP3    H147166   5.707   1.808   0.165
 7729TIP3    H247167   5.564   1.806   0.211
 7730TIP3   OH247168   4.044   0.384   1.438
 7730TIP3    H147169   3.953   0.418   1.434
 7730TIP3    H247170   4.031   0.298   1.481
 7731TIP3   OH247171   5.267   1.171   0.388
 7731TIP3    H147172   5.243   1.091   0.438
 7731TIP3    H247173   5.364   1.173   0.400
 7732TIP3   OH247174   4.005   1.561   1.278
 7732TIP3    H147175   4.037   1.469   1.281
 7732TIP3    H247176   4.030   1.592   1.365
 7733TIP3   OH247177   4.477   1.370   0.254
 7733TIP3    H147178   4.511   1.317   0.328
 7733TIP3    H247179   4.489   1.462   0.286
 7734TIP3   OH247180   4.131   1.092   0.299
 7734TIP3    H147181   4.062   1.132   0.356
 7734TIP3    H247182   4.186   1.169   0.276
 7735TIP3   OH247183   4.918   0.360   1.335
 7735TIP3    H147184   4.990   0.363   1.399
 7735TIP3    H247185   4.882   0.271   1.352
 7736TIP3   OH247186   4.999   0.313   0.446
 7736TIP3    H147187   5.015   0.366   0.367
 7736TIP3    H247188   5.048   0.366   0.512
 7737TIP3   OH247189   4.757   1.532   0.320
 7737TIP3    H147190   4.678   1.588   0.336
 7737TIP3    H247191   4.814   1.587   0.265
 7738TIP3   OH247192   4.714   0.493   0.525
 7738TIP3    H147193   4.792   0.552   0.529
 7738TIP3    H247194   4.687   0.482   0.619
 7739TIP3   OH247195   4.770   0.595   1.445
 7739TIP3    H147196   4.778   0.650   1.525
 7739TIP3    H247197   4.836   0.525   1.454
 7740TIP3   OH247198   4.803   0.199   0.618
 7740TIP3    H147199   4.767   0.268   0.677
 7740TIP3    H247200   4.868   0.254   0.568
 7741TIP3   OH247201   4.498   1.640   0.329
 7741TIP3    H147202   4.514   1.721   0.276
 7741TIP3    H247203   4.471   1.674   0.416
 7742TIP3   OH247204   4.360   0.308   0.295
 7742TIP3    H147205   4.361   0.402   0.321
 7742TIP3    H247206   4.454   0.284   0.307
 7743TIP3   OH247207   5.386   0.387   1.527
 7743TIP3    H147208   5.293   0.416   1.514
 7743TIP3    H247209   5.416   0.377   1.435
 7744TIP3   OH247210   5.248   0.761   0.928
 7744TIP3    H147211   5.166   0.716   0.901
 7744TIP3    H247212   5.296   0.693   0.980
 7745TIP3   OH247213   4.192   1.352   0.189
 7745TIP3    H147214   4.257   1.415   0.222
 7745TIP3    H247215   4.241   1.308   0.118
 7746TIP3   OH247216   4.022   0.622   0.104
 7746TIP3    H147217   4.024   0.718   0.122
 7746TIP3    H247218   3.934   0.604   0.071
 7747TIP3   OH247219   5.356   1.687   1.097
 7747TIP3    H147220   5.346   1.754   1.026
 7747TIP3    H247221   5.452   1.693   1.112
 7748TIP3   OH247222   4.092   0.124   0.964
 7748TIP3    H147223   4.075   0.110   0.867
 7748TIP3    H247224   4.070   0.036   0.998
 7749TIP3   OH247225   3.999   1.492   0.592
 7749TIP3    H147226   3.913   1.535   0.586
 7749TIP3    H247227   4.046   1.536   0.519
 7750TIP3   OH247228   3.920   1.756   1.716
 7750TIP3    H147229   3.976   1.738   1.793
 7750TIP3    H247230   3.877   1.669   1.701
 7751TIP3   OH247231   4.398   1.645   1.880
 7751TIP3    H147232   4.480   1.602   1.912
 7751TIP3    H247233   4.406   1.629   1.783
 7752TIP3   OH247234   4.809   1.610   0.048
 7752TIP3    H147235   4.738   1.546   0.064
 7752TIP3    H247236   4.878   1.560   0.004
 7753TIP3   OH247237   5.052   1.476   1.747
 7753TIP3    H147238   5.004   1.400   1.788
 7753TIP3    H247239   5.114   1.501   1.819
 7754TIP3   OH247240   5.281   1.568   0.096
 7754TIP3    H147241   5.292   1.472   0.093
 7754TIP3    H247242   5.313   1.598   0.009
 7755TIP3   OH247243   3.912   1.135   1.819
 7755TIP3    H147244   3.926   1.043   1.791
 7755TIP3    H247245   3.836   1.159   1.762
 7756TIP3   OH247246   4.332   1.151   0.022
 7756TIP3    H147247   4.363   1.084   0.085
 7756TIP3    H247248   4.409   1.157  -0.036
 7757TIP3   OH247249   4.581   1.135   1.757
 7757TIP3    H147250   4.551   1.164   1.669
 7757TIP3    H247251   4.589   1.037   1.747
 7758TIP3   OH247252   5.152   1.119   1.506
 7758TIP3    H147253   5.233   1.166   1.481
 7758TIP3    H247254   5.078   1.182   1.496
 7759TIP3   OH247255   4.009   0.859   1.759
 7759TIP3    H147256   4.041   0.770   1.746
 7759TIP3    H247257   3.979   0.859   1.851
 7760TIP3   OH247258   4.468   0.973   0.263
 7760TIP3    H147259   4.418   0.918   0.325
 7760TIP3    H247260   4.500   0.904   0.199
 7761TIP3   OH247261   4.393   0.750   1.492
 7761TIP3    H147262   4.334   0.823   1.517
 7761TIP3    H247263   4.434   0.787   1.412
 7762TIP3   OH247264   4.577   0.796   0.090
 7762TIP3    H147265   4.555   0.781  -0.004
 7762TIP3    H247266   4.674   0.802   0.093
 7763TIP3   OH247267   4.901   1.009   1.826
 7763TIP3    H147268   4.997   1.004   1.814
 7763TIP3    H247269   4.883   0.931   1.882
 7764TIP3   OH247270   5.506   1.022  11.009
 7764TIP3    H147271   5.490   0.984  10.923
 7764TIP3    H247272   5.512   1.117  10.988
 7765TIP3   OH247273   4.433   0.493   1.596
 7765TIP3    H147274   4.448   0.422   1.531
 7765TIP3    H247275   4.431   0.573   1.540
 7766TIP3   OH247276   4.476   0.328   1.353
 7766TIP3    H147277   4.526   0.375   1.282
 7766TIP3    H247278   4.386   0.320   1.314
 7767TIP3   OH247279   4.628   0.877   1.378
 7767TIP3    H147280   4.703   0.859   1.321
 7767TIP3    H247281   4.591   0.959   1.343
 7768TIP3   OH247282   5.067   0.650   1.872
 7768TIP3    H147283   5.091   0.556   1.864
 7768TIP3    H247284   5.154   0.695   1.877
 7769TIP3   OH247285   5.204   0.933   1.693
 7769TIP3    H147286   5.177   1.001   1.628
 7769TIP3    H247287   5.299   0.925   1.672
 7770TIP3   OH247288   4.281   0.602   1.801
 7770TIP3    H147289   4.202   0.557   1.763
 7770TIP3    H247290   4.346   0.580   1.730
 7771TIP3   OH247291   4.544   0.079   1.396
 7771TIP3    H147292   4.535   0.177   1.383
 7771TIP3    H247293   4.471   0.043   1.346
 7772TIP3   OH247294   4.680   0.505   1.755
 7772TIP3    H147295   4.652   0.478   1.844
 7772TIP3    H247296   4.602   0.481   1.701
 7773TIP3   OH247297   4.952   0.425   1.667
 7773TIP3    H147298   4.855   0.421   1.675
 7773TIP3    H247299   4.981   0.357   1.731
 7774TIP3   OH247300   5.109   0.289   1.853
 7774TIP3    H147301   5.109   0.190   1.851
 7774TIP3    H247302   5.085   0.307   1.945
 7775TIP3   OH247303   4.093   0.408   1.770
 7775TIP3    H147304   4.111   0.337   1.706
 7775TIP3    H247305   4.074   0.356   1.851
 7776TIP3   OH247306   4.579   8.141   1.641
 7776TIP3    H147307   4.652   8.077   1.645
 7776TIP3    H247308   4.564   8.134   1.544
 7777TIP3   OH247309   4.607   0.176   1.874
 7777TIP3    H147310   4.598   0.129   1.788
 7777TIP3    H247311   4.551   0.253   1.861
 7778TIP3   OH247312   4.558   1.867   0.195
 7778TIP3    H147313   4.655   1.873   0.199
 7778TIP3    H247314   4.537   1.927   0.122
 7779TIP3   OH247315   3.920   1.318   0.140
 7779TIP3    H147316   4.016   1.331   0.158
 7779TIP3    H247317   3.922   1.261   0.063
 7780TIP3   OH247318   3.791   1.858   0.635
 7780TIP3    H147319   3.719   1.809   0.589
 7780TIP3    H247320   3.819   1.793   0.702
 7781TIP3   OH247321   3.873   1.672   0.823
 7781TIP3    H147322   3.838   1.584   0.843
 7781TIP3    H247323   3.896   1.705   0.912
 7782TIP3   OH247324   5.628   1.752   1.115
 7782TIP3    H147325   5.631   1.767   1.211
 7782TIP3    H247326   5.698   1.810   1.085
 7783TIP3   OH247327   5.580   1.711   1.413
 7783TIP3    H147328   5.540   1.634   1.370
 7783TIP3    H247329   5.634   1.667   1.481
 7784TIP3   OH247330   5.425   1.287   1.871
 7784TIP3    H147331   5.339   1.280   1.917
 7784TIP3    H247332   5.467   1.361   1.919
 7785TIP3   OH247333   5.564   1.113   0.418
 7785TIP3    H147334   5.647   1.157   0.442
 7785TIP3    H247335   5.556   1.046   0.489
 7786TIP3   OH247336   5.600   0.919   0.609
 7786TIP3    H147337   5.519   0.876   0.646
 7786TIP3    H247338   5.653   0.938   0.688
 7787TIP3   OH247339   5.572   1.193   1.110
 7787TIP3    H147340   5.652   1.154   1.070
 7787TIP3    H247341   5.587   1.288   1.090
 7788TIP3   OH247342   5.424   1.475   1.340
 7788TIP3    H147343   5.359   1.531   1.385
 7788TIP3    H247344   5.375   1.447   1.259
 7789TIP3   OH247345   5.627   0.907   0.244
 7789TIP3    H147346   5.566   0.940   0.174
 7789TIP3    H247347   5.612   0.976   0.311
 7790TIP3   OH247348   5.464   0.633   0.098
 7790TIP3    H147349   5.464   0.699   0.028
 7790TIP3    H247350   5.442   0.549   0.054
 7791TIP3   OH247351   5.379   0.772   0.667
 7791TIP3    H147352   5.364   0.676   0.661
 7791TIP3    H247353   5.346   0.792   0.757
 7792TIP3   OH247354   3.880   0.980   1.073
 7792TIP3    H147355   3.897   0.972   0.976
 7792TIP3    H247356   3.969   0.961   1.107
 7793TIP3   OH247357   5.465   0.970   1.634
 7793TIP3    H147358   5.524   0.892   1.648
 7793TIP3    H247359   5.529   1.044   1.636
 7794TIP3   OH247360   5.615   0.756   1.700
 7794TIP3    H147361   5.527   0.716   1.685
 7794TIP3    H247362   5.672   0.676   1.693
 7795TIP3   OH247363   5.366   0.362   0.121
 7795TIP3    H147364   5.452   0.332   0.089
 7795TIP3    H247365   5.311   0.334   0.048
 7796TIP3   OH247366   5.342   0.535   0.511
 7796TIP3    H147367   5.371   0.441   0.520
 7796TIP3    H247368   5.423   0.572   0.473
 7797TIP3   OH247369   5.409   0.586   1.055
 7797TIP3    H147370   5.505   0.608   1.056
 7797TIP3    H247371   5.390   0.594   1.150
 7798TIP3   OH247372   5.415   0.658   1.333
 7798TIP3    H147373   5.327   0.686   1.366
 7798TIP3    H247374   5.459   0.744   1.312
 7799TIP3   OH247375   3.844   0.513   1.693
 7799TIP3    H147376   3.936   0.483   1.703
 7799TIP3    H247377   3.794   0.430   1.712
 7800TIP3   OH247378   5.656   0.072   1.884
 7800TIP3    H147379   5.669   0.005   1.815
 7800TIP3    H247380   5.649   0.148   1.824
 7801TIP3   OH247381   5.407   0.265   0.518
 7801TIP3    H147382   5.429   0.216   0.599
 7801TIP3    H247383   5.350   0.200   0.471
 7802TIP3   OH247384   3.956   0.346   0.974
 7802TIP3    H147385   4.002   0.262   0.996
 7802TIP3    H247386   4.016   0.410   1.011
 7803TIP3   OH247387   3.789   0.640   1.076
 7803TIP3    H147388   3.846   0.613   1.000
 7803TIP3    H247389   3.836   0.720   1.102
 7804TIP3   OH247390   5.598   0.277   1.701
 7804TIP3    H147391   5.503   0.298   1.698
 7804TIP3    H247392   5.597   0.215   1.626
 7805TIP3   OH247393   5.606   0.255   0.177
 7805TIP3    H147394   5.642   0.191   0.115
 7805TIP3    H247395   5.670   0.327   0.181
 7806TIP3   OH247396   3.822   0.261   0.486
 7806TIP3    H147397   3.730   0.286   0.469
 7806TIP3    H247398   3.869   0.312   0.417
 7807TIP3   OH247399   5.298   1.761   0.678
 7807TIP3    H147400   5.366   1.730   0.615
 7807TIP3    H247401   5.350   1.809   0.743
 7808TIP3   OH247402   3.828   0.141   1.310
 7808TIP3    H147403   3.765   0.123   1.380
 7808TIP3    H247404   3.779   0.205   1.254
 7809TIP3   OH247405   4.045   1.457   1.736
 7809TIP3    H147406   3.964   1.469   1.682
 7809TIP3    H247407   4.005   1.431   1.819
 7810TIP3   OH247408   4.336   1.552   1.361
 7810TIP3    H147409   4.303   1.637   1.329
 7810TIP3    H247410   4.427   1.558   1.325
 7811TIP3   OH247411   4.768   1.691   1.645
 7811TIP3    H147412   4.778   1.660   1.738
 7811TIP3    H247413   4.857   1.726   1.623
 7812TIP3   OH247414   4.995   1.818   1.580
 7812TIP3    H147415   5.070   1.765   1.555
 7812TIP3    H247416   5.031   1.866   1.658
 7813TIP3   OH247417   5.486   0.103   1.491
 7813TIP3    H147418   5.399   0.122   1.454
 7813TIP3    H247419   5.494   0.009   1.470
 7814TIP3   OH247420   4.076   1.875   1.354
 7814TIP3    H147421   4.004   1.925   1.314
 7814TIP3    H247422   4.045   1.859   1.444
 7815TIP3   OH247423   4.324   1.831   1.263
 7815TIP3    H147424   4.234   1.847   1.302
 7815TIP3    H247425   4.319   1.891   1.186
 7816TIP3   OH247426   4.795   1.823   1.179
 7816TIP3    H147427   4.748   1.879   1.115
 7816TIP3    H247428   4.807   1.886   1.254
 7817TIP3   OH247429   5.022   1.701   1.286
 7817TIP3    H147430   4.938   1.731   1.246
 7817TIP3    H247431   5.072   1.784   1.274
 7818TIP3   OH247432   5.281   1.858   1.306
 7818TIP3    H147433   5.277   1.954   1.284
 7818TIP3    H247434   5.304   1.823   1.217
 7819TIP3   OH247435   4.024   1.739   1.050
 7819TIP3    H147436   4.016   1.692   1.136
 7819TIP3    H247437   4.106   1.700   1.011
 7820TIP3   OH247438   4.231   1.610   0.916
 7820TIP3    H147439   4.215   1.517   0.940
 7820TIP3    H247440   4.317   1.626   0.961
 7821TIP3   OH247441   4.494   1.659   1.004
 7821TIP3    H147442   4.507   1.566   0.978
 7821TIP3    H247443   4.496   1.653   1.101
 7822TIP3   OH247444   4.832   0.231   0.913
 7822TIP3    H147445   4.771   0.162   0.945
 7822TIP3    H247446   4.894   0.175   0.863
 7823TIP3   OH247447   5.354   0.058   0.941
 7823TIP3    H147448   5.410   0.095   0.870
 7823TIP3    H247449   5.264   0.061   0.902
 7824TIP3   OH247450   5.528   0.154   0.760
 7824TIP3    H147451   5.568   0.097   0.692
 7824TIP3    H247452   5.560   0.246   0.752
 7825TIP3   OH247453   4.066   0.084   0.704
 7825TIP3    H147454   3.993   0.069   0.644
 7825TIP3    H247455   4.117   0.003   0.693
 7826TIP3   OH247456   3.975   0.107   0.292
 7826TIP3    H147457   3.996   0.158   0.211
 7826TIP3    H247458   3.888   0.140   0.322
 7827TIP3   OH247459   4.515   0.092   0.680
 7827TIP3    H147460   4.608   0.118   0.671
 7827TIP3    H247461   4.521   0.058   0.770
 7828TIP3   OH247462   5.090   0.083   0.846
 7828TIP3    H147463   5.087   0.090   0.750
 7828TIP3    H247464   5.057  -0.008   0.857
 7829TIP3   OH247465   5.204   0.097   0.379
 7829TIP3    H147466   5.132   0.159   0.396
 7829TIP3    H247467   5.177   0.017   0.427
 7830TIP3   OH247468   3.943   1.658   0.372
 7830TIP3    H147469   3.871   1.659   0.307
 7830TIP3    H247470   3.945   1.752   0.393
 7831TIP3   OH247471   4.132   0.253   0.121
 7831TIP3    H147472   4.191   0.193   0.074
 7831TIP3    H247473   4.196   0.285   0.187
 7832TIP3   OH247474   4.635   0.285   0.362
 7832TIP3    H147475   4.662   0.224   0.433
 7832TIP3    H247476   4.643   0.368   0.412
 7833TIP3   OH247477   4.826   1.801   0.213
 7833TIP3    H147478   4.922   1.810   0.197
 7833TIP3    H247479   4.808   1.741   0.137
 7834TIP3   OH247480   5.498   1.740   0.481
 7834TIP3    H147481   5.478   1.660   0.426
 7834TIP3    H247482   5.490   1.813   0.415
 7835TIP3   OH247483   4.064   0.145   1.649
 7835TIP3    H147484   4.025   0.065   1.685
 7835TIP3    H247485   4.155   0.135   1.680
 7836TIP3   OH247486   4.265   0.086   1.822
 7836TIP3    H147487   4.351   0.055   1.787
 7836TIP3    H247488   4.221   0.001   1.840
 7837TIP3   OH247489   4.121   1.748   0.069
 7837TIP3    H147490   4.093   1.783   0.155
 7837TIP3    H247491   4.201   1.700   0.089
 7838TIP3   OH247492   5.114   8.109   1.832
 7838TIP3    H147493   5.114   8.043   1.901
 7838TIP3    H247494   5.197   8.088   1.786
 7839TIP3   OH247495   5.420   1.609   1.688
 7839TIP3    H147496   5.340   1.607   1.633
 7839TIP3    H247497   5.416   1.705   1.712
 7840TIP3   OH247498   6.872   1.002   0.682
 7840TIP3    H147499   6.865   1.100   0.688
 7840TIP3    H247500   6.792   0.975   0.635
 7841TIP3   OH247501   6.754   0.925   1.038
 7841TIP3    H147502   6.753   0.860   1.110
 7841TIP3    H247503   6.717   0.875   0.964
 7842TIP3   OH247504   5.987   0.894   1.193
 7842TIP3    H147505   5.995   0.823   1.260
 7842TIP3    H247506   6.063   0.950   1.213
 7843TIP3   OH247507   7.121   1.221   0.867
 7843TIP3    H147508   7.080   1.149   0.916
 7843TIP3    H247509   7.124   1.291   0.934
 7844TIP3   OH247510   6.081   1.336   1.048
 7844TIP3    H147511   6.050   1.252   1.009
 7844TIP3    H247512   6.177   1.321   1.043
 7845TIP3   OH247513   5.754   0.700   0.581
 7845TIP3    H147514   5.698   0.780   0.588
 7845TIP3    H247515   5.689   0.642   0.536
 7846TIP3   OH247516   5.814   0.913   0.802
 7846TIP3    H147517   5.843   0.836   0.854
 7846TIP3    H247518   5.889   0.938   0.748
 7847TIP3   OH247519   6.834   1.737   0.890
 7847TIP3    H147520   6.899   1.669   0.861
 7847TIP3    H247521   6.811   1.702   0.977
 7848TIP3   OH247522   6.592   1.164   1.088
 7848TIP3    H147523   6.624   1.105   1.019
 7848TIP3    H247524   6.676   1.182   1.135
 7849TIP3   OH247525   7.455   0.325   1.159
 7849TIP3    H147526   7.467   0.390   1.232
 7849TIP3    H247527   7.506   0.371   1.090
 7850TIP3   OH247528   6.907   0.611   1.118
 7850TIP3    H147529   6.924   0.515   1.117
 7850TIP3    H247530   6.897   0.626   1.022
 7851TIP3   OH247531   6.215   0.421   0.838
 7851TIP3    H147532   6.233   0.504   0.790
 7851TIP3    H247533   6.182   0.363   0.767
 7852TIP3   OH247534   6.996   0.424   0.670
 7852TIP3    H147535   7.055   0.398   0.745
 7852TIP3    H247536   7.052   0.487   0.624
 7853TIP3   OH247537   5.880   0.663   0.909
 7853TIP3    H147538   5.946   0.611   0.960
 7853TIP3    H247539   5.893   0.628   0.821
 7854TIP3   OH247540   6.395   0.818   0.844
 7854TIP3    H147541   6.465   0.762   0.883
 7854TIP3    H247542   6.347   0.752   0.792
 7855TIP3   OH247543   7.498   0.476   1.384
 7855TIP3    H147544   7.433   0.549   1.374
 7855TIP3    H247545   7.497   0.461   1.480
 7856TIP3   OH247546   6.108   0.314   1.236
 7856TIP3    H147547   6.081   0.376   1.166
 7856TIP3    H247548   6.042   0.335   1.308
 7857TIP3   OH247549   6.835   1.259   0.597
 7857TIP3    H147550   6.809   1.240   0.508
 7857TIP3    H247551   6.810   1.354   0.605
 7858TIP3   OH247552   6.367   1.087   1.238
 7858TIP3    H147553   6.297   1.153   1.249
 7858TIP3    H247554   6.445   1.143   1.219
 7859TIP3   OH247555   7.173   0.369   0.875
 7859TIP3    H147556   7.150   0.289   0.926
 7859TIP3    H247557   7.242   0.408   0.931
 7860TIP3   OH247558   6.064   0.504   1.040
 7860TIP3    H147559   6.130   0.566   1.078
 7860TIP3    H247560   6.120   0.457   0.972
 7861TIP3   OH247561   6.208   1.272   1.349
 7861TIP3    H147562   6.204   1.364   1.312
 7861TIP3    H247563   6.116   1.271   1.389
 7862TIP3   OH247564   5.814   1.234   0.425
 7862TIP3    H147565   5.790   1.271   0.337
 7862TIP3    H247566   5.820   1.317   0.478
 7863TIP3   OH247567   7.175   1.405   1.103
 7863TIP3    H147568   7.078   1.417   1.114
 7863TIP3    H247569   7.201   1.496   1.082
 7864TIP3   OH247570   7.210   0.239   1.254
 7864TIP3    H147571   7.134   0.296   1.231
 7864TIP3    H247572   7.277   0.268   1.189
 7865TIP3   OH247573   6.494   0.055   0.952
 7865TIP3    H147574   6.504  -0.035   0.988
 7865TIP3    H247575   6.422   0.084   1.009
 7866TIP3   OH247576   7.002   1.582   0.764
 7866TIP3    H147577   7.042   1.511   0.711
 7866TIP3    H247578   7.046   1.661   0.725
 7867TIP3   OH247579   7.120   1.375   0.615
 7867TIP3    H147580   7.096   1.306   0.552
 7867TIP3    H247581   7.126   1.326   0.699
 7868TIP3   OH247582   7.283   1.236   1.463
 7868TIP3    H147583   7.297   1.169   1.392
 7868TIP3    H247584   7.305   1.319   1.417
 7869TIP3   OH247585   6.730   0.911   0.446
 7869TIP3    H147586   6.650   0.954   0.410
 7869TIP3    H247587   6.801   0.903   0.379
 7870TIP3   OH247588   6.744   0.783   0.142
 7870TIP3    H147589   6.815   0.778   0.208
 7870TIP3    H247590   6.765   0.708   0.085
 7871TIP3   OH247591   7.472   0.867   1.267
 7871TIP3    H147592   7.406   0.939   1.270
 7871TIP3    H247593   7.522   0.891   1.186
 7872TIP3   OH247594   7.074   0.938   0.530
 7872TIP3    H147595   7.007   0.970   0.596
 7872TIP3    H247596   7.129   0.880   0.587
 7873TIP3   OH247597   7.071   0.761   1.445
 7873TIP3    H147598   7.071   0.844   1.496
 7873TIP3    H247599   7.009   0.789   1.375
 7874TIP3   OH247600   6.235   1.009   0.724
 7874TIP3    H147601   6.216   0.977   0.633
 7874TIP3    H247602   6.303   0.945   0.758
 7875TIP3   OH247603   6.369   1.345   0.994
 7875TIP3    H147604   6.371   1.300   0.908
 7875TIP3    H247605   6.451   1.314   1.034
 7876TIP3   OH247606   6.272   0.883   1.092
 7876TIP3    H147607   6.324   0.891   1.009
 7876TIP3    H247608   6.314   0.954   1.145
 7877TIP3   OH247609   6.915   1.443   1.162
 7877TIP3    H147610   6.886   1.507   1.227
 7877TIP3    H247611   6.888   1.358   1.202
 7878TIP3   OH247612   6.362   1.321   1.559
 7878TIP3    H147613   6.330   1.399   1.610
 7878TIP3    H247614   6.297   1.322   1.485
 7879TIP3   OH247615   6.960   0.877   0.299
 7879TIP3    H147616   7.021   0.886   0.377
 7879TIP3    H247617   7.014   0.916   0.225
 7880TIP3   OH247618   6.069   0.960   1.469
 7880TIP3    H147619   6.059   1.011   1.551
 7880TIP3    H247620   5.972   0.947   1.453
 7881TIP3   OH247621   6.739   1.536   0.640
 7881TIP3    H147622   6.779   1.566   0.722
 7881TIP3    H247623   6.682   1.611   0.619
 7882TIP3   OH247624   6.194   1.526   1.632
 7882TIP3    H147625   6.184   1.526   1.536
 7882TIP3    H247626   6.100   1.519   1.661
 7883TIP3   OH247627   7.345   0.050   0.296
 7883TIP3    H147628   7.247   0.045   0.305
 7883TIP3    H247629   7.360   0.126   0.238
 7884TIP3   OH247630   6.143   0.923   0.474
 7884TIP3    H147631   6.118   1.007   0.428
 7884TIP3    H247632   6.103   0.857   0.417
 7885TIP3   OH247633   7.452   1.472   0.125
 7885TIP3    H147634   7.466   1.567   0.142
 7885TIP3    H247635   7.544   1.440   0.121
 7886TIP3   OH247636   5.745   1.157   1.377
 7886TIP3    H147637   5.703   1.148   1.289
 7886TIP3    H247638   5.752   1.062   1.398
 7887TIP3   OH247639   5.720   1.430   1.052
 7887TIP3    H147640   5.816   1.418   1.051
 7887TIP3    H247641   5.711   1.512   1.101
 7888TIP3   OH247642   7.545   1.501   1.622
 7888TIP3    H147643   7.533   1.405   1.618
 7888TIP3    H247644   7.458   1.525   1.660
 7889TIP3   OH247645   6.639   1.453   1.507
 7889TIP3    H147646   6.646   1.537   1.557
 7889TIP3    H247647   6.553   1.418   1.534
 7890TIP3   OH247648   6.684   1.829   0.488
 7890TIP3    H147649   6.675   1.824   0.392
 7890TIP3    H247650   6.688   1.925   0.505
 7891TIP3   OH247651   6.049   1.716   0.668
 7891TIP3    H147652   6.064   1.676   0.757
 7891TIP3    H247653   5.964   1.675   0.645
 7892TIP3   OH247654   6.985   1.745   0.192
 7892TIP3    H147655   7.040   1.676   0.148
 7892TIP3    H247656   6.997   1.719   0.285
 7893TIP3   OH247657   6.959   1.743   0.464
 7893TIP3    H147658   6.863   1.751   0.482
 7893TIP3    H247659   6.983   1.669   0.521
 7894TIP3   OH247660   7.259   0.649   1.669
 7894TIP3    H147661   7.211   0.693   1.596
 7894TIP3    H247662   7.258   0.557   1.639
 7895TIP3   OH247663   5.978   1.283   1.467
 7895TIP3    H147664   5.993   1.254   1.560
 7895TIP3    H247665   5.888   1.251   1.447
 7896TIP3   OH247666   6.244   0.139   1.058
 7896TIP3    H147667   6.156   0.136   1.019
 7896TIP3    H247668   6.231   0.216   1.116
 7897TIP3   OH247669   6.708   0.106   1.404
 7897TIP3    H147670   6.748   0.059   1.477
 7897TIP3    H247671   6.613   0.090   1.416
 7898TIP3   OH247672   7.033   0.482   1.485
 7898TIP3    H147673   6.979   0.466   1.567
 7898TIP3    H247674   7.020   0.576   1.466
 7899TIP3   OH247675   7.117   0.952   0.087
 7899TIP3    H147676   7.105   0.963  -0.009
 7899TIP3    H247677   7.195   1.010   0.092
 7900TIP3   OH247678   6.680   0.359   0.140
 7900TIP3    H147679   6.634   0.352   0.225
 7900TIP3    H247680   6.640   0.279   0.102
 7901TIP3   OH247681   6.252   0.634   1.192
 7901TIP3    H147682   6.175   0.631   1.252
 7901TIP3    H247683   6.246   0.722   1.149
 7902TIP3   OH247684   6.239   0.653   0.671
 7902TIP3    H147685   6.154   0.608   0.664
 7902TIP3    H247686   6.288   0.615   0.594
 7903TIP3   OH247687   6.802   0.690   0.555
 7903TIP3    H147688   6.758   0.772   0.521
 7903TIP3    H247689   6.868   0.674   0.486
 7904TIP3   OH247690   6.705   0.716   1.696
 7904TIP3    H147691   6.654   0.638   1.727
 7904TIP3    H247692   6.789   0.705   1.742
 7905TIP3   OH247693   6.906   0.644   0.839
 7905TIP3    H147694   6.874   0.700   0.766
 7905TIP3    H247695   6.911   0.559   0.793
 7906TIP3   OH247696   6.014   0.659   1.357
 7906TIP3    H147697   6.021   0.695   1.446
 7906TIP3    H247698   5.970   0.574   1.376
 7907TIP3   OH247699   6.355   0.310   0.054
 7907TIP3    H147700   6.316   0.325   0.142
 7907TIP3    H247701   6.298   0.378   0.014
 7908TIP3   OH247702   5.683   0.363   0.757
 7908TIP3    H147703   5.751   0.379   0.825
 7908TIP3    H247704   5.728   0.344   0.674
 7909TIP3   OH247705   5.811   0.448   0.298
 7909TIP3    H147706   5.856   0.505   0.233
 7909TIP3    H247707   5.735   0.504   0.323
 7910TIP3   OH247708   6.823   0.801   1.291
 7910TIP3    H147709   6.862   0.733   1.233
 7910TIP3    H247710   6.778   0.748   1.359
 7911TIP3   OH247711   6.503   0.404   0.776
 7911TIP3    H147712   6.410   0.397   0.805
 7911TIP3    H247713   6.552   0.382   0.857
 7912TIP3   OH247714   5.984   0.562   0.656
 7912TIP3    H147715   5.892   0.563   0.623
 7912TIP3    H247716   6.014   0.474   0.625
 7913TIP3   OH247717   6.345   0.566   0.435
 7913TIP3    H147718   6.443   0.566   0.443
 7913TIP3    H247719   6.327   0.624   0.358
 7914TIP3   OH247720   6.946   0.327   1.095
 7914TIP3    H147721   6.878   0.327   1.166
 7914TIP3    H247722   6.897   0.293   1.019
 7915TIP3   OH247723   6.212   0.689   0.190
 7915TIP3    H147724   6.168   0.638   0.120
 7915TIP3    H247725   6.298   0.695   0.144
 7916TIP3   OH247726   7.263   1.887   1.732
 7916TIP3    H147727   7.291   1.925   1.646
 7916TIP3    H247728   7.336   1.919   1.788
 7917TIP3   OH247729   6.035   1.132   1.690
 7917TIP3    H147730   6.103   1.160   1.754
 7917TIP3    H247731   5.956   1.140   1.748
 7918TIP3   OH247732   6.631   0.676   0.965
 7918TIP3    H147733   6.692   0.623   0.912
 7918TIP3    H247734   6.617   0.621   1.043
 7919TIP3   OH247735   6.128   0.290   0.609
 7919TIP3    H147736   6.103   0.198   0.607
 7919TIP3    H247737   6.209   0.283   0.555
 7920TIP3   OH247738   6.495   0.507   1.207
 7920TIP3    H147739   6.413   0.560   1.214
 7920TIP3    H247740   6.552   0.544   1.277
 7921TIP3   OH247741   6.556   1.125   0.381
 7921TIP3    H147742   6.473   1.085   0.343
 7921TIP3    H247743   6.522   1.145   0.472
 7922TIP3   OH247744   7.274   1.052   1.257
 7922TIP3    H147745   7.329   1.100   1.192
 7922TIP3    H247746   7.188   1.054   1.211
 7923TIP3   OH247747   6.943   0.422   0.185
 7923TIP3    H147748   6.845   0.417   0.179
 7923TIP3    H247749   6.956   0.506   0.232
 7924TIP3   OH247750   6.689   1.157   1.498
 7924TIP3    H147751   6.676   1.115   1.584
 7924TIP3    H247752   6.682   1.251   1.515
 7925TIP3   OH247753   6.988   0.614   0.365
 7925TIP3    H147754   7.057   0.610   0.435
 7925TIP3    H247755   7.004   0.696   0.315
 7926TIP3   OH247756   6.066   1.070   0.956
 7926TIP3    H147757   6.134   1.062   0.887
 7926TIP3    H247758   6.072   0.984   1.003
 7927TIP3   OH247759   6.758   1.289   0.278
 7927TIP3    H147760   6.729   1.378   0.310
 7927TIP3    H247761   6.673   1.241   0.288
 7928TIP3   OH247762   5.766   0.910   1.483
 7928TIP3    H147763   5.778   0.864   1.569
 7928TIP3    H247764   5.703   0.851   1.438
 7929TIP3   OH247765   6.467   0.871   1.696
 7929TIP3    H147766   6.435   0.827   1.616
 7929TIP3    H247767   6.557   0.833   1.702
 7930TIP3   OH247768   6.935   1.399   1.497
 7930TIP3    H147769   6.843   1.418   1.473
 7930TIP3    H247770   6.931   1.430   1.590
 7931TIP3   OH247771   7.491   0.621   0.339
 7931TIP3    H147772   7.449   0.589   0.257
 7931TIP3    H247773   7.510   0.713   0.311
 7932TIP3   OH247774   7.500   1.204   1.614
 7932TIP3    H147775   7.410   1.226   1.578
 7932TIP3    H247776   7.554   1.199   1.533
 7933TIP3   OH247777   7.336   1.499   0.376
 7933TIP3    H147778   7.294   1.418   0.406
 7933TIP3    H247779   7.358   1.481   0.282
 7934TIP3   OH247780   7.052   0.982   1.084
 7934TIP3    H147781   6.957   0.961   1.074
 7934TIP3    H247782   7.094   0.907   1.040
 7935TIP3   OH247783   6.303   1.416   0.696
 7935TIP3    H147784   6.352   1.497   0.675
 7935TIP3    H247785   6.215   1.438   0.662
 7936TIP3   OH247786   5.879   0.898   0.151
 7936TIP3    H147787   5.937   0.964   0.192
 7936TIP3    H247788   5.790   0.931   0.176
 7937TIP3   OH247789   6.442   1.183   0.641
 7937TIP3    H147790   6.411   1.275   0.653
 7937TIP3    H247791   6.375   1.134   0.693
 7938TIP3   OH247792   6.488   1.599   1.290
 7938TIP3    H147793   6.535   1.678   1.259
 7938TIP3    H247794   6.553   1.567   1.356
 7939TIP3   OH247795   6.312   1.680   0.600
 7939TIP3    H147796   6.215   1.695   0.613
 7939TIP3    H247797   6.349   1.764   0.632
 7940TIP3   OH247798   6.837   1.197   1.248
 7940TIP3    H147799   6.811   1.181   1.341
 7940TIP3    H247800   6.904   1.129   1.232
 7941TIP3   OH247801   7.069   1.304   0.158
 7941TIP3    H147802   7.108   1.263   0.238
 7941TIP3    H247803   6.975   1.289   0.173
 7942TIP3   OH247804   7.124   1.658   1.498
 7942TIP3    H147805   7.054   1.609   1.451
 7942TIP3    H247806   7.142   1.728   1.431
 7943TIP3   OH247807   7.523   1.744   0.184
 7943TIP3    H147808   7.594   1.808   0.165
 7943TIP3    H247809   7.450   1.805   0.211
 7944TIP3   OH247810   5.930   0.383   1.437
 7944TIP3    H147811   5.839   0.418   1.434
 7944TIP3    H247812   5.916   0.297   1.482
 7945TIP3   OH247813   7.150   1.171   0.389
 7945TIP3    H147814   7.132   1.091   0.440
 7945TIP3    H247815   7.247   1.175   0.399
 7946TIP3   OH247816   5.890   1.563   1.280
 7946TIP3    H147817   5.920   1.471   1.279
 7946TIP3    H247818   5.917   1.591   1.367
 7947TIP3   OH247819   6.368   1.369   0.254
 7947TIP3    H147820   6.392   1.319   0.332
 7947TIP3    H247821   6.373   1.462   0.285
 7948TIP3   OH247822   6.017   1.092   0.303
 7948TIP3    H147823   5.945   1.137   0.353
 7948TIP3    H247824   6.070   1.168   0.272
 7949TIP3   OH247825   6.802   0.361   1.336
 7949TIP3    H147826   6.875   0.364   1.399
 7949TIP3    H247827   6.767   0.271   1.352
 7950TIP3   OH247828   6.889   0.311   0.446
 7950TIP3    H147829   6.898   0.366   0.368
 7950TIP3    H247830   6.931   0.366   0.514
 7951TIP3   OH247831   6.643   1.530   0.319
 7951TIP3    H147832   6.565   1.587   0.336
 7951TIP3    H247833   6.699   1.588   0.266
 7952TIP3   OH247834   6.600   0.491   0.526
 7952TIP3    H147835   6.676   0.552   0.531
 7952TIP3    H247836   6.571   0.480   0.619
 7953TIP3   OH247837   6.656   0.600   1.443
 7953TIP3    H147838   6.666   0.650   1.527
 7953TIP3    H247839   6.718   0.526   1.451
 7954TIP3   OH247840   6.688   0.199   0.618
 7954TIP3    H147841   6.652   0.267   0.677
 7954TIP3    H247842   6.753   0.254   0.568
 7955TIP3   OH247843   6.383   1.639   0.329
 7955TIP3    H147844   6.399   1.721   0.276
 7955TIP3    H247845   6.357   1.674   0.417
 7956TIP3   OH247846   6.246   0.307   0.295
 7956TIP3    H147847   6.247   0.401   0.320
 7956TIP3    H247848   6.340   0.283   0.307
 7957TIP3   OH247849   7.272   0.387   1.527
 7957TIP3    H147850   7.179   0.415   1.513
 7957TIP3    H247851   7.302   0.377   1.435
 7958TIP3   OH247852   7.135   0.762   0.929
 7958TIP3    H147853   7.053   0.716   0.902
 7958TIP3    H247854   7.184   0.693   0.980
 7959TIP3   OH247855   6.078   1.350   0.191
 7959TIP3    H147856   6.142   1.415   0.222
 7959TIP3    H247857   6.126   1.308   0.118
 7960TIP3   OH247858   5.907   0.622   0.108
 7960TIP3    H147859   5.908   0.719   0.119
 7960TIP3    H247860   5.822   0.603   0.069
 7961TIP3   OH247861   7.241   1.688   1.095
 7961TIP3    H147862   7.233   1.755   1.025
 7961TIP3    H247863   7.337   1.693   1.113
 7962TIP3   OH247864   5.963   0.121   0.962
 7962TIP3    H147865   5.976   0.102   0.867
 7962TIP3    H247866   5.963   0.031   1.002
 7963TIP3   OH247867   5.886   1.492   0.591
 7963TIP3    H147868   5.800   1.535   0.586
 7963TIP3    H247869   5.932   1.537   0.519
 7964TIP3   OH247870   5.805   1.757   1.719
 7964TIP3    H147871   5.867   1.737   1.793
 7964TIP3    H247872   5.765   1.670   1.701
 7965TIP3   OH247873   6.275   1.649   1.879
 7965TIP3    H147874   6.350   1.598   1.913
 7965TIP3    H247875   6.272   1.620   1.786
 7966TIP3   OH247876   6.694   1.611   0.047
 7966TIP3    H147877   6.623   1.548   0.063
 7966TIP3    H247878   6.763   1.562   0.002
 7967TIP3   OH247879   6.924   1.487   1.755
 7967TIP3    H147880   6.892   1.398   1.784
 7967TIP3    H247881   7.001   1.499   1.814
 7968TIP3   OH247882   7.166   1.568   0.095
 7968TIP3    H147883   7.178   1.472   0.092
 7968TIP3    H247884   7.198   1.598   0.008
 7969TIP3   OH247885   5.797   1.133   1.819
 7969TIP3    H147886   5.811   1.041   1.791
 7969TIP3    H247887   5.724   1.159   1.761
 7970TIP3   OH247888   6.217   1.152   0.021
 7970TIP3    H147889   6.246   1.083   0.083
 7970TIP3    H247890   6.295   1.158  -0.036
 7971TIP3   OH247891   6.467   1.133   1.758
 7971TIP3    H147892   6.437   1.167   1.672
 7971TIP3    H247893   6.477   1.035   1.748
 7972TIP3   OH247894   7.036   1.118   1.496
 7972TIP3    H147895   7.116   1.175   1.492
 7972TIP3    H247896   6.968   1.187   1.500
 7973TIP3   OH247897   5.895   0.857   1.756
 7973TIP3    H147898   5.928   0.767   1.749
 7973TIP3    H247899   5.868   0.858   1.849
 7974TIP3   OH247900   6.359   0.972   0.265
 7974TIP3    H147901   6.304   0.918   0.324
 7974TIP3    H247902   6.385   0.904   0.198
 7975TIP3   OH247903   6.283   0.755   1.495
 7975TIP3    H147904   6.213   0.818   1.518
 7975TIP3    H247905   6.318   0.782   1.409
 7976TIP3   OH247906   6.466   0.798   0.091
 7976TIP3    H147907   6.440   0.780  -0.003
 7976TIP3    H247908   6.563   0.799   0.090
 7977TIP3   OH247909   6.787   1.008   1.827
 7977TIP3    H147910   6.882   1.005   1.812
 7977TIP3    H247911   6.770   0.931   1.883
 7978TIP3   OH247912   7.390   1.020  11.009
 7978TIP3    H147913   7.378   0.984  10.922
 7978TIP3    H247914   7.398   1.115  10.988
 7979TIP3   OH247915   6.322   0.489   1.598
 7979TIP3    H147916   6.334   0.419   1.532
 7979TIP3    H247917   6.316   0.569   1.543
 7980TIP3   OH247918   6.361   0.328   1.354
 7980TIP3    H147919   6.413   0.375   1.284
 7980TIP3    H247920   6.272   0.321   1.313
 7981TIP3   OH247921   6.509   0.883   1.377
 7981TIP3    H147922   6.587   0.854   1.327
 7981TIP3    H247923   6.490   0.965   1.333
 7982TIP3   OH247924   6.953   0.650   1.871
 7982TIP3    H147925   6.976   0.556   1.866
 7982TIP3    H247926   7.039   0.693   1.879
 7983TIP3   OH247927   7.088   0.933   1.693
 7983TIP3    H147928   7.063   1.003   1.629
 7983TIP3    H247929   7.184   0.928   1.673
 7984TIP3   OH247930   6.165   0.615   1.788
 7984TIP3    H147931   6.089   0.556   1.774
 7984TIP3    H247932   6.232   0.574   1.729
 7985TIP3   OH247933   6.431   0.079   1.395
 7985TIP3    H147934   6.420   0.177   1.383
 7985TIP3    H247935   6.355   0.042   1.350
 7986TIP3   OH247936   6.566   0.504   1.756
 7986TIP3    H147937   6.536   0.479   1.846
 7986TIP3    H247938   6.488   0.483   1.702
 7987TIP3   OH247939   6.838   0.424   1.668
 7987TIP3    H147940   6.741   0.421   1.676
 7987TIP3    H247941   6.866   0.358   1.734
 7988TIP3   OH247942   6.995   0.288   1.850
 7988TIP3    H147943   6.994   0.190   1.849
 7988TIP3    H247944   6.971   0.309   1.943
 7989TIP3   OH247945   5.974   0.409   1.765
 7989TIP3    H147946   5.998   0.334   1.707
 7989TIP3    H247947   5.965   0.364   1.852
 7990TIP3   OH247948   6.472   8.146   1.639
 7990TIP3    H147949   6.538   8.075   1.645
 7990TIP3    H247950   6.448   8.131   1.545
 7991TIP3   OH247951   6.492   0.175   1.874
 7991TIP3    H147952   6.481   0.131   1.787
 7991TIP3    H247953   6.436   0.254   1.864
 7992TIP3   OH247954   6.443   1.866   0.196
 7992TIP3    H147955   6.541   1.871   0.200
 7992TIP3    H247956   6.422   1.926   0.123
 7993TIP3   OH247957   5.806   1.318   0.140
 7993TIP3    H147958   5.902   1.331   0.158
 7993TIP3    H247959   5.807   1.261   0.063
 7994TIP3   OH247960   5.677   1.858   0.635
 7994TIP3    H147961   5.605   1.809   0.589
 7994TIP3    H247962   5.704   1.793   0.702
 7995TIP3   OH247963   5.759   1.672   0.822
 7995TIP3    H147964   5.724   1.585   0.843
 7995TIP3    H247965   5.784   1.706   0.910
 7996TIP3   OH247966   7.506   1.754   1.116
 7996TIP3    H147967   7.517   1.766   1.211
 7996TIP3    H247968   7.581   1.806   1.084
 7997TIP3   OH247969   7.472   1.710   1.410
 7997TIP3    H147970   7.423   1.634   1.372
 7997TIP3    H247971   7.520   1.665   1.482
 7998TIP3   OH247972   7.315   1.283   1.878
 7998TIP3    H147973   7.224   1.281   1.914
 7998TIP3    H247974   7.352   1.364   1.918
 7999TIP3   OH247975   7.449   1.115   0.419
 7999TIP3    H147976   7.534   1.155   0.442
 7999TIP3    H247977   7.444   1.045   0.488
 8000TIP3   OH247978   7.479   0.923   0.607
 8000TIP3    H147979   7.405   0.875   0.650
 8000TIP3    H247980   7.540   0.935   0.683
 8001TIP3   OH247981   7.457   1.192   1.107
 8001TIP3    H147982   7.539   1.154   1.069
 8001TIP3    H247983   7.472   1.287   1.090
 8002TIP3   OH247984   7.314   1.484   1.334
 8002TIP3    H147985   7.245   1.518   1.393
 8002TIP3    H247986   7.259   1.444   1.263
 8003TIP3   OH247987   7.505   0.901   0.245
 8003TIP3    H147988   7.453   0.945   0.174
 8003TIP3    H247989   7.502   0.974   0.311
 8004TIP3   OH247990   7.333   0.629   0.101
 8004TIP3    H147991   7.353   0.698   0.035
 8004TIP3    H247992   7.333   0.549   0.046
 8005TIP3   OH247993   7.262   0.770   0.665
 8005TIP3    H147994   7.250   0.675   0.667
 8005TIP3    H247995   7.233   0.794   0.756
 8006TIP3   OH247996   5.764   0.979   1.071
 8006TIP3    H147997   5.782   0.972   0.975
 8006TIP3    H247998   5.853   0.961   1.108
 8007TIP3   OH247999   7.351   0.968   1.636
 8007TIP3    H148000   7.412   0.892   1.648
 8007TIP3    H248001   7.411   1.045   1.635
 8008TIP3   OH248002   7.501   0.755   1.700
 8008TIP3    H148003   7.413   0.716   1.685
 8008TIP3    H248004   7.559   0.677   1.693
 8009TIP3   OH248005   7.250   0.367   0.124
 8009TIP3    H148006   7.336   0.333   0.091
 8009TIP3    H248007   7.198   0.333   0.049
 8010TIP3   OH248008   7.227   0.532   0.497
 8010TIP3    H148009   7.258   0.442   0.528
 8010TIP3    H248010   7.314   0.574   0.486
 8011TIP3   OH248011   7.294   0.585   1.055
 8011TIP3    H148012   7.391   0.605   1.054
 8011TIP3    H248013   7.276   0.594   1.150
 8012TIP3   OH248014   7.300   0.658   1.332
 8012TIP3    H148015   7.212   0.686   1.366
 8012TIP3    H248016   7.345   0.743   1.312
 8013TIP3   OH248017   5.730   0.514   1.690
 8013TIP3    H148018   5.822   0.485   1.706
 8013TIP3    H248019   5.681   0.431   1.713
 8014TIP3   OH248020   7.544   0.072   1.883
 8014TIP3    H148021   7.553   0.005   1.813
 8014TIP3    H248022   7.535   0.148   1.823
 8015TIP3   OH248023   7.289   0.266   0.517
 8015TIP3    H148024   7.319   0.219   0.599
 8015TIP3    H248025   7.237   0.195   0.474
 8016TIP3   OH248026   5.841   0.343   0.970
 8016TIP3    H148027   5.890   0.263   1.001
 8016TIP3    H248028   5.897   0.411   1.011
 8017TIP3   OH248029   5.676   0.639   1.077
 8017TIP3    H148030   5.731   0.614   1.002
 8017TIP3    H248031   5.722   0.720   1.103
 8018TIP3   OH248032   7.483   0.277   1.701
 8018TIP3    H148033   7.387   0.298   1.698
 8018TIP3    H248034   7.484   0.215   1.626
 8019TIP3   OH248035   7.489   0.259   0.174
 8019TIP3    H148036   7.527   0.190   0.118
 8019TIP3    H248037   7.557   0.326   0.183
 8020TIP3   OH248038   5.708   0.262   0.492
 8020TIP3    H148039   5.616   0.285   0.469
 8020TIP3    H248040   5.754   0.307   0.418
 8021TIP3   OH248041   7.184   1.758   0.679
 8021TIP3    H148042   7.252   1.730   0.614
 8021TIP3    H248043   7.236   1.809   0.743
 8022TIP3   OH248044   5.713   0.142   1.307
 8022TIP3    H148045   5.654   0.123   1.381
 8022TIP3    H248046   5.661   0.207   1.255
 8023TIP3   OH248047   5.931   1.447   1.727
 8023TIP3    H148048   5.848   1.471   1.684
 8023TIP3    H248049   5.905   1.442   1.820
 8024TIP3   OH248050   6.221   1.549   1.356
 8024TIP3    H148051   6.188   1.637   1.331
 8024TIP3    H248052   6.313   1.561   1.326
 8025TIP3   OH248053   6.652   1.693   1.646
 8025TIP3    H148054   6.665   1.658   1.737
 8025TIP3    H248055   6.743   1.724   1.623
 8026TIP3   OH248056   6.881   1.820   1.578
 8026TIP3    H148057   6.954   1.762   1.555
 8026TIP3    H248058   6.918   1.864   1.658
 8027TIP3   OH248059   7.372   0.103   1.491
 8027TIP3    H148060   7.284   0.122   1.454
 8027TIP3    H248061   7.380   0.009   1.470
 8028TIP3   OH248062   5.962   1.872   1.355
 8028TIP3    H148063   5.890   1.925   1.317
 8028TIP3    H248064   5.932   1.857   1.446
 8029TIP3   OH248065   6.209   1.832   1.263
 8029TIP3    H148066   6.120   1.849   1.302
 8029TIP3    H248067   6.205   1.892   1.186
 8030TIP3   OH248068   6.680   1.823   1.180
 8030TIP3    H148069   6.634   1.879   1.116
 8030TIP3    H248070   6.693   1.886   1.254
 8031TIP3   OH248071   6.908   1.703   1.285
 8031TIP3    H148072   6.824   1.732   1.246
 8031TIP3    H248073   6.958   1.785   1.275
 8032TIP3   OH248074   7.167   1.860   1.305
 8032TIP3    H148075   7.163   1.956   1.282
 8032TIP3    H248076   7.189   1.823   1.217
 8033TIP3   OH248077   5.910   1.739   1.051
 8033TIP3    H148078   5.901   1.693   1.136
 8033TIP3    H248079   5.991   1.700   1.012
 8034TIP3   OH248080   6.117   1.609   0.916
 8034TIP3    H148081   6.102   1.516   0.941
 8034TIP3    H248082   6.202   1.627   0.961
 8035TIP3   OH248083   6.377   1.656   1.005
 8035TIP3    H148084   6.392   1.564   0.977
 8035TIP3    H248085   6.380   1.649   1.101
 8036TIP3   OH248086   6.718   0.230   0.912
 8036TIP3    H148087   6.657   0.163   0.944
 8036TIP3    H248088   6.780   0.175   0.863
 8037TIP3   OH248089   7.239   0.058   0.940
 8037TIP3    H148090   7.299   0.094   0.871
 8037TIP3    H248091   7.150   0.062   0.899
 8038TIP3   OH248092   7.405   0.159   0.748
 8038TIP3    H148093   7.469   0.097   0.710
 8038TIP3    H248094   7.457   0.242   0.763
 8039TIP3   OH248095   5.943   0.077   0.708
 8039TIP3    H148096   5.887   0.064   0.630
 8039TIP3    H248097   6.007   0.006   0.692
 8040TIP3   OH248098   5.860   0.108   0.296
 8040TIP3    H148099   5.883   0.155   0.214
 8040TIP3    H248100   5.772   0.138   0.321
 8041TIP3   OH248101   6.401   0.093   0.680
 8041TIP3    H148102   6.494   0.117   0.670
 8041TIP3    H248103   6.408   0.058   0.770
 8042TIP3   OH248104   6.976   0.083   0.846
 8042TIP3    H148105   6.972   0.090   0.750
 8042TIP3    H248106   6.943  -0.008   0.857
 8043TIP3   OH248107   7.089   0.099   0.379
 8043TIP3    H148108   7.014   0.157   0.398
 8043TIP3    H248109   7.066   0.017   0.425
 8044TIP3   OH248110   5.829   1.657   0.372
 8044TIP3    H148111   5.757   1.658   0.306
 8044TIP3    H248112   5.831   1.752   0.393
 8045TIP3   OH248113   6.017   0.253   0.121
 8045TIP3    H148114   6.076   0.193   0.074
 8045TIP3    H248115   6.080   0.285   0.187
 8046TIP3   OH248116   6.520   0.285   0.361
 8046TIP3    H148117   6.551   0.224   0.431
 8046TIP3    H248118   6.528   0.368   0.412
 8047TIP3   OH248119   6.712   1.801   0.213
 8047TIP3    H148120   6.807   1.811   0.196
 8047TIP3    H248121   6.693   1.741   0.137
 8048TIP3   OH248122   7.384   1.740   0.481
 8048TIP3    H148123   7.364   1.660   0.426
 8048TIP3    H248124   7.376   1.812   0.416
 8049TIP3   OH248125   5.948   0.146   1.651
 8049TIP3    H148126   5.912   0.063   1.683
 8049TIP3    H248127   6.040   0.135   1.680
 8050TIP3   OH248128   6.151   0.087   1.824
 8050TIP3    H148129   6.234   0.055   1.786
 8050TIP3    H248130   6.105   0.001   1.837
 8051TIP3   OH248131   6.006   1.749   0.070
 8051TIP3    H148132   5.979   1.783   0.156
 8051TIP3    H248133   6.087   1.700   0.089
 8052TIP3   OH248134   7.000   8.110   1.835
 8052TIP3    H148135   6.998   8.040   1.899
 8052TIP3    H248136   7.081   8.089   1.785
 8053TIP3   OH248137   7.309   1.613   1.689
 8053TIP3    H148138   7.228   1.599   1.634
 8053TIP3    H248139   7.296   1.707   1.711
 8054TIP3   OH248140   7.874   0.894   1.192
 8054TIP3    H148141   7.883   0.824   1.260
 8054TIP3    H248142   7.951   0.948   1.215
 8055TIP3   OH248143   7.947   1.324   1.060
 8055TIP3    H148144   7.927   1.243   1.010
 8055TIP3    H248145   8.045   1.329   1.049
 8056TIP3   OH248146   7.626   0.693   0.592
 8056TIP3    H148147   7.586   0.782   0.585
 8056TIP3    H248148   7.571   0.640   0.534
 8057TIP3   OH248149   7.702   0.919   0.807
 8057TIP3    H148150   7.728   0.836   0.851
 8057TIP3    H248151   7.772   0.927   0.740
 8058TIP3   OH248152   7.762   0.661   0.912
 8058TIP3    H148153   7.832   0.610   0.958
 8058TIP3    H248154   7.781   0.632   0.821
 8059TIP3   OH248155   7.979   0.312   1.237
 8059TIP3    H148156   7.963   0.376   1.165
 8059TIP3    H248157   7.918   0.341   1.309
 8060TIP3   OH248158   7.936   0.489   1.035
 8060TIP3    H148159   7.994   0.557   1.078
 8060TIP3    H248160   7.997   0.454   0.967
 8061TIP3   OH248161   8.074   1.309   1.346
 8061TIP3    H148162   8.066   1.397   1.308
 8061TIP3    H248163   7.987   1.292   1.390
 8062TIP3   OH248164   7.704   1.237   0.425
 8062TIP3    H148165   7.677   1.270   0.338
 8062TIP3    H248166   7.704   1.319   0.479
 8063TIP3   OH248167   7.937   0.943   1.475
 8063TIP3    H148168   7.947   1.008   1.547
 8063TIP3    H248169   7.843   0.953   1.454
 8064TIP3   OH248170   8.076   1.531   1.636
 8064TIP3    H148171   8.072   1.518   1.541
 8064TIP3    H248172   7.982   1.518   1.660
 8065TIP3   OH248173   8.018   0.918   0.482
 8065TIP3    H148174   7.991   0.996   0.431
 8065TIP3    H248175   7.951   0.853   0.462
 8066TIP3   OH248176   7.628   1.156   1.376
 8066TIP3    H148177   7.586   1.148   1.289
 8066TIP3    H248178   7.642   1.062   1.397
 8067TIP3   OH248179   7.607   1.430   1.054
 8067TIP3    H148180   7.703   1.419   1.050
 8067TIP3    H248181   7.601   1.514   1.102
 8068TIP3   OH248182   7.922   1.708   0.671
 8068TIP3    H148183   7.939   1.669   0.759
 8068TIP3    H248184   7.836   1.667   0.650
 8069TIP3   OH248185   7.849   1.292   1.475
 8069TIP3    H148186   7.878   1.248   1.558
 8069TIP3    H248187   7.768   1.245   1.448
 8070TIP3   OH248188   7.897   0.661   1.359
 8070TIP3    H148189   7.903   0.698   1.448
 8070TIP3    H248190   7.860   0.573   1.376
 8071TIP3   OH248191   7.566   0.374   0.755
 8071TIP3    H148192   7.631   0.371   0.828
 8071TIP3    H248193   7.613   0.334   0.680
 8072TIP3   OH248194   7.687   0.447   0.291
 8072TIP3    H148195   7.743   0.506   0.237
 8072TIP3    H248196   7.621   0.509   0.327
 8073TIP3   OH248197   7.865   0.560   0.661
 8073TIP3    H148198   7.776   0.567   0.623
 8073TIP3    H248199   7.896   0.472   0.632
 8074TIP3   OH248200   7.915   1.142   1.687
 8074TIP3    H148201   7.985   1.160   1.750
 8074TIP3    H248202   7.837   1.145   1.747
 8075TIP3   OH248203   7.966   0.287   0.593
 8075TIP3    H148204   7.964   0.192   0.615
 8075TIP3    H248205   8.062   0.299   0.583
 8076TIP3   OH248206   7.946   1.071   0.949
 8076TIP3    H148207   8.021   1.063   0.889
 8076TIP3    H248208   7.952   0.989   1.002
 8077TIP3   OH248209   7.650   0.910   1.484
 8077TIP3    H148210   7.666   0.864   1.568
 8077TIP3    H248211   7.587   0.850   1.438
 8078TIP3   OH248212   7.766   0.900   0.150
 8078TIP3    H148213   7.823   0.965   0.196
 8078TIP3    H248214   7.677   0.929   0.177
 8079TIP3   OH248215   7.814   0.382   1.443
 8079TIP3    H148216   7.724   0.415   1.429
 8079TIP3    H248217   7.800   0.294   1.481
 8080TIP3   OH248218   7.784   1.561   1.277
 8080TIP3    H148219   7.799   1.466   1.284
 8080TIP3    H248220   7.800   1.592   1.367
 8081TIP3   OH248221   7.906   1.095   0.293
 8081TIP3    H148222   7.836   1.130   0.353
 8081TIP3    H248223   7.958   1.175   0.278
 8082TIP3   OH248224   7.959   1.351   0.190
 8082TIP3    H148225   8.021   1.417   0.222
 8082TIP3    H248226   8.013   1.314   0.119
 8083TIP3   OH248227   7.794   0.618   0.112
 8083TIP3    H148228   7.794   0.716   0.118
 8083TIP3    H248229   7.712   0.599   0.069
 8084TIP3   OH248230   7.852   0.128   0.962
 8084TIP3    H148231   7.854   0.109   0.865
 8084TIP3    H248232   7.842   0.039   0.998
 8085TIP3   OH248233   7.765   1.491   0.591
 8085TIP3    H148234   7.681   1.539   0.585
 8085TIP3    H248235   7.817   1.536   0.522
 8086TIP3   OH248236   7.690   1.757   1.717
 8086TIP3    H148237   7.749   1.738   1.792
 8086TIP3    H248238   7.650   1.670   1.701
 8087TIP3   OH248239   7.683   1.134   1.818
 8087TIP3    H148240   7.697   1.041   1.790
 8087TIP3    H248241   7.608   1.159   1.762
 8088TIP3   OH248242   7.777   0.857   1.757
 8088TIP3    H148243   7.815   0.769   1.746
 8088TIP3    H248244   7.756   0.856   1.852
 8089TIP3   OH248245   8.037   0.632   1.803
 8089TIP3    H148246   7.968   0.564   1.783
 8089TIP3    H248247   8.107   0.600   1.743
 8090TIP3   OH248248   7.859   0.407   1.764
 8090TIP3    H148249   7.880   0.332   1.705
 8090TIP3    H248250   7.855   0.365   1.852
 8091TIP3   OH248251   7.687   1.316   0.142
 8091TIP3    H148252   7.782   1.331   0.159
 8091TIP3    H248253   7.689   1.259   0.064
 8092TIP3   OH248254   7.561   1.857   0.635
 8092TIP3    H148255   7.488   1.808   0.590
 8092TIP3    H248256   7.591   1.793   0.702
 8093TIP3   OH248257   7.644   1.671   0.823
 8093TIP3    H148258   7.608   1.583   0.843
 8093TIP3    H248259   7.670   1.703   0.911
 8094TIP3   OH248260   7.651   0.984   1.071
 8094TIP3    H148261   7.671   0.970   0.976
 8094TIP3    H248262   7.739   0.962   1.108
 8095TIP3   OH248263   7.612   0.513   1.688
 8095TIP3    H148264   7.705   0.485   1.703
 8095TIP3    H248265   7.565   0.430   1.713
 8096TIP3   OH248266   7.720   0.346   0.977
 8096TIP3    H148267   7.773   0.263   0.990
 8096TIP3    H248268   7.787   0.410   1.008
 8097TIP3   OH248269   7.557   0.640   1.074
 8097TIP3    H148270   7.617   0.613   1.001
 8097TIP3    H248271   7.605   0.718   1.104
 8098TIP3   OH248272   7.592   0.257   0.483
 8098TIP3    H148273   7.501   0.284   0.469
 8098TIP3    H248274   7.640   0.311   0.418
 8099TIP3   OH248275   7.598   0.143   1.310
 8099TIP3    H148276   7.534   0.123   1.380
 8099TIP3    H248277   7.549   0.205   1.252
 8100TIP3   OH248278   7.813   1.451   1.729
 8100TIP3    H148279   7.730   1.473   1.684
 8100TIP3    H248280   7.784   1.440   1.820
 8101TIP3   OH248281   7.848   1.876   1.359
 8101TIP3    H148282   7.775   1.923   1.315
 8101TIP3    H248283   7.811   1.858   1.446
 8102TIP3   OH248284   8.073   1.797   1.233
 8102TIP3    H148285   8.008   1.834   1.297
 8102TIP3    H248286   8.095   1.881   1.189
 8103TIP3   OH248287   7.784   1.739   1.053
 8103TIP3    H148288   7.790   1.694   1.140
 8103TIP3    H248289   7.867   1.705   1.013
 8104TIP3   OH248290   7.983   1.609   0.932
 8104TIP3    H148291   7.977   1.513   0.945
 8104TIP3    H248292   8.073   1.623   0.966
 8105TIP3   OH248293   7.832   0.079   0.702
 8105TIP3    H148294   7.756   0.061   0.645
 8105TIP3    H248295   7.890   0.002   0.694
 8106TIP3   OH248296   7.747   0.106   0.292
 8106TIP3    H148297   7.767   0.159   0.212
 8106TIP3    H248298   7.660   0.137   0.323
 8107TIP3   OH248299   7.714   1.659   0.371
 8107TIP3    H148300   7.640   1.659   0.308
 8107TIP3    H248301   7.717   1.753   0.393
 8108TIP3   OH248302   7.902   0.248   0.125
 8108TIP3    H148303   7.963   0.197   0.071
 8108TIP3    H248304   7.964   0.288   0.187
 8109TIP3   OH248305   7.840   0.146   1.646
 8109TIP3    H148306   7.802   0.066   1.684
 8109TIP3    H248307   7.931   0.135   1.677
 8110TIP3   OH248308   8.029   0.091   1.837
 8110TIP3    H148309   8.107   0.063   1.783
 8110TIP3    H248310   7.989   0.003   1.845
 8111TIP3   OH248311   7.894   1.757   0.070
 8111TIP3    H148312   7.867   1.785   0.158
 8111TIP3    H248313   7.971   1.702   0.086
 8112TIP3   OH248314   1.220   2.911   0.619
 8112TIP3    H148315   1.208   2.986   0.682
 8112TIP3    H248316   1.139   2.861   0.638
 8113TIP3   OH248317   1.032   2.803   1.107
 8113TIP3    H148318   1.103   2.742   1.131
 8113TIP3    H248319   1.045   2.794   1.009
 8114TIP3   OH248320   0.346   2.770   1.183
 8114TIP3    H148321   0.339   2.711   1.261
 8114TIP3    H248322   0.407   2.838   1.217
 8115TIP3   OH248323   1.467   3.107   0.868
 8115TIP3    H148324   1.421   3.035   0.912
 8115TIP3    H248325   1.466   3.176   0.936
 8116TIP3   OH248326   0.422   3.224   1.039
 8116TIP3    H148327   0.393   3.134   1.013
 8116TIP3    H248328   0.517   3.207   1.046
 8117TIP3   OH248329   0.093   2.581   0.583
 8117TIP3    H148330   0.049   2.668   0.588
 8117TIP3    H248331   0.028   2.526   0.541
 8118TIP3   OH248332   0.159   2.798   0.806
 8118TIP3    H148333   0.185   2.717   0.852
 8118TIP3    H248334   0.228   2.810   0.739
 8119TIP3   OH248335   1.177   3.623   0.891
 8119TIP3    H148336   1.242   3.555   0.861
 8119TIP3    H248337   1.154   3.587   0.977
 8120TIP3   OH248338   0.934   3.060   1.083
 8120TIP3    H148339   0.963   2.988   1.023
 8120TIP3    H248340   1.014   3.066   1.137
 8121TIP3   OH248341   1.792   2.218   1.157
 8121TIP3    H148342   1.811   2.276   1.234
 8121TIP3    H248343   1.850   2.259   1.091
 8122TIP3   OH248344   1.250   2.499   1.117
 8122TIP3    H148345   1.267   2.404   1.115
 8122TIP3    H248346   1.240   2.515   1.020
 8123TIP3   OH248347   0.562   2.308   0.838
 8123TIP3    H148348   0.572   2.392   0.789
 8123TIP3    H248349   0.524   2.250   0.768
 8124TIP3   OH248350   1.339   2.309   0.668
 8124TIP3    H148351   1.400   2.286   0.743
 8124TIP3    H248352   1.392   2.374   0.621
 8125TIP3   OH248353   0.235   2.549   0.910
 8125TIP3    H148354   0.297   2.489   0.956
 8125TIP3    H248355   0.237   2.515   0.819
 8126TIP3   OH248356   0.735   2.703   0.845
 8126TIP3    H148357   0.809   2.649   0.881
 8126TIP3    H248358   0.689   2.636   0.793
 8127TIP3   OH248359   1.836   2.357   1.388
 8127TIP3    H148360   1.778   2.435   1.373
 8127TIP3    H248361   1.840   2.352   1.484
 8128TIP3   OH248362   0.456   2.197   1.238
 8128TIP3    H148363   0.425   2.256   1.166
 8128TIP3    H248364   0.390   2.218   1.308
 8129TIP3   OH248365   1.181   3.161   0.601
 8129TIP3    H148366   1.155   3.117   0.518
 8129TIP3    H248367   1.145   3.250   0.598
 8130TIP3   OH248368   0.706   2.962   1.265
 8130TIP3    H148369   0.636   3.026   1.288
 8130TIP3    H248370   0.777   3.020   1.234
 8131TIP3   OH248371   1.517   2.250   0.873
 8131TIP3    H148372   1.495   2.173   0.927
 8131TIP3    H248373   1.585   2.293   0.928
 8132TIP3   OH248374   0.413   2.379   1.046
 8132TIP3    H148375   0.473   2.451   1.077
 8132TIP3    H248376   0.465   2.343   0.970
 8133TIP3   OH248377   0.550   3.162   1.345
 8133TIP3    H148378   0.542   3.254   1.314
 8133TIP3    H248379   0.463   3.152   1.390
 8134TIP3   OH248380   0.158   3.123   0.426
 8134TIP3    H148381   0.131   3.154   0.338
 8134TIP3    H248382   0.163   3.205   0.478
 8135TIP3   OH248383   1.518   3.291   1.103
 8135TIP3    H148384   1.421   3.303   1.115
 8135TIP3    H248385   1.545   3.382   1.082
 8136TIP3   OH248386   1.549   2.119   1.241
 8136TIP3    H148387   1.477   2.182   1.231
 8136TIP3    H248388   1.622   2.160   1.189
 8137TIP3   OH248389   0.845   1.930   0.988
 8137TIP3    H148390   0.830   1.834   0.980
 8137TIP3    H248391   0.758   1.961   1.019
 8138TIP3   OH248392   1.346   3.471   0.766
 8138TIP3    H148393   1.385   3.398   0.713
 8138TIP3    H248394   1.390   3.548   0.724
 8139TIP3   OH248395   1.466   3.259   0.616
 8139TIP3    H148396   1.434   3.191   0.554
 8139TIP3    H248397   1.467   3.208   0.699
 8140TIP3   OH248398   1.626   3.122   1.463
 8140TIP3    H148399   1.641   3.055   1.392
 8140TIP3    H248400   1.647   3.205   1.417
 8141TIP3   OH248401   1.067   2.797   0.427
 8141TIP3    H148402   1.009   2.871   0.404
 8141TIP3    H248403   1.148   2.820   0.378
 8142TIP3   OH248404   1.084   2.663   0.138
 8142TIP3    H148405   1.154   2.668   0.207
 8142TIP3    H248406   1.114   2.590   0.086
 8143TIP3   OH248407   1.816   2.753   1.267
 8143TIP3    H148408   1.750   2.825   1.270
 8143TIP3    H248409   1.866   2.776   1.186
 8144TIP3   OH248410   1.438   2.825   0.526
 8144TIP3    H148411   1.358   2.855   0.578
 8144TIP3    H248412   1.475   2.759   0.586
 8145TIP3   OH248413   1.416   2.647   1.443
 8145TIP3    H148414   1.414   2.729   1.496
 8145TIP3    H248415   1.351   2.676   1.374
 8146TIP3   OH248416   0.584   2.897   0.723
 8146TIP3    H148417   0.549   2.856   0.640
 8146TIP3    H248418   0.646   2.828   0.757
 8147TIP3   OH248419   0.715   3.234   0.991
 8147TIP3    H148420   0.713   3.183   0.909
 8147TIP3    H248421   0.794   3.197   1.035
 8148TIP3   OH248422   0.621   2.769   1.090
 8148TIP3    H148423   0.674   2.780   1.008
 8148TIP3    H248424   0.655   2.838   1.150
 8149TIP3   OH248425   1.257   3.328   1.159
 8149TIP3    H148426   1.229   3.392   1.227
 8149TIP3    H248427   1.231   3.242   1.200
 8150TIP3   OH248428   0.711   3.215   1.559
 8150TIP3    H148429   0.668   3.287   1.608
 8150TIP3    H248430   0.644   3.194   1.489
 8151TIP3   OH248431   1.310   2.748   0.295
 8151TIP3    H148432   1.361   2.769   0.378
 8151TIP3    H248433   1.354   2.802   0.227
 8152TIP3   OH248434   0.404   2.826   1.477
 8152TIP3    H148435   0.411   2.897   1.543
 8152TIP3    H248436   0.309   2.839   1.453
 8153TIP3   OH248437   1.081   3.425   0.642
 8153TIP3    H148438   1.122   3.454   0.724
 8153TIP3    H248439   1.024   3.499   0.619
 8154TIP3   OH248440   0.537   3.416   1.634
 8154TIP3    H148441   0.528   3.408   1.537
 8154TIP3    H248442   0.443   3.404   1.661
 8155TIP3   OH248443   1.684   1.923   0.286
 8155TIP3    H148444   1.588   1.932   0.308
 8155TIP3    H248445   1.701   2.008   0.242
 8156TIP3   OH248446   0.484   2.797   0.480
 8156TIP3    H148447   0.450   2.876   0.434
 8156TIP3    H248448   0.416   2.732   0.463
 8157TIP3   OH248449   1.796   3.357   0.125
 8157TIP3    H148450   1.809   3.452   0.142
 8157TIP3    H248451   1.887   3.326   0.121
 8158TIP3   OH248452   0.142   2.998   1.350
 8158TIP3    H148453   0.065   3.035   1.302
 8158TIP3    H248454   0.095   2.929   1.402
 8159TIP3   OH248455   0.089   3.338   1.036
 8159TIP3    H148456   0.178   3.306   1.055
 8159TIP3    H248457   0.070   3.396   1.111
 8160TIP3   OH248458   1.888   3.386   1.622
 8160TIP3    H148459   1.876   3.290   1.618
 8160TIP3    H248460   1.801   3.411   1.660
 8161TIP3   OH248461   0.983   3.339   1.507
 8161TIP3    H148462   0.989   3.423   1.558
 8161TIP3    H248463   0.895   3.304   1.531
 8162TIP3   OH248464   1.027   3.715   0.488
 8162TIP3    H148465   1.019   3.709   0.392
 8162TIP3    H248466   1.031   3.811   0.504
 8163TIP3   OH248467   0.397   3.600   0.667
 8163TIP3    H148468   0.407   3.561   0.757
 8163TIP3    H248469   0.311   3.560   0.644
 8164TIP3   OH248470   1.329   3.631   0.192
 8164TIP3    H148471   1.384   3.562   0.148
 8164TIP3    H248472   1.340   3.605   0.286
 8165TIP3   OH248473   1.302   3.629   0.464
 8165TIP3    H148474   1.206   3.636   0.482
 8165TIP3    H248475   1.326   3.555   0.521
 8166TIP3   OH248476   1.600   2.531   1.669
 8166TIP3    H148477   1.554   2.577   1.596
 8166TIP3    H248478   1.600   2.440   1.635
 8167TIP3   OH248479   0.317   3.181   1.471
 8167TIP3    H148480   0.333   3.138   1.557
 8167TIP3    H248481   0.235   3.134   1.442
 8168TIP3   OH248482   0.586   2.022   1.062
 8168TIP3    H148483   0.495   2.009   1.027
 8168TIP3    H248484   0.571   2.104   1.113
 8169TIP3   OH248485   1.049   1.987   1.400
 8169TIP3    H148486   1.089   1.944   1.478
 8169TIP3    H248487   0.951   1.976   1.415
 8170TIP3   OH248488   1.377   2.374   1.488
 8170TIP3    H148489   1.319   2.352   1.565
 8170TIP3    H248490   1.359   2.467   1.466
 8171TIP3   OH248491   1.463   2.836   0.083
 8171TIP3    H148492   1.446   2.849  -0.011
 8171TIP3    H248493   1.539   2.896   0.092
 8172TIP3   OH248494   1.013   2.246   0.132
 8172TIP3    H148495   0.979   2.240   0.223
 8172TIP3    H248496   0.984   2.159   0.102
 8173TIP3   OH248497   0.593   2.517   1.189
 8173TIP3    H148498   0.520   2.518   1.254
 8173TIP3    H248499   0.589   2.609   1.153
 8174TIP3   OH248500   0.592   2.530   0.677
 8174TIP3    H148501   0.498   2.506   0.663
 8174TIP3    H248502   0.629   2.502   0.591
 8175TIP3   OH248503   1.141   2.576   0.547
 8175TIP3    H148504   1.105   2.663   0.518
 8175TIP3    H248505   1.214   2.565   0.485
 8176TIP3   OH248506   1.051   2.599   1.690
 8176TIP3    H148507   0.996   2.527   1.728
 8176TIP3    H248508   1.130   2.593   1.745
 8177TIP3   OH248509   1.255   2.507   0.839
 8177TIP3    H148510   1.221   2.581   0.783
 8177TIP3    H248511   1.256   2.434   0.777
 8178TIP3   OH248512   0.355   2.544   1.356
 8178TIP3    H148513   0.362   2.585   1.443
 8178TIP3    H248514   0.311   2.461   1.377
 8179TIP3   OH248515   0.696   2.190   0.055
 8179TIP3    H148516   0.660   2.214   0.142
 8179TIP3    H248517   0.643   2.259   0.011
 8180TIP3   OH248518   0.052   2.285   0.764
 8180TIP3    H148519   0.104   2.250   0.839
 8180TIP3    H248520   0.064   2.218   0.698
 8181TIP3   OH248521   0.150   2.337   0.290
 8181TIP3    H148522   0.205   2.393   0.233
 8181TIP3    H248523   0.082   2.396   0.323
 8182TIP3   OH248524   1.179   2.684   1.302
 8182TIP3    H148525   1.205   2.619   1.233
 8182TIP3    H248526   1.117   2.633   1.358
 8183TIP3   OH248527   0.847   2.286   0.776
 8183TIP3    H148528   0.753   2.287   0.805
 8183TIP3    H248529   0.896   2.271   0.858
 8184TIP3   OH248530   0.332   2.439   0.663
 8184TIP3    H148531   0.243   2.458   0.626
 8184TIP3    H248532   0.354   2.353   0.622
 8185TIP3   OH248533   0.690   2.447   0.430
 8185TIP3    H148534   0.787   2.456   0.443
 8185TIP3    H248535   0.667   2.512   0.361
 8186TIP3   OH248536   1.288   2.210   1.099
 8186TIP3    H148537   1.220   2.213   1.170
 8186TIP3    H248538   1.237   2.183   1.021
 8187TIP3   OH248539   0.557   2.573   0.188
 8187TIP3    H148540   0.511   2.523   0.118
 8187TIP3    H248541   0.642   2.580   0.143
 8188TIP3   OH248542   1.607   3.773   1.732
 8188TIP3    H148543   1.633   3.811   1.647
 8188TIP3    H248544   1.679   3.805   1.788
 8189TIP3   OH248545   0.377   3.022   1.690
 8189TIP3    H148546   0.451   3.043   1.750
 8189TIP3    H248547   0.302   3.026   1.751
 8190TIP3   OH248548   0.961   2.549   0.961
 8190TIP3    H148549   1.037   2.514   0.914
 8190TIP3    H248550   0.963   2.504   1.046
 8191TIP3   OH248551   0.479   2.175   0.612
 8191TIP3    H148552   0.443   2.084   0.609
 8191TIP3    H248553   0.557   2.167   0.555
 8192TIP3   OH248554   0.838   2.392   1.206
 8192TIP3    H148555   0.757   2.446   1.214
 8192TIP3    H248556   0.894   2.429   1.277
 8193TIP3   OH248557   0.898   3.013   0.379
 8193TIP3    H148558   0.818   2.969   0.343
 8193TIP3    H248559   0.875   3.025   0.473
 8194TIP3   OH248560   1.616   2.937   1.257
 8194TIP3    H148561   1.672   2.985   1.193
 8194TIP3    H248562   1.530   2.938   1.209
 8195TIP3   OH248563   1.283   2.303   0.179
 8195TIP3    H148564   1.186   2.308   0.182
 8195TIP3    H248565   1.315   2.379   0.232
 8196TIP3   OH248566   1.048   3.046   1.498
 8196TIP3    H148567   1.013   2.999   1.575
 8196TIP3    H248568   1.019   3.136   1.513
 8197TIP3   OH248569   1.352   2.490   0.361
 8197TIP3    H148570   1.442   2.473   0.396
 8197TIP3    H248571   1.364   2.571   0.309
 8198TIP3   OH248572   0.409   2.957   0.957
 8198TIP3    H148573   0.475   2.948   0.886
 8198TIP3    H248574   0.415   2.871   1.001
 8199TIP3   OH248575   1.108   3.163   0.280
 8199TIP3    H148576   1.072   3.248   0.313
 8199TIP3    H248577   1.034   3.101   0.301
 8200TIP3   OH248578   0.118   2.778   1.479
 8200TIP3    H148579   0.126   2.746   1.569
 8200TIP3    H248580   0.040   2.733   1.442
 8201TIP3   OH248581   0.810   2.773   1.662
 8201TIP3    H148582   0.778   2.711   1.595
 8201TIP3    H248583   0.886   2.724   1.700
 8202TIP3   OH248584   1.279   3.286   1.496
 8202TIP3    H148585   1.186   3.303   1.472
 8202TIP3    H248586   1.274   3.316   1.589
 8203TIP3   OH248587   1.845   2.502   0.335
 8203TIP3    H148588   1.786   2.473   0.263
 8203TIP3    H248589   1.851   2.596   0.310
 8204TIP3   OH248590   1.843   3.089   1.614
 8204TIP3    H148591   1.754   3.112   1.578
 8204TIP3    H248592   1.897   3.084   1.533
 8205TIP3   OH248593   1.678   3.385   0.375
 8205TIP3    H148594   1.637   3.303   0.406
 8205TIP3    H248595   1.701   3.367   0.282
 8206TIP3   OH248596   1.396   2.865   1.092
 8206TIP3    H148597   1.303   2.850   1.065
 8206TIP3    H248598   1.437   2.795   1.038
 8207TIP3   OH248599   0.647   3.301   0.696
 8207TIP3    H148600   0.696   3.382   0.675
 8207TIP3    H248601   0.559   3.324   0.662
 8208TIP3   OH248602   0.219   2.781   0.154
 8208TIP3    H148603   0.280   2.847   0.191
 8208TIP3    H248604   0.134   2.820   0.178
 8209TIP3   OH248605   0.785   3.069   0.644
 8209TIP3    H148606   0.753   3.160   0.655
 8209TIP3    H248607   0.717   3.017   0.692
 8210TIP3   OH248608   0.832   3.486   1.289
 8210TIP3    H148609   0.879   3.566   1.259
 8210TIP3    H248610   0.895   3.451   1.355
 8211TIP3   OH248611   0.655   3.566   0.600
 8211TIP3    H148612   0.559   3.581   0.614
 8211TIP3    H248613   0.691   3.651   0.632
 8212TIP3   OH248614   1.186   3.087   1.249
 8212TIP3    H148615   1.151   3.064   1.338
 8212TIP3    H248616   1.248   3.014   1.232
 8213TIP3   OH248617   1.413   3.190   0.158
 8213TIP3    H148618   1.450   3.147   0.237
 8213TIP3    H248619   1.319   3.172   0.174
 8214TIP3   OH248620   1.467   3.544   1.498
 8214TIP3    H148621   1.397   3.495   1.451
 8214TIP3    H248622   1.485   3.614   1.431
 8215TIP3   OH248623   1.865   3.630   0.184
 8215TIP3    H148624   1.936   3.694   0.165
 8215TIP3    H248625   1.793   3.691   0.211
 8216TIP3   OH248626   0.273   2.267   1.434
 8216TIP3    H148627   0.183   2.304   1.440
 8216TIP3    H248628   0.259   2.184   1.481
 8217TIP3   OH248629   1.496   3.057   0.388
 8217TIP3    H148630   1.471   2.976   0.438
 8217TIP3    H248631   1.592   3.058   0.400
 8218TIP3   OH248632   0.235   3.445   1.275
 8218TIP3    H148633   0.266   3.354   1.281
 8218TIP3    H248634   0.257   3.476   1.364
 8219TIP3   OH248635   0.708   3.255   0.253
 8219TIP3    H148636   0.739   3.203   0.328
 8219TIP3    H248637   0.715   3.347   0.285
 8220TIP3   OH248638   0.361   2.978   0.301
 8220TIP3    H148639   0.289   3.016   0.356
 8220TIP3    H248640   0.410   3.057   0.273
 8221TIP3   OH248641   1.146   2.247   1.334
 8221TIP3    H148642   1.218   2.253   1.398
 8221TIP3    H248643   1.108   2.160   1.355
 8222TIP3   OH248644   1.219   2.203   0.444
 8222TIP3    H148645   1.246   2.249   0.364
 8222TIP3    H248646   1.276   2.247   0.509
 8223TIP3   OH248647   0.986   3.417   0.321
 8223TIP3    H148648   0.907   3.473   0.336
 8223TIP3    H248649   1.043   3.472   0.265
 8224TIP3   OH248650   0.943   2.379   0.524
 8224TIP3    H148651   1.020   2.440   0.529
 8224TIP3    H248652   0.917   2.367   0.618
 8225TIP3   OH248653   1.000   2.480   1.444
 8225TIP3    H148654   1.006   2.536   1.524
 8225TIP3    H248655   1.066   2.411   1.454
 8226TIP3   OH248656   1.028   2.083   0.611
 8226TIP3    H148657   0.995   2.147   0.676
 8226TIP3    H248658   1.098   2.138   0.567
 8227TIP3   OH248659   0.727   3.525   0.329
 8227TIP3    H148660   0.743   3.606   0.276
 8227TIP3    H248661   0.700   3.560   0.416
 8228TIP3   OH248662   0.591   2.195   0.299
 8228TIP3    H148663   0.590   2.289   0.323
 8228TIP3    H248664   0.685   2.171   0.311
 8229TIP3   OH248665   1.614   2.267   1.532
 8229TIP3    H148666   1.523   2.301   1.514
 8229TIP3    H248667   1.647   2.265   1.440
 8230TIP3   OH248668   1.482   2.644   0.926
 8230TIP3    H148669   1.394   2.607   0.904
 8230TIP3    H248670   1.525   2.575   0.980
 8231TIP3   OH248671   0.423   3.238   0.189
 8231TIP3    H148672   0.489   3.301   0.221
 8231TIP3    H248673   0.470   3.192   0.118
 8232TIP3   OH248674   0.251   2.509   0.100
 8232TIP3    H148675   0.246   2.604   0.122
 8232TIP3    H248676   0.164   2.486   0.067
 8233TIP3   OH248677   1.584   3.574   1.095
 8233TIP3    H148678   1.576   3.641   1.025
 8233TIP3    H248679   1.681   3.578   1.113
 8234TIP3   OH248680   0.330   1.989   0.972
 8234TIP3    H148681   0.311   1.984   0.876
 8234TIP3    H248682   0.295   1.901   1.001
 8235TIP3   OH248683   0.230   3.374   0.590
 8235TIP3    H148684   0.146   3.422   0.587
 8235TIP3    H248685   0.278   3.422   0.521
 8236TIP3   OH248686   0.152   3.638   1.719
 8236TIP3    H148687   0.211   3.614   1.792
 8236TIP3    H248688   0.106   3.554   1.697
 8237TIP3   OH248689   0.618   3.534   1.879
 8237TIP3    H148690   0.694   3.485   1.911
 8237TIP3    H248691   0.614   3.506   1.785
 8238TIP3   OH248692   1.037   3.496   0.048
 8238TIP3    H148693   0.967   3.431   0.064
 8238TIP3    H248694   1.107   3.446   0.005
 8239TIP3   OH248695   1.267   3.373   1.756
 8239TIP3    H148696   1.236   3.284   1.783
 8239TIP3    H248697   1.345   3.384   1.814
 8240TIP3   OH248698   1.511   3.454   0.097
 8240TIP3    H148699   1.521   3.358   0.093
 8240TIP3    H248700   1.542   3.483   0.009
 8241TIP3   OH248701   0.141   3.023   1.822
 8241TIP3    H148702   0.159   2.931   1.792
 8241TIP3    H248703   0.072   3.048   1.760
 8242TIP3   OH248704   0.560   3.037   0.022
 8242TIP3    H148705   0.592   2.970   0.084
 8242TIP3    H248706   0.637   3.043  -0.037
 8243TIP3   OH248707   0.810   3.022   1.757
 8243TIP3    H148708   0.778   3.048   1.669
 8243TIP3    H248709   0.819   2.923   1.749
 8244TIP3   OH248710   1.382   3.004   1.496
 8244TIP3    H148711   1.461   3.062   1.491
 8244TIP3    H248712   1.312   3.071   1.500
 8245TIP3   OH248713   0.218   2.741   1.758
 8245TIP3    H148714   0.274   2.663   1.749
 8245TIP3    H248715   0.205   2.743   1.855
 8246TIP3   OH248716   0.696   2.859   0.262
 8246TIP3    H148717   0.647   2.803   0.325
 8246TIP3    H248718   0.729   2.790   0.200
 8247TIP3   OH248719   0.619   2.634   1.492
 8247TIP3    H148720   0.562   2.708   1.518
 8247TIP3    H248721   0.662   2.673   1.413
 8248TIP3   OH248722   0.806   2.681   0.090
 8248TIP3    H148723   0.784   2.666  -0.004
 8248TIP3    H248724   0.903   2.687   0.093
 8249TIP3   OH248725   1.132   2.896   1.825
 8249TIP3    H148726   1.228   2.891   1.814
 8249TIP3    H248727   1.109   2.818   1.880
 8250TIP3   OH248728   1.736   2.908  11.008
 8250TIP3    H148729   1.718   2.870  10.922
 8250TIP3    H248730   1.741   3.003  10.987
 8251TIP3   OH248731   0.665   2.373   1.596
 8251TIP3    H148732   0.674   2.302   1.528
 8251TIP3    H248733   0.656   2.454   1.541
 8252TIP3   OH248734   0.704   2.213   1.354
 8252TIP3    H148735   0.754   2.259   1.282
 8252TIP3    H248736   0.614   2.205   1.314
 8253TIP3   OH248737   0.857   2.759   1.373
 8253TIP3    H148738   0.933   2.748   1.315
 8253TIP3    H248739   0.821   2.845   1.344
 8254TIP3   OH248740   1.299   2.535   1.871
 8254TIP3    H148741   1.323   2.443   1.861
 8254TIP3    H248742   1.383   2.583   1.875
 8255TIP3   OH248743   1.431   2.818   1.691
 8255TIP3    H148744   1.406   2.889   1.628
 8255TIP3    H248745   1.526   2.812   1.672
 8256TIP3   OH248746   0.506   2.499   1.785
 8256TIP3    H148747   0.432   2.437   1.772
 8256TIP3    H248748   0.574   2.464   1.725
 8257TIP3   OH248749   0.782   1.956   1.392
 8257TIP3    H148750   0.763   2.052   1.384
 8257TIP3    H248751   0.707   1.919   1.342
 8258TIP3   OH248752   0.910   2.385   1.756
 8258TIP3    H148753   0.877   2.369   1.847
 8258TIP3    H248754   0.829   2.369   1.704
 8259TIP3   OH248755   1.184   2.305   1.670
 8259TIP3    H148756   1.086   2.310   1.675
 8259TIP3    H248757   1.204   2.237   1.734
 8260TIP3   OH248758   1.366   2.161   1.869
 8260TIP3    H148759   1.331   2.070   1.853
 8260TIP3    H248760   1.306   2.196   1.939
 8261TIP3   OH248761   0.320   2.291   1.766
 8261TIP3    H148762   0.347   2.217   1.708
 8261TIP3    H248763   0.314   2.247   1.854
 8262TIP3   OH248764   0.804   1.896   1.662
 8262TIP3    H148765   0.869   1.823   1.663
 8262TIP3    H248766   0.789   1.908   1.566
 8263TIP3   OH248767   0.841   2.055   1.872
 8263TIP3    H148768   0.820   2.003   1.791
 8263TIP3    H248769   0.779   2.131   1.867
 8264TIP3   OH248770   0.786   3.752   0.195
 8264TIP3    H148771   0.884   3.758   0.199
 8264TIP3    H248772   0.766   3.813   0.122
 8265TIP3   OH248773   0.157   3.211   0.143
 8265TIP3    H148774   0.254   3.216   0.154
 8265TIP3    H248775   0.142   3.147   0.070
 8266TIP3   OH248776   0.035   3.754   0.624
 8266TIP3    H148777  -0.046   3.707   0.595
 8266TIP3    H248778   0.054   3.694   0.698
 8267TIP3   OH248779   0.123   3.560   0.815
 8267TIP3    H148780   0.075   3.477   0.832
 8267TIP3    H248781   0.134   3.596   0.905
 8268TIP3   OH248782   1.856   3.637   1.115
 8268TIP3    H148783   1.860   3.653   1.211
 8268TIP3    H248784   1.927   3.696   1.085
 8269TIP3   OH248785   1.813   3.597   1.410
 8269TIP3    H148786   1.766   3.520   1.371
 8269TIP3    H248787   1.861   3.552   1.482
 8270TIP3   OH248788   1.658   3.168   1.878
 8270TIP3    H148789   1.567   3.167   1.913
 8270TIP3    H248790   1.695   3.249   1.918
 8271TIP3   OH248791   1.791   3.000   0.419
 8271TIP3    H148792   1.877   3.040   0.441
 8271TIP3    H248793   1.785   2.931   0.489
 8272TIP3   OH248794   1.825   2.810   0.609
 8272TIP3    H148795   1.750   2.760   0.647
 8272TIP3    H248796   1.885   2.822   0.686
 8273TIP3   OH248797   1.801   3.078   1.108
 8273TIP3    H148798   1.882   3.040   1.069
 8273TIP3    H248799   1.816   3.174   1.090
 8274TIP3   OH248800   1.657   3.370   1.334
 8274TIP3    H148801   1.588   3.404   1.393
 8274TIP3    H248802   1.603   3.330   1.263
 8275TIP3   OH248803   1.856   2.793   0.242
 8275TIP3    H148804   1.794   2.827   0.174
 8275TIP3    H248805   1.843   2.861   0.312
 8276TIP3   OH248806   1.693   2.519   0.098
 8276TIP3    H148807   1.693   2.584   0.028
 8276TIP3    H248808   1.672   2.434   0.055
 8277TIP3   OH248809   1.610   2.656   0.667
 8277TIP3    H148810   1.591   2.561   0.662
 8277TIP3    H248811   1.575   2.677   0.755
 8278TIP3   OH248812   0.108   2.862   1.071
 8278TIP3    H148813   0.127   2.856   0.976
 8278TIP3    H248814   0.196   2.850   1.110
 8279TIP3   OH248815   1.694   2.852   1.636
 8279TIP3    H148816   1.755   2.777   1.648
 8279TIP3    H248817   1.754   2.930   1.635
 8280TIP3   OH248818   1.843   2.642   1.696
 8280TIP3    H148819   1.755   2.601   1.684
 8280TIP3    H248820   1.900   2.563   1.693
 8281TIP3   OH248821   1.596   2.248   0.124
 8281TIP3    H148822   1.681   2.214   0.090
 8281TIP3    H248823   1.540   2.220   0.050
 8282TIP3   OH248824   1.572   2.416   0.511
 8282TIP3    H148825   1.602   2.322   0.522
 8282TIP3    H248826   1.652   2.454   0.473
 8283TIP3   OH248827   1.641   2.466   1.057
 8283TIP3    H148828   1.736   2.492   1.055
 8283TIP3    H248829   1.619   2.485   1.150
 8284TIP3   OH248830   1.645   2.542   1.330
 8284TIP3    H148831   1.557   2.570   1.366
 8284TIP3    H248832   1.688   2.628   1.311
 8285TIP3   OH248833   0.088   2.355   1.651
 8285TIP3    H148834   0.172   2.367   1.701
 8285TIP3    H248835   0.030   2.312   1.714
 8286TIP3   OH248836   1.869   1.950   1.867
 8286TIP3    H148837   1.908   1.882   1.808
 8286TIP3    H248838   1.884   2.029   1.812
 8287TIP3   OH248839   1.642   2.144   0.517
 8287TIP3    H148840   1.664   2.100   0.602
 8287TIP3    H248841   1.581   2.081   0.473
 8288TIP3   OH248842   0.190   2.224   0.978
 8288TIP3    H148843   0.238   2.142   0.999
 8288TIP3    H248844   0.245   2.293   1.017
 8289TIP3   OH248845   0.040   2.533   1.085
 8289TIP3    H148846   0.086   2.509   1.002
 8289TIP3    H248847   0.074   2.621   1.102
 8290TIP3   OH248848   1.823   2.156   1.705
 8290TIP3    H148849   1.732   2.188   1.694
 8290TIP3    H248850   1.829   2.103   1.624
 8291TIP3   OH248851   1.833   2.143   0.172
 8291TIP3    H148852   1.874   2.077   0.115
 8291TIP3    H248853   1.900   2.213   0.182
 8292TIP3   OH248854   0.076   2.132   0.437
 8292TIP3    H148855  -0.018   2.155   0.449
 8292TIP3    H248856   0.112   2.212   0.393
 8293TIP3   OH248857   1.529   3.646   0.677
 8293TIP3    H148858   1.597   3.615   0.614
 8293TIP3    H248859   1.580   3.695   0.743
 8294TIP3   OH248860   0.067   2.029   1.327
 8294TIP3    H148861  -0.007   2.001   1.382
 8294TIP3    H248862   0.013   2.090   1.271
 8295TIP3   OH248863   0.275   3.342   1.731
 8295TIP3    H148864   0.190   3.359   1.686
 8295TIP3    H248865   0.248   3.330   1.822
 8296TIP3   OH248866   0.561   3.437   1.356
 8296TIP3    H148867   0.529   3.525   1.329
 8296TIP3    H248868   0.655   3.445   1.327
 8297TIP3   OH248869   0.996   3.579   1.647
 8297TIP3    H148870   1.009   3.544   1.738
 8297TIP3    H248871   1.086   3.609   1.623
 8298TIP3   OH248872   1.224   3.706   1.579
 8298TIP3    H148873   1.298   3.648   1.555
 8298TIP3    H248874   1.261   3.750   1.658
 8299TIP3   OH248875   1.725   1.968   1.490
 8299TIP3    H148876   1.643   1.998   1.448
 8299TIP3    H248877   1.742   1.885   1.440
 8300TIP3   OH248878   0.304   3.758   1.355
 8300TIP3    H148879   0.230   3.810   1.318
 8300TIP3    H248880   0.272   3.746   1.446
 8301TIP3   OH248881   0.556   3.718   1.265
 8301TIP3    H148882   0.466   3.732   1.303
 8301TIP3    H248883   0.549   3.776   1.186
 8302TIP3   OH248884   1.024   3.709   1.180
 8302TIP3    H148885   0.977   3.764   1.115
 8302TIP3    H248886   1.036   3.772   1.254
 8303TIP3   OH248887   1.251   3.588   1.285
 8303TIP3    H148888   1.167   3.617   1.246
 8303TIP3    H248889   1.301   3.670   1.275
 8304TIP3   OH248890   1.510   3.746   1.305
 8304TIP3    H148891   1.506   3.842   1.282
 8304TIP3    H248892   1.532   3.708   1.217
 8305TIP3   OH248893   0.255   3.629   1.047
 8305TIP3    H148894   0.241   3.583   1.133
 8305TIP3    H248895   0.335   3.586   1.010
 8306TIP3   OH248896   0.459   3.495   0.916
 8306TIP3    H148897   0.444   3.401   0.940
 8306TIP3    H248898   0.545   3.512   0.961
 8307TIP3   OH248899   0.719   3.544   1.005
 8307TIP3    H148900   0.735   3.451   0.978
 8307TIP3    H248901   0.726   3.539   1.101
 8308TIP3   OH248902   1.065   2.108   0.916
 8308TIP3    H148903   0.997   2.045   0.946
 8308TIP3    H248904   1.120   2.055   0.859
 8309TIP3   OH248905   1.579   1.913   0.923
 8309TIP3    H148906   1.640   1.973   0.872
 8309TIP3    H248907   1.491   1.950   0.900
 8310TIP3   OH248908   1.745   2.039   0.750
 8310TIP3    H148909   1.814   1.982   0.709
 8310TIP3    H248910   1.797   2.122   0.762
 8311TIP3   OH248911   0.307   1.971   0.702
 8311TIP3    H148912   0.226   1.952   0.649
 8311TIP3    H248913   0.351   1.884   0.695
 8312TIP3   OH248914   0.184   1.944   0.279
 8312TIP3    H148915   0.226   2.011   0.222
 8312TIP3    H248916   0.128   2.002   0.335
 8313TIP3   OH248917   0.748   1.964   0.681
 8313TIP3    H148918   0.838   2.000   0.673
 8313TIP3    H248919   0.746   1.942   0.774
 8314TIP3   OH248920   1.322   1.966   0.843
 8314TIP3    H148921   1.315   1.978   0.747
 8314TIP3    H248922   1.283   1.876   0.856
 8315TIP3   OH248923   1.447   1.968   0.409
 8315TIP3    H148924   1.373   2.029   0.397
 8315TIP3    H248925   1.403   1.883   0.430
 8316TIP3   OH248926   0.171   3.548   0.375
 8316TIP3    H148927   0.106   3.546   0.304
 8316TIP3    H248928   0.171   3.643   0.392
 8317TIP3   OH248929   0.362   2.139   0.128
 8317TIP3    H148930   0.416   2.079   0.077
 8317TIP3    H248931   0.431   2.177   0.186
 8318TIP3   OH248932   0.869   2.166   0.361
 8318TIP3    H148933   0.890   2.108   0.437
 8318TIP3    H248934   0.873   2.251   0.410
 8319TIP3   OH248935   1.056   3.687   0.214
 8319TIP3    H148936   1.151   3.696   0.197
 8319TIP3    H248937   1.037   3.627   0.138
 8320TIP3   OH248938   1.728   3.625   0.480
 8320TIP3    H148939   1.707   3.545   0.426
 8320TIP3    H248940   1.718   3.698   0.415
 8321TIP3   OH248941   0.282   2.033   1.653
 8321TIP3    H148942   0.249   1.947   1.685
 8321TIP3    H248943   0.377   2.021   1.679
 8322TIP3   OH248944   0.507   1.953   1.756
 8322TIP3    H148945   0.596   1.933   1.787
 8322TIP3    H248946   0.461   1.907   1.828
 8323TIP3   OH248947   0.350   3.631   0.070
 8323TIP3    H148948   0.326   3.669   0.156
 8323TIP3    H248949   0.433   3.587   0.088
 8324TIP3   OH248950   1.333   1.897   1.829
 8324TIP3    H148951   1.339   1.843   1.910
 8324TIP3    H248952   1.423   1.887   1.791
 8325TIP3   OH248953   1.652   3.498   1.689
 8325TIP3    H148954   1.572   3.485   1.634
 8325TIP3    H248955   1.640   3.593   1.711
 8326TIP3   OH248956   3.098   2.886   0.685
 8326TIP3    H148957   3.095   2.984   0.685
 8326TIP3    H248958   3.023   2.863   0.628
 8327TIP3   OH248959   2.985   2.808   1.037
 8327TIP3    H148960   2.977   2.745   1.109
 8327TIP3    H248961   2.944   2.761   0.962
 8328TIP3   OH248962   2.217   2.779   1.193
 8328TIP3    H148963   2.225   2.710   1.262
 8328TIP3    H248964   2.292   2.836   1.216
 8329TIP3   OH248965   3.350   3.106   0.867
 8329TIP3    H148966   3.310   3.034   0.917
 8329TIP3    H248967   3.353   3.177   0.934
 8330TIP3   OH248968   2.309   3.225   1.041
 8330TIP3    H148969   2.279   3.137   1.011
 8330TIP3    H248970   2.405   3.207   1.046
 8331TIP3   OH248971   1.975   2.578   0.591
 8331TIP3    H148972   1.930   2.665   0.586
 8331TIP3    H248973   1.917   2.525   0.536
 8332TIP3   OH248974   2.047   2.803   0.808
 8332TIP3    H148975   2.074   2.719   0.851
 8332TIP3    H248976   2.114   2.813   0.739
 8333TIP3   OH248977   3.062   3.623   0.891
 8333TIP3    H148978   3.127   3.554   0.861
 8333TIP3    H248979   3.040   3.587   0.977
 8334TIP3   OH248980   2.819   3.050   1.087
 8334TIP3    H148981   2.853   2.989   1.019
 8334TIP3    H248982   2.901   3.067   1.137
 8335TIP3   OH248983   3.675   2.216   1.149
 8335TIP3    H148984   3.697   2.269   1.230
 8335TIP3    H248985   3.738   2.258   1.090
 8336TIP3   OH248986   3.146   2.495   1.119
 8336TIP3    H148987   3.148   2.397   1.112
 8336TIP3    H248988   3.125   2.514   1.025
 8337TIP3   OH248989   2.447   2.307   0.838
 8337TIP3    H148990   2.459   2.390   0.788
 8337TIP3    H248991   2.408   2.250   0.768
 8338TIP3   OH248992   3.221   2.313   0.674
 8338TIP3    H148993   3.286   2.283   0.742
 8338TIP3    H248994   3.278   2.371   0.621
 8339TIP3   OH248995   2.109   2.549   0.911
 8339TIP3    H148996   2.176   2.495   0.957
 8339TIP3    H248997   2.121   2.517   0.820
 8340TIP3   OH248998   2.625   2.704   0.844
 8340TIP3    H148999   2.693   2.646   0.882
 8340TIP3    H249000   2.574   2.639   0.792
 8341TIP3   OH249001   3.736   2.351   1.358
 8341TIP3    H149002   3.674   2.427   1.363
 8341TIP3    H249003   3.737   2.345   1.457
 8342TIP3   OH249004   2.339   2.197   1.241
 8342TIP3    H149005   2.311   2.255   1.167
 8342TIP3    H249006   2.272   2.220   1.310
 8343TIP3   OH249007   3.066   3.145   0.598
 8343TIP3    H149008   3.039   3.117   0.509
 8343TIP3    H249009   3.037   3.239   0.600
 8344TIP3   OH249010   2.590   2.961   1.265
 8344TIP3    H149011   2.520   3.025   1.288
 8344TIP3    H249012   2.661   3.021   1.236
 8345TIP3   OH249013   3.400   2.251   0.876
 8345TIP3    H149014   3.383   2.173   0.930
 8345TIP3    H249015   3.472   2.292   0.926
 8346TIP3   OH249016   2.297   2.383   1.046
 8346TIP3    H149017   2.360   2.452   1.076
 8346TIP3    H249018   2.347   2.342   0.971
 8347TIP3   OH249019   2.435   3.162   1.347
 8347TIP3    H149020   2.430   3.254   1.314
 8347TIP3    H249021   2.347   3.154   1.392
 8348TIP3   OH249022   2.041   3.120   0.425
 8348TIP3    H149023   2.019   3.156   0.336
 8348TIP3    H249024   2.049   3.202   0.478
 8349TIP3   OH249025   3.403   3.290   1.103
 8349TIP3    H149026   3.306   3.302   1.115
 8349TIP3    H249027   3.430   3.382   1.082
 8350TIP3   OH249028   3.433   2.115   1.236
 8350TIP3    H149029   3.364   2.182   1.230
 8350TIP3    H249030   3.509   2.159   1.192
 8351TIP3   OH249031   2.732   1.932   0.986
 8351TIP3    H149032   2.716   1.835   0.979
 8351TIP3    H249033   2.644   1.962   1.019
 8352TIP3   OH249034   3.230   3.468   0.765
 8352TIP3    H149035   3.271   3.396   0.712
 8352TIP3    H249036   3.275   3.546   0.725
 8353TIP3   OH249037   3.351   3.261   0.615
 8353TIP3    H149038   3.322   3.192   0.552
 8353TIP3    H249039   3.354   3.210   0.699
 8354TIP3   OH249040   3.511   3.121   1.463
 8354TIP3    H149041   3.526   3.055   1.392
 8354TIP3    H249042   3.533   3.204   1.417
 8355TIP3   OH249043   2.960   2.806   0.437
 8355TIP3    H149044   2.894   2.870   0.404
 8355TIP3    H249045   3.034   2.821   0.375
 8356TIP3   OH249046   2.969   2.653   0.146
 8356TIP3    H149047   3.039   2.674   0.212
 8356TIP3    H249048   3.023   2.610   0.082
 8357TIP3   OH249049   3.698   2.749   1.264
 8357TIP3    H149050   3.636   2.825   1.271
 8357TIP3    H249051   3.752   2.776   1.188
 8358TIP3   OH249052   3.308   2.831   0.532
 8358TIP3    H149053   3.233   2.855   0.592
 8358TIP3    H249054   3.356   2.763   0.585
 8359TIP3   OH249055   3.298   2.659   1.441
 8359TIP3    H149056   3.302   2.733   1.505
 8359TIP3    H249057   3.227   2.695   1.384
 8360TIP3   OH249058   2.467   2.896   0.723
 8360TIP3    H149059   2.436   2.857   0.638
 8360TIP3    H249060   2.530   2.827   0.756
 8361TIP3   OH249061   2.599   3.234   0.991
 8361TIP3    H149062   2.600   3.183   0.909
 8361TIP3    H249063   2.678   3.199   1.037
 8362TIP3   OH249064   2.503   2.770   1.091
 8362TIP3    H149065   2.554   2.780   1.009
 8362TIP3    H249066   2.541   2.838   1.150
 8363TIP3   OH249067   3.144   3.330   1.161
 8363TIP3    H149068   3.114   3.394   1.227
 8363TIP3    H249069   3.117   3.245   1.202
 8364TIP3   OH249070   2.596   3.215   1.559
 8364TIP3    H149071   2.554   3.288   1.608
 8364TIP3    H249072   2.530   3.194   1.489
 8365TIP3   OH249073   3.193   2.750   0.296
 8365TIP3    H149074   3.247   2.769   0.377
 8365TIP3    H249075   3.240   2.802   0.228
 8366TIP3   OH249076   2.291   2.831   1.472
 8366TIP3    H149077   2.297   2.896   1.545
 8366TIP3    H249078   2.196   2.838   1.453
 8367TIP3   OH249079   2.968   3.424   0.642
 8367TIP3    H149080   3.008   3.454   0.724
 8367TIP3    H249081   2.910   3.498   0.619
 8368TIP3   OH249082   2.421   3.417   1.633
 8368TIP3    H149083   2.414   3.408   1.537
 8368TIP3    H249084   2.329   3.403   1.661
 8369TIP3   OH249085   3.570   1.924   0.286
 8369TIP3    H149086   3.474   1.932   0.308
 8369TIP3    H249087   3.587   2.008   0.242
 8370TIP3   OH249088   2.366   2.797   0.482
 8370TIP3    H149089   2.335   2.877   0.434
 8370TIP3    H249090   2.299   2.732   0.461
 8371TIP3   OH249091   3.682   3.357   0.124
 8371TIP3    H149092   3.695   3.452   0.142
 8371TIP3    H249093   3.773   3.326   0.121
 8372TIP3   OH249094   1.973   3.042   1.376
 8372TIP3    H149095   1.930   3.034   1.289
 8372TIP3    H249096   1.983   2.947   1.397
 8373TIP3   OH249097   1.950   3.316   1.052
 8373TIP3    H149098   2.045   3.304   1.050
 8373TIP3    H249099   1.942   3.398   1.102
 8374TIP3   OH249100   3.773   3.386   1.620
 8374TIP3    H149101   3.761   3.290   1.618
 8374TIP3    H249102   3.687   3.411   1.660
 8375TIP3   OH249103   2.869   3.339   1.507
 8375TIP3    H149104   2.875   3.424   1.558
 8375TIP3    H249105   2.782   3.303   1.532
 8376TIP3   OH249106   2.913   3.715   0.488
 8376TIP3    H149107   2.904   3.709   0.391
 8376TIP3    H249108   2.917   3.810   0.504
 8377TIP3   OH249109   2.277   3.604   0.669
 8377TIP3    H149110   2.293   3.562   0.756
 8377TIP3    H249111   2.193   3.561   0.645
 8378TIP3   OH249112   3.214   3.631   0.192
 8378TIP3    H149113   3.269   3.561   0.148
 8378TIP3    H249114   3.225   3.605   0.286
 8379TIP3   OH249115   3.188   3.629   0.464
 8379TIP3    H149116   3.091   3.636   0.482
 8379TIP3    H249117   3.212   3.555   0.521
 8380TIP3   OH249118   3.393   2.552   1.684
 8380TIP3    H149119   3.434   2.595   1.606
 8380TIP3    H249120   3.454   2.475   1.675
 8381TIP3   OH249121   2.203   3.173   1.469
 8381TIP3    H149122   2.224   3.137   1.558
 8381TIP3    H249123   2.116   3.134   1.448
 8382TIP3   OH249124   2.471   2.022   1.061
 8382TIP3    H149125   2.380   2.008   1.026
 8382TIP3    H249126   2.457   2.102   1.114
 8383TIP3   OH249127   2.935   1.985   1.399
 8383TIP3    H149128   2.971   1.945   1.480
 8383TIP3    H249129   2.837   1.978   1.412
 8384TIP3   OH249130   3.251   2.379   1.484
 8384TIP3    H149131   3.211   2.346   1.569
 8384TIP3    H249132   3.241   2.475   1.495
 8385TIP3   OH249133   3.346   2.836   0.085
 8385TIP3    H149134   3.332   2.848  -0.010
 8385TIP3    H249135   3.423   2.895   0.093
 8386TIP3   OH249136   2.895   2.251   0.135
 8386TIP3    H149137   2.865   2.235   0.227
 8386TIP3    H249138   2.871   2.162   0.102
 8387TIP3   OH249139   2.482   2.520   1.191
 8387TIP3    H149140   2.407   2.518   1.254
 8387TIP3    H249141   2.474   2.609   1.151
 8388TIP3   OH249142   2.477   2.528   0.677
 8388TIP3    H149143   2.383   2.505   0.662
 8388TIP3    H249144   2.514   2.502   0.591
 8389TIP3   OH249145   3.027   2.578   0.548
 8389TIP3    H149146   2.991   2.663   0.516
 8389TIP3    H249147   3.100   2.564   0.486
 8390TIP3   OH249148   2.936   2.600   1.692
 8390TIP3    H149149   2.883   2.524   1.727
 8390TIP3    H249150   3.017   2.591   1.745
 8391TIP3   OH249151   3.134   2.529   0.839
 8391TIP3    H149152   3.103   2.586   0.765
 8391TIP3    H249153   3.141   2.445   0.790
 8392TIP3   OH249154   2.242   2.542   1.356
 8392TIP3    H149155   2.253   2.583   1.443
 8392TIP3    H249156   2.199   2.458   1.379
 8393TIP3   OH249157   2.588   2.194   0.059
 8393TIP3    H149158   2.543   2.212   0.143
 8393TIP3    H249159   2.531   2.257   0.011
 8394TIP3   OH249160   1.909   2.253   0.757
 8394TIP3    H149161   1.978   2.249   0.827
 8394TIP3    H249162   1.954   2.217   0.678
 8395TIP3   OH249163   2.035   2.325   0.290
 8395TIP3    H149164   2.087   2.387   0.235
 8395TIP3    H249165   1.967   2.387   0.325
 8396TIP3   OH249166   3.064   2.683   1.299
 8396TIP3    H149167   3.080   2.621   1.227
 8396TIP3    H249168   3.000   2.637   1.357
 8397TIP3   OH249169   2.733   2.287   0.776
 8397TIP3    H149170   2.640   2.285   0.804
 8397TIP3    H249171   2.781   2.267   0.858
 8398TIP3   OH249172   2.213   2.440   0.663
 8398TIP3    H149173   2.125   2.456   0.623
 8398TIP3    H249174   2.241   2.356   0.622
 8399TIP3   OH249175   2.578   2.444   0.425
 8399TIP3    H149176   2.672   2.457   0.445
 8399TIP3    H249177   2.551   2.514   0.363
 8400TIP3   OH249178   3.174   2.214   1.101
 8400TIP3    H149179   3.102   2.210   1.169
 8400TIP3    H249180   3.128   2.180   1.023
 8401TIP3   OH249181   2.443   2.573   0.189
 8401TIP3    H149182   2.394   2.524   0.121
 8401TIP3    H249183   2.527   2.580   0.141
 8402TIP3   OH249184   3.492   3.773   1.733
 8402TIP3    H149185   3.520   3.810   1.647
 8402TIP3    H249186   3.565   3.804   1.789
 8403TIP3   OH249187   2.260   3.023   1.689
 8403TIP3    H149188   2.333   3.045   1.750
 8403TIP3    H249189   2.184   3.026   1.750
 8404TIP3   OH249190   2.864   2.562   0.969
 8404TIP3    H149191   2.917   2.507   0.910
 8404TIP3    H249192   2.842   2.504   1.042
 8405TIP3   OH249193   2.361   2.175   0.611
 8405TIP3    H149194   2.330   2.083   0.609
 8405TIP3    H249195   2.439   2.168   0.554
 8406TIP3   OH249196   2.725   2.394   1.206
 8406TIP3    H149197   2.642   2.445   1.214
 8406TIP3    H249198   2.778   2.429   1.279
 8407TIP3   OH249199   2.784   3.013   0.378
 8407TIP3    H149200   2.703   2.968   0.343
 8407TIP3    H249201   2.759   3.029   0.471
 8408TIP3   OH249202   3.504   2.933   1.256
 8408TIP3    H149203   3.559   2.986   1.194
 8408TIP3    H249204   3.417   2.942   1.211
 8409TIP3   OH249205   3.167   2.312   0.170
 8409TIP3    H149206   3.072   2.304   0.188
 8409TIP3    H249207   3.203   2.378   0.234
 8410TIP3   OH249208   2.932   3.044   1.501
 8410TIP3    H149209   2.898   3.000   1.579
 8410TIP3    H249210   2.906   3.136   1.513
 8411TIP3   OH249211   3.238   2.489   0.359
 8411TIP3    H149212   3.327   2.472   0.397
 8411TIP3    H249213   3.254   2.573   0.313
 8412TIP3   OH249214   2.295   2.957   0.957
 8412TIP3    H149215   2.362   2.947   0.886
 8412TIP3    H249216   2.300   2.871   1.002
 8413TIP3   OH249217   2.993   3.160   0.280
 8413TIP3    H149218   2.959   3.246   0.312
 8413TIP3    H249219   2.919   3.100   0.301
 8414TIP3   OH249220   1.993   2.796   1.482
 8414TIP3    H149221   2.009   2.751   1.568
 8414TIP3    H249222   1.931   2.735   1.438
 8415TIP3   OH249223   2.695   2.752   1.699
 8415TIP3    H149224   2.662   2.719   1.614
 8415TIP3    H249225   2.787   2.719   1.699
 8416TIP3   OH249226   3.164   3.286   1.497
 8416TIP3    H149227   3.072   3.303   1.473
 8416TIP3    H249228   3.160   3.316   1.590
 8417TIP3   OH249229   3.729   2.502   0.337
 8417TIP3    H149230   3.672   2.473   0.263
 8417TIP3    H249231   3.736   2.596   0.310
 8418TIP3   OH249232   3.729   3.089   1.614
 8418TIP3    H149233   3.639   3.112   1.578
 8418TIP3    H249234   3.783   3.085   1.533
 8419TIP3   OH249235   3.562   3.383   0.375
 8419TIP3    H149236   3.522   3.302   0.406
 8419TIP3    H249237   3.587   3.367   0.282
 8420TIP3   OH249238   3.279   2.864   1.089
 8420TIP3    H149239   3.185   2.849   1.070
 8420TIP3    H249240   3.323   2.794   1.037
 8421TIP3   OH249241   2.531   3.301   0.695
 8421TIP3    H149242   2.581   3.382   0.675
 8421TIP3    H249243   2.444   3.324   0.662
 8422TIP3   OH249244   2.108   2.786   0.145
 8422TIP3    H149245   2.166   2.846   0.195
 8422TIP3    H249246   2.020   2.815   0.178
 8423TIP3   OH249247   2.673   3.068   0.647
 8423TIP3    H149248   2.640   3.159   0.654
 8423TIP3    H249249   2.602   3.017   0.691
 8424TIP3   OH249250   2.718   3.486   1.289
 8424TIP3    H149251   2.765   3.566   1.259
 8424TIP3    H249252   2.780   3.451   1.355
 8425TIP3   OH249253   2.540   3.565   0.602
 8425TIP3    H149254   2.444   3.581   0.613
 8425TIP3    H249255   2.577   3.650   0.632
 8426TIP3   OH249256   3.067   3.085   1.249
 8426TIP3    H149257   3.038   3.066   1.340
 8426TIP3    H249258   3.134   3.017   1.232
 8427TIP3   OH249259   3.298   3.190   0.159
 8427TIP3    H149260   3.335   3.147   0.238
 8427TIP3    H249261   3.204   3.173   0.173
 8428TIP3   OH249262   3.353   3.543   1.498
 8428TIP3    H149263   3.283   3.495   1.451
 8428TIP3    H249264   3.370   3.614   1.431
 8429TIP3   OH249265   3.748   3.630   0.183
 8429TIP3    H149266   3.822   3.692   0.166
 8429TIP3    H249267   3.678   3.692   0.211
 8430TIP3   OH249268   2.158   2.269   1.436
 8430TIP3    H149269   2.068   2.304   1.436
 8430TIP3    H249270   2.147   2.185   1.484
 8431TIP3   OH249271   3.382   3.057   0.388
 8431TIP3    H149272   3.358   2.976   0.437
 8431TIP3    H249273   3.478   3.059   0.400
 8432TIP3   OH249274   2.119   3.447   1.280
 8432TIP3    H149275   2.151   3.355   1.281
 8432TIP3    H249276   2.146   3.477   1.367
 8433TIP3   OH249277   2.592   3.255   0.254
 8433TIP3    H149278   2.625   3.203   0.328
 8433TIP3    H249279   2.604   3.347   0.286
 8434TIP3   OH249280   2.245   2.978   0.299
 8434TIP3    H149281   2.176   3.018   0.356
 8434TIP3    H249282   2.300   3.055   0.276
 8435TIP3   OH249283   3.037   2.246   1.333
 8435TIP3    H149284   3.103   2.251   1.403
 8435TIP3    H249285   2.990   2.163   1.353
 8436TIP3   OH249286   3.103   2.206   0.443
 8436TIP3    H149287   3.135   2.250   0.364
 8436TIP3    H249288   3.162   2.244   0.510
 8437TIP3   OH249289   2.871   3.417   0.320
 8437TIP3    H149290   2.793   3.473   0.336
 8437TIP3    H249291   2.929   3.472   0.265
 8438TIP3   OH249292   2.829   2.379   0.524
 8438TIP3    H149293   2.907   2.438   0.531
 8438TIP3    H249294   2.802   2.365   0.617
 8439TIP3   OH249295   2.889   2.485   1.440
 8439TIP3    H149296   2.889   2.535   1.524
 8439TIP3    H249297   2.946   2.408   1.456
 8440TIP3   OH249298   2.914   2.083   0.612
 8440TIP3    H149299   2.881   2.148   0.677
 8440TIP3    H249300   2.983   2.139   0.567
 8441TIP3   OH249301   2.612   3.525   0.329
 8441TIP3    H149302   2.628   3.607   0.276
 8441TIP3    H249303   2.585   3.560   0.416
 8442TIP3   OH249304   2.477   2.196   0.297
 8442TIP3    H149305   2.475   2.289   0.324
 8442TIP3    H249306   2.569   2.170   0.312
 8443TIP3   OH249307   3.464   2.217   1.492
 8443TIP3    H149308   3.410   2.295   1.518
 8443TIP3    H249309   3.535   2.266   1.447
 8444TIP3   OH249310   3.361   2.647   0.934
 8444TIP3    H149311   3.282   2.601   0.899
 8444TIP3    H249312   3.415   2.577   0.975
 8445TIP3   OH249313   2.306   3.237   0.189
 8445TIP3    H149314   2.371   3.300   0.222
 8445TIP3    H249315   2.355   3.193   0.118
 8446TIP3   OH249316   2.137   2.507   0.103
 8446TIP3    H149317   2.137   2.603   0.122
 8446TIP3    H249318   2.048   2.490   0.071
 8447TIP3   OH249319   3.470   3.573   1.096
 8447TIP3    H149320   3.462   3.641   1.025
 8447TIP3    H249321   3.566   3.578   1.113
 8448TIP3   OH249322   2.219   1.984   0.978
 8448TIP3    H149323   2.200   1.986   0.881
 8448TIP3    H249324   2.178   1.898   1.002
 8449TIP3   OH249325   2.114   3.378   0.592
 8449TIP3    H149326   2.027   3.421   0.586
 8449TIP3    H249327   2.160   3.422   0.519
 8450TIP3   OH249328   2.034   3.642   1.719
 8450TIP3    H149329   2.095   3.623   1.793
 8450TIP3    H249330   1.995   3.555   1.701
 8451TIP3   OH249331   2.504   3.534   1.880
 8451TIP3    H149332   2.579   3.484   1.913
 8451TIP3    H249333   2.500   3.506   1.786
 8452TIP3   OH249334   2.923   3.496   0.048
 8452TIP3    H149335   2.852   3.431   0.064
 8452TIP3    H249336   2.993   3.445   0.005
 8453TIP3   OH249337   3.152   3.373   1.756
 8453TIP3    H149338   3.121   3.284   1.783
 8453TIP3    H249339   3.230   3.385   1.814
 8454TIP3   OH249340   3.395   3.454   0.096
 8454TIP3    H149341   3.407   3.358   0.093
 8454TIP3    H249342   3.428   3.483   0.009
 8455TIP3   OH249343   2.025   3.019   1.819
 8455TIP3    H149344   2.041   2.928   1.790
 8455TIP3    H249345   1.951   3.044   1.761
 8456TIP3   OH249346   2.446   3.037   0.022
 8456TIP3    H149347   2.477   2.969   0.085
 8456TIP3    H249348   2.524   3.043  -0.036
 8457TIP3   OH249349   2.697   3.018   1.757
 8457TIP3    H149350   2.664   3.050   1.671
 8457TIP3    H249351   2.704   2.921   1.746
 8458TIP3   OH249352   3.268   3.000   1.494
 8458TIP3    H149353   3.346   3.060   1.492
 8458TIP3    H249354   3.198   3.067   1.501
 8459TIP3   OH249355   2.117   2.741   1.757
 8459TIP3    H149356   2.160   2.655   1.751
 8459TIP3    H249357   2.096   2.743   1.852
 8460TIP3   OH249358   2.583   2.858   0.261
 8460TIP3    H149359   2.532   2.805   0.326
 8460TIP3    H249360   2.612   2.787   0.199
 8461TIP3   OH249361   2.507   2.636   1.492
 8461TIP3    H149362   2.448   2.708   1.517
 8461TIP3    H249363   2.548   2.673   1.412
 8462TIP3   OH249364   2.694   2.668   0.089
 8462TIP3    H149365   2.665   2.674  -0.005
 8462TIP3    H249366   2.786   2.700   0.093
 8463TIP3   OH249367   3.014   2.895   1.828
 8463TIP3    H149368   3.109   2.892   1.811
 8463TIP3    H249369   2.999   2.816   1.882
 8464TIP3   OH249370   3.620   2.907  11.009
 8464TIP3    H149371   3.604   2.869  10.922
 8464TIP3    H249372   3.626   3.002  10.988
 8465TIP3   OH249373   2.549   2.374   1.597
 8465TIP3    H149374   2.560   2.303   1.531
 8465TIP3    H249375   2.542   2.455   1.544
 8466TIP3   OH249376   2.589   2.211   1.353
 8466TIP3    H149377   2.639   2.258   1.282
 8466TIP3    H249378   2.499   2.205   1.314
 8467TIP3   OH249379   2.742   2.764   1.378
 8467TIP3    H149380   2.816   2.746   1.320
 8467TIP3    H249381   2.704   2.846   1.344
 8468TIP3   OH249382   3.180   2.536   1.875
 8468TIP3    H149383   3.208   2.445   1.862
 8468TIP3    H249384   3.267   2.581   1.874
 8469TIP3   OH249385   3.316   2.823   1.692
 8469TIP3    H149386   3.292   2.892   1.628
 8469TIP3    H249387   3.411   2.815   1.674
 8470TIP3   OH249388   2.396   2.500   1.788
 8470TIP3    H149389   2.318   2.442   1.776
 8470TIP3    H249390   2.460   2.461   1.726
 8471TIP3   OH249391   2.668   1.956   1.392
 8471TIP3    H149392   2.648   2.052   1.382
 8471TIP3    H249393   2.593   1.919   1.341
 8472TIP3   OH249394   2.796   2.389   1.756
 8472TIP3    H149395   2.763   2.365   1.845
 8472TIP3    H249396   2.718   2.368   1.701
 8473TIP3   OH249397   3.064   2.297   1.661
 8473TIP3    H149398   2.969   2.310   1.678
 8473TIP3    H249399   3.093   2.245   1.738
 8474TIP3   OH249400   3.220   2.161   1.854
 8474TIP3    H149401   3.218   2.065   1.863
 8474TIP3    H249402   3.200   2.196   1.944
 8475TIP3   OH249403   2.204   2.293   1.764
 8475TIP3    H149404   2.227   2.218   1.707
 8475TIP3    H249405   2.192   2.251   1.852
 8476TIP3   OH249406   2.689   1.897   1.662
 8476TIP3    H149407   2.752   1.822   1.663
 8476TIP3    H249408   2.678   1.908   1.566
 8477TIP3   OH249409   2.726   2.056   1.875
 8477TIP3    H149410   2.708   2.005   1.792
 8477TIP3    H249411   2.667   2.133   1.864
 8478TIP3   OH249412   2.672   3.752   0.195
 8478TIP3    H149413   2.769   3.758   0.199
 8478TIP3    H249414   2.652   3.813   0.122
 8479TIP3   OH249415   2.035   3.204   0.140
 8479TIP3    H149416   2.130   3.217   0.158
 8479TIP3    H249417   2.037   3.146   0.063
 8480TIP3   OH249418   1.907   3.744   0.634
 8480TIP3    H149419   1.834   3.695   0.589
 8480TIP3    H249420   1.933   3.678   0.702
 8481TIP3   OH249421   1.988   3.558   0.823
 8481TIP3    H149422   1.952   3.470   0.843
 8481TIP3    H249423   2.011   3.591   0.912
 8482TIP3   OH249424   3.742   3.637   1.115
 8482TIP3    H149425   3.745   3.653   1.211
 8482TIP3    H249426   3.812   3.696   1.085
 8483TIP3   OH249427   3.699   3.597   1.410
 8483TIP3    H149428   3.652   3.520   1.371
 8483TIP3    H249429   3.747   3.552   1.482
 8484TIP3   OH249430   3.542   3.167   1.877
 8484TIP3    H149431   3.452   3.166   1.913
 8484TIP3    H249432   3.580   3.248   1.916
 8485TIP3   OH249433   3.677   3.000   0.419
 8485TIP3    H149434   3.763   3.041   0.441
 8485TIP3    H249435   3.673   2.931   0.488
 8486TIP3   OH249436   3.710   2.810   0.609
 8486TIP3    H149437   3.635   2.760   0.648
 8486TIP3    H249438   3.770   2.822   0.686
 8487TIP3   OH249439   3.687   3.079   1.107
 8487TIP3    H149440   3.767   3.041   1.069
 8487TIP3    H249441   3.702   3.175   1.090
 8488TIP3   OH249442   3.543   3.370   1.334
 8488TIP3    H149443   3.474   3.404   1.393
 8488TIP3    H249444   3.488   3.330   1.263
 8489TIP3   OH249445   3.741   2.793   0.242
 8489TIP3    H149446   3.679   2.827   0.174
 8489TIP3    H249447   3.729   2.861   0.312
 8490TIP3   OH249448   3.578   2.518   0.098
 8490TIP3    H149449   3.578   2.584   0.029
 8490TIP3    H249450   3.558   2.434   0.055
 8491TIP3   OH249451   3.493   2.657   0.667
 8491TIP3    H149452   3.479   2.561   0.662
 8491TIP3    H249453   3.462   2.677   0.757
 8492TIP3   OH249454   1.994   2.866   1.073
 8492TIP3    H149455   2.011   2.857   0.976
 8492TIP3    H249456   2.084   2.847   1.107
 8493TIP3   OH249457   3.577   2.852   1.633
 8493TIP3    H149458   3.640   2.779   1.650
 8493TIP3    H249459   3.638   2.929   1.634
 8494TIP3   OH249460   3.737   2.659   1.721
 8494TIP3    H149461   3.654   2.616   1.690
 8494TIP3    H249462   3.790   2.580   1.698
 8495TIP3   OH249463   3.482   2.247   0.125
 8495TIP3    H149464   3.568   2.214   0.091
 8495TIP3    H249465   3.427   2.219   0.050
 8496TIP3   OH249466   3.457   2.415   0.511
 8496TIP3    H149467   3.488   2.322   0.522
 8496TIP3    H249468   3.537   2.455   0.474
 8497TIP3   OH249469   3.522   2.470   1.056
 8497TIP3    H149470   3.619   2.491   1.053
 8497TIP3    H249471   3.512   2.483   1.152
 8498TIP3   OH249472   3.518   2.546   1.312
 8498TIP3    H149473   3.458   2.581   1.380
 8498TIP3    H249474   3.583   2.621   1.311
 8499TIP3   OH249475   1.954   2.395   1.692
 8499TIP3    H149476   2.048   2.374   1.707
 8499TIP3    H249477   1.909   2.311   1.714
 8500TIP3   OH249478   3.760   1.943   1.869
 8500TIP3    H149479   3.794   1.881   1.804
 8500TIP3    H249480   3.768   2.027   1.817
 8501TIP3   OH249481   3.527   2.144   0.517
 8501TIP3    H149482   3.550   2.100   0.602
 8501TIP3    H249483   3.467   2.080   0.473
 8502TIP3   OH249484   2.076   2.225   0.973
 8502TIP3    H149485   2.121   2.141   0.998
 8502TIP3    H249486   2.132   2.293   1.011
 8503TIP3   OH249487   1.904   2.525   1.076
 8503TIP3    H149488   1.960   2.499   1.000
 8503TIP3    H249489   1.952   2.605   1.103
 8504TIP3   OH249490   3.709   2.146   1.709
 8504TIP3    H149491   3.623   2.192   1.698
 8504TIP3    H249492   3.714   2.106   1.621
 8505TIP3   OH249493   3.719   2.144   0.171
 8505TIP3    H149494   3.760   2.077   0.115
 8505TIP3    H249495   3.786   2.213   0.182
 8506TIP3   OH249496   1.939   2.151   0.485
 8506TIP3    H149497   1.845   2.169   0.469
 8506TIP3    H249498   1.981   2.200   0.413
 8507TIP3   OH249499   3.413   3.645   0.679
 8507TIP3    H149500   3.481   3.616   0.615
 8507TIP3    H249501   3.465   3.695   0.743
 8508TIP3   OH249502   1.935   2.015   1.313
 8508TIP3    H149503   1.868   1.997   1.381
 8508TIP3    H249504   1.889   2.082   1.258
 8509TIP3   OH249505   2.160   3.335   1.728
 8509TIP3    H149506   2.076   3.358   1.685
 8509TIP3    H249507   2.133   3.327   1.820
 8510TIP3   OH249508   2.449   3.437   1.357
 8510TIP3    H149509   2.417   3.524   1.330
 8510TIP3    H249510   2.542   3.444   1.327
 8511TIP3   OH249511   2.881   3.579   1.646
 8511TIP3    H149512   2.894   3.543   1.737
 8511TIP3    H249513   2.972   3.609   1.623
 8512TIP3   OH249514   3.110   3.706   1.579
 8512TIP3    H149515   3.183   3.648   1.555
 8512TIP3    H249516   3.147   3.750   1.658
 8513TIP3   OH249517   3.605   1.957   1.496
 8513TIP3    H149518   3.537   2.003   1.444
 8513TIP3    H249519   3.632   1.885   1.435
 8514TIP3   OH249520   2.191   3.760   1.355
 8514TIP3    H149521   2.118   3.810   1.316
 8514TIP3    H249522   2.161   3.741   1.445
 8515TIP3   OH249523   2.438   3.717   1.263
 8515TIP3    H149524   2.349   3.733   1.302
 8515TIP3    H249525   2.433   3.776   1.186
 8516TIP3   OH249526   2.909   3.709   1.180
 8516TIP3    H149527   2.863   3.765   1.116
 8516TIP3    H249528   2.922   3.771   1.254
 8517TIP3   OH249529   3.136   3.588   1.285
 8517TIP3    H149530   3.053   3.618   1.246
 8517TIP3    H249531   3.187   3.671   1.275
 8518TIP3   OH249532   3.395   3.746   1.305
 8518TIP3    H149533   3.392   3.842   1.282
 8518TIP3    H249534   3.418   3.708   1.217
 8519TIP3   OH249535   2.139   3.625   1.051
 8519TIP3    H149536   2.129   3.578   1.136
 8519TIP3    H249537   2.220   3.586   1.012
 8520TIP3   OH249538   2.345   3.496   0.916
 8520TIP3    H149539   2.329   3.403   0.940
 8520TIP3    H249540   2.431   3.512   0.960
 8521TIP3   OH249541   2.607   3.545   1.004
 8521TIP3    H149542   2.621   3.452   0.978
 8521TIP3    H249543   2.610   3.539   1.101
 8522TIP3   OH249544   2.951   2.110   0.916
 8522TIP3    H149545   2.884   2.046   0.946
 8522TIP3    H249546   3.006   2.056   0.859
 8523TIP3   OH249547   3.465   1.913   0.921
 8523TIP3    H149548   3.525   1.974   0.872
 8523TIP3    H249549   3.376   1.950   0.900
 8524TIP3   OH249550   3.630   2.040   0.750
 8524TIP3    H149551   3.698   1.982   0.710
 8524TIP3    H249552   3.682   2.123   0.763
 8525TIP3   OH249553   2.188   1.971   0.704
 8525TIP3    H149554   2.109   1.954   0.650
 8525TIP3    H249555   2.233   1.885   0.696
 8526TIP3   OH249556   2.067   1.947   0.280
 8526TIP3    H149557   2.112   2.012   0.223
 8526TIP3    H249558   2.011   2.004   0.335
 8527TIP3   OH249559   2.634   1.964   0.681
 8527TIP3    H149560   2.724   2.000   0.672
 8527TIP3    H249561   2.632   1.943   0.774
 8528TIP3   OH249562   3.208   1.966   0.842
 8528TIP3    H149563   3.201   1.978   0.747
 8528TIP3    H249564   3.168   1.876   0.856
 8529TIP3   OH249565   3.333   1.969   0.410
 8529TIP3    H149566   3.258   2.028   0.396
 8529TIP3    H249567   3.289   1.882   0.430
 8530TIP3   OH249568   2.057   3.543   0.372
 8530TIP3    H149569   1.984   3.544   0.307
 8530TIP3    H249570   2.058   3.636   0.394
 8531TIP3   OH249571   2.246   2.135   0.130
 8531TIP3    H149572   2.303   2.080   0.077
 8531TIP3    H249573   2.313   2.178   0.187
 8532TIP3   OH249574   2.757   2.166   0.361
 8532TIP3    H149575   2.775   2.108   0.438
 8532TIP3    H249576   2.757   2.251   0.412
 8533TIP3   OH249577   2.941   3.687   0.213
 8533TIP3    H149578   3.036   3.696   0.196
 8533TIP3    H249579   2.922   3.627   0.137
 8534TIP3   OH249580   3.612   3.626   0.481
 8534TIP3    H149581   3.593   3.546   0.426
 8534TIP3    H249582   3.604   3.698   0.415
 8535TIP3   OH249583   2.177   2.025   1.645
 8535TIP3    H149584   2.138   1.944   1.684
 8535TIP3    H249585   2.267   2.022   1.686
 8536TIP3   OH249586   2.376   1.964   1.812
 8536TIP3    H149587   2.465   1.931   1.790
 8536TIP3    H249588   2.339   1.882   1.850
 8537TIP3   OH249589   2.235   3.634   0.070
 8537TIP3    H149590   2.208   3.669   0.156
 8537TIP3    H249591   2.315   3.586   0.089
 8538TIP3   OH249592   3.219   1.888   1.821
 8538TIP3    H149593   3.221   1.847   1.911
 8538TIP3    H249594   3.315   1.891   1.803
 8539TIP3   OH249595   3.538   3.498   1.689
 8539TIP3    H149596   3.457   3.485   1.634
 8539TIP3    H249597   3.526   3.593   1.712
 8540TIP3   OH249598   4.985   2.887   0.685
 8540TIP3    H149599   4.981   2.986   0.685
 8540TIP3    H249600   4.909   2.865   0.630
 8541TIP3   OH249601   4.867   2.810   1.036
 8541TIP3    H149602   4.867   2.747   1.109
 8541TIP3    H249603   4.831   2.758   0.962
 8542TIP3   OH249604   4.102   2.780   1.193
 8542TIP3    H149605   4.111   2.710   1.262
 8542TIP3    H249606   4.178   2.836   1.215
 8543TIP3   OH249607   5.235   3.107   0.866
 8543TIP3    H149608   5.195   3.035   0.916
 8543TIP3    H249609   5.239   3.177   0.934
 8544TIP3   OH249610   4.195   3.224   1.042
 8544TIP3    H149611   4.164   3.137   1.011
 8544TIP3    H249612   4.290   3.207   1.046
 8545TIP3   OH249613   3.858   2.578   0.593
 8545TIP3    H149614   3.815   2.666   0.586
 8545TIP3    H249615   3.803   2.525   0.535
 8546TIP3   OH249616   3.931   2.802   0.808
 8546TIP3    H149617   3.958   2.719   0.851
 8546TIP3    H249618   3.999   2.813   0.740
 8547TIP3   OH249619   4.951   3.625   0.891
 8547TIP3    H149620   5.012   3.552   0.863
 8547TIP3    H249621   4.924   3.590   0.976
 8548TIP3   OH249622   4.705   3.050   1.087
 8548TIP3    H149623   4.739   2.989   1.020
 8548TIP3    H249624   4.787   3.067   1.137
 8549TIP3   OH249625   5.563   2.218   1.156
 8549TIP3    H149626   5.582   2.276   1.234
 8549TIP3    H249627   5.622   2.259   1.091
 8550TIP3   OH249628   5.022   2.498   1.117
 8550TIP3    H149629   5.039   2.402   1.118
 8550TIP3    H249630   5.011   2.512   1.021
 8551TIP3   OH249631   4.332   2.306   0.838
 8551TIP3    H149632   4.343   2.390   0.790
 8551TIP3    H249633   4.293   2.250   0.768
 8552TIP3   OH249634   5.107   2.314   0.674
 8552TIP3    H149635   5.171   2.283   0.742
 8552TIP3    H249636   5.163   2.371   0.621
 8553TIP3   OH249637   3.995   2.548   0.910
 8553TIP3    H149638   4.061   2.494   0.957
 8553TIP3    H249639   4.009   2.517   0.819
 8554TIP3   OH249640   4.513   2.704   0.842
 8554TIP3    H149641   4.578   2.646   0.885
 8554TIP3    H249642   4.459   2.638   0.795
 8555TIP3   OH249643   5.608   2.356   1.385
 8555TIP3    H149644   5.549   2.434   1.373
 8555TIP3    H249645   5.611   2.351   1.481
 8556TIP3   OH249646   4.226   2.197   1.241
 8556TIP3    H149647   4.197   2.254   1.167
 8556TIP3    H249648   4.158   2.220   1.309
 8557TIP3   OH249649   4.951   3.146   0.597
 8557TIP3    H149650   4.925   3.117   0.509
 8557TIP3    H249651   4.922   3.239   0.600
 8558TIP3   OH249652   4.475   2.961   1.265
 8558TIP3    H149653   4.405   3.026   1.288
 8558TIP3    H249654   4.546   3.021   1.236
 8559TIP3   OH249655   5.289   2.250   0.874
 8559TIP3    H149656   5.266   2.173   0.927
 8559TIP3    H249657   5.356   2.293   0.930
 8560TIP3   OH249658   4.182   2.381   1.045
 8560TIP3    H149659   4.244   2.451   1.077
 8560TIP3    H249660   4.234   2.343   0.970
 8561TIP3   OH249661   4.321   3.163   1.347
 8561TIP3    H149662   4.316   3.254   1.314
 8561TIP3    H249663   4.232   3.154   1.392
 8562TIP3   OH249664   3.927   3.121   0.425
 8562TIP3    H149665   3.905   3.156   0.336
 8562TIP3    H249666   3.935   3.204   0.477
 8563TIP3   OH249667   5.289   3.290   1.103
 8563TIP3    H149668   5.192   3.302   1.115
 8563TIP3    H249669   5.315   3.382   1.082
 8564TIP3   OH249670   5.321   2.117   1.241
 8564TIP3    H149671   5.249   2.181   1.231
 8564TIP3    H249672   5.393   2.159   1.190
 8565TIP3   OH249673   4.616   1.931   0.988
 8565TIP3    H149674   4.601   1.835   0.980
 8565TIP3    H249675   4.529   1.962   1.019
 8566TIP3   OH249676   5.117   3.467   0.766
 8566TIP3    H149677   5.155   3.394   0.712
 8566TIP3    H249678   5.157   3.545   0.724
 8567TIP3   OH249679   5.238   3.263   0.616
 8567TIP3    H149680   5.209   3.195   0.553
 8567TIP3    H249681   5.240   3.212   0.698
 8568TIP3   OH249682   5.397   3.122   1.463
 8568TIP3    H149683   5.412   3.055   1.392
 8568TIP3    H249684   5.419   3.205   1.417
 8569TIP3   OH249685   4.843   2.802   0.432
 8569TIP3    H149686   4.782   2.874   0.404
 8569TIP3    H249687   4.921   2.822   0.376
 8570TIP3   OH249688   4.850   2.654   0.151
 8570TIP3    H149689   4.930   2.670   0.206
 8570TIP3    H249690   4.887   2.597   0.084
 8571TIP3   OH249691   5.587   2.753   1.267
 8571TIP3    H149692   5.521   2.825   1.270
 8571TIP3    H249693   5.637   2.776   1.187
 8572TIP3   OH249694   5.194   2.831   0.533
 8572TIP3    H149695   5.119   2.855   0.592
 8572TIP3    H249696   5.241   2.763   0.585
 8573TIP3   OH249697   5.186   2.647   1.444
 8573TIP3    H149698   5.186   2.730   1.496
 8573TIP3    H249699   5.123   2.676   1.375
 8574TIP3   OH249700   4.353   2.896   0.724
 8574TIP3    H149701   4.322   2.857   0.639
 8574TIP3    H249702   4.415   2.828   0.758
 8575TIP3   OH249703   4.485   3.234   0.991
 8575TIP3    H149704   4.485   3.183   0.909
 8575TIP3    H249705   4.564   3.199   1.036
 8576TIP3   OH249706   4.386   2.771   1.090
 8576TIP3    H149707   4.440   2.780   1.009
 8576TIP3    H249708   4.426   2.838   1.150
 8577TIP3   OH249709   5.029   3.329   1.160
 8577TIP3    H149710   5.001   3.392   1.226
 8577TIP3    H249711   5.003   3.244   1.203
 8578TIP3   OH249712   4.481   3.214   1.562
 8578TIP3    H149713   4.439   3.289   1.609
 8578TIP3    H249714   4.416   3.195   1.490
 8579TIP3   OH249715   5.077   2.752   0.298
 8579TIP3    H149716   5.134   2.770   0.377
 8579TIP3    H249717   5.125   2.801   0.227
 8580TIP3   OH249718   4.177   2.830   1.473
 8580TIP3    H149719   4.182   2.896   1.545
 8580TIP3    H249720   4.082   2.839   1.454
 8581TIP3   OH249721   4.853   3.425   0.642
 8581TIP3    H149722   4.894   3.455   0.725
 8581TIP3    H249723   4.795   3.498   0.619
 8582TIP3   OH249724   4.306   3.411   1.633
 8582TIP3    H149725   4.300   3.409   1.536
 8582TIP3    H249726   4.213   3.404   1.659
 8583TIP3   OH249727   5.455   1.924   0.286
 8583TIP3    H149728   5.360   1.932   0.309
 8583TIP3    H249729   5.472   2.008   0.242
 8584TIP3   OH249730   4.255   2.795   0.476
 8584TIP3    H149731   4.221   2.877   0.435
 8584TIP3    H249732   4.182   2.733   0.463
 8585TIP3   OH249733   5.567   3.357   0.124
 8585TIP3    H149734   5.580   3.452   0.141
 8585TIP3    H249735   5.659   3.326   0.121
 8586TIP3   OH249736   3.858   3.040   1.376
 8586TIP3    H149737   3.815   3.033   1.289
 8586TIP3    H249738   3.867   2.945   1.398
 8587TIP3   OH249739   3.835   3.315   1.053
 8587TIP3    H149740   3.931   3.304   1.050
 8587TIP3    H249741   3.827   3.397   1.102
 8588TIP3   OH249742   5.660   3.386   1.622
 8588TIP3    H149743   5.647   3.290   1.618
 8588TIP3    H249744   5.572   3.411   1.660
 8589TIP3   OH249745   4.754   3.336   1.504
 8589TIP3    H149746   4.762   3.420   1.557
 8589TIP3    H249747   4.667   3.302   1.533
 8590TIP3   OH249748   4.797   3.714   0.487
 8590TIP3    H149749   4.787   3.709   0.390
 8590TIP3    H249750   4.803   3.811   0.503
 8591TIP3   OH249751   4.162   3.602   0.673
 8591TIP3    H149752   4.178   3.560   0.760
 8591TIP3    H249753   4.078   3.560   0.647
 8592TIP3   OH249754   5.106   3.634   0.193
 8592TIP3    H149755   5.155   3.561   0.147
 8592TIP3    H249756   5.110   3.603   0.285
 8593TIP3   OH249757   5.076   3.631   0.468
 8593TIP3    H149758   4.978   3.637   0.481
 8593TIP3    H249759   5.095   3.552   0.520
 8594TIP3   OH249760   5.374   2.532   1.668
 8594TIP3    H149761   5.326   2.577   1.596
 8594TIP3    H249762   5.372   2.440   1.638
 8595TIP3   OH249763   4.089   3.173   1.469
 8595TIP3    H149764   4.110   3.137   1.557
 8595TIP3    H249765   4.001   3.133   1.447
 8596TIP3   OH249766   4.357   2.021   1.063
 8596TIP3    H149767   4.266   2.008   1.027
 8596TIP3    H249768   4.342   2.104   1.113
 8597TIP3   OH249769   4.822   1.987   1.399
 8597TIP3    H149770   4.860   1.944   1.478
 8597TIP3    H249771   4.724   1.977   1.413
 8598TIP3   OH249772   5.149   2.373   1.490
 8598TIP3    H149773   5.092   2.351   1.567
 8598TIP3    H249774   5.131   2.466   1.467
 8599TIP3   OH249775   5.233   2.837   0.085
 8599TIP3    H149776   5.218   2.849  -0.010
 8599TIP3    H249777   5.310   2.895   0.093
 8600TIP3   OH249778   4.782   2.250   0.137
 8600TIP3    H149779   4.750   2.232   0.227
 8600TIP3    H249780   4.757   2.163   0.100
 8601TIP3   OH249781   4.366   2.519   1.190
 8601TIP3    H149782   4.291   2.518   1.253
 8601TIP3    H249783   4.362   2.609   1.152
 8602TIP3   OH249784   4.362   2.529   0.677
 8602TIP3    H149785   4.268   2.505   0.665
 8602TIP3    H249786   4.397   2.499   0.591
 8603TIP3   OH249787   4.908   2.575   0.543
 8603TIP3    H149788   4.880   2.666   0.517
 8603TIP3    H249789   4.987   2.563   0.487
 8604TIP3   OH249790   4.819   2.601   1.696
 8604TIP3    H149791   4.768   2.523   1.726
 8604TIP3    H249792   4.903   2.590   1.743
 8605TIP3   OH249793   5.020   2.529   0.839
 8605TIP3    H149794   4.991   2.587   0.767
 8605TIP3    H249795   5.027   2.445   0.790
 8606TIP3   OH249796   4.129   2.541   1.355
 8606TIP3    H149797   4.136   2.583   1.443
 8606TIP3    H249798   4.083   2.459   1.378
 8607TIP3   OH249799   4.470   2.193   0.059
 8607TIP3    H149800   4.426   2.212   0.142
 8607TIP3    H249801   4.415   2.256   0.008
 8608TIP3   OH249802   3.795   2.253   0.757
 8608TIP3    H149803   3.864   2.249   0.827
 8608TIP3    H249804   3.839   2.216   0.679
 8609TIP3   OH249805   3.920   2.325   0.291
 8609TIP3    H149806   3.972   2.386   0.235
 8609TIP3    H249807   3.852   2.387   0.325
 8610TIP3   OH249808   4.937   2.687   1.291
 8610TIP3    H149809   4.976   2.618   1.233
 8610TIP3    H249810   4.890   2.635   1.358
 8611TIP3   OH249811   4.619   2.289   0.775
 8611TIP3    H149812   4.526   2.284   0.805
 8611TIP3    H249813   4.666   2.267   0.857
 8612TIP3   OH249814   4.098   2.440   0.663
 8612TIP3    H149815   4.011   2.456   0.623
 8612TIP3    H249816   4.127   2.357   0.622
 8613TIP3   OH249817   4.447   2.438   0.431
 8613TIP3    H149818   4.539   2.443   0.464
 8613TIP3    H249819   4.423   2.509   0.368
 8614TIP3   OH249820   5.059   2.209   1.100
 8614TIP3    H149821   4.991   2.213   1.170
 8614TIP3    H249822   5.008   2.183   1.022
 8615TIP3   OH249823   4.334   2.570   0.192
 8615TIP3    H149824   4.281   2.524   0.125
 8615TIP3    H249825   4.412   2.581   0.135
 8616TIP3   OH249826   5.378   3.773   1.733
 8616TIP3    H149827   5.405   3.811   1.647
 8616TIP3    H249828   5.451   3.804   1.789
 8617TIP3   OH249829   4.146   3.020   1.690
 8617TIP3    H149830   4.218   3.045   1.749
 8617TIP3    H249831   4.069   3.027   1.751
 8618TIP3   OH249832   4.746   2.561   0.966
 8618TIP3    H149833   4.808   2.508   0.914
 8618TIP3    H249834   4.731   2.506   1.044
 8619TIP3   OH249835   4.247   2.175   0.612
 8619TIP3    H149836   4.215   2.084   0.610
 8619TIP3    H249837   4.325   2.166   0.555
 8620TIP3   OH249838   4.610   2.394   1.206
 8620TIP3    H149839   4.528   2.446   1.215
 8620TIP3    H249840   4.666   2.429   1.278
 8621TIP3   OH249841   4.670   3.009   0.379
 8621TIP3    H149842   4.587   2.971   0.343
 8621TIP3    H249843   4.644   3.032   0.471
 8622TIP3   OH249844   5.389   2.937   1.257
 8622TIP3    H149845   5.444   2.986   1.193
 8622TIP3    H249846   5.302   2.940   1.211
 8623TIP3   OH249847   5.053   2.302   0.181
 8623TIP3    H149848   4.956   2.308   0.181
 8623TIP3    H249849   5.087   2.379   0.232
 8624TIP3   OH249850   4.818   3.043   1.501
 8624TIP3    H149851   4.783   3.000   1.579
 8624TIP3    H249852   4.792   3.135   1.512
 8625TIP3   OH249853   5.121   2.492   0.362
 8625TIP3    H149854   5.212   2.473   0.396
 8625TIP3    H249855   5.138   2.571   0.309
 8626TIP3   OH249856   4.180   2.957   0.957
 8626TIP3    H149857   4.247   2.947   0.887
 8626TIP3    H249858   4.186   2.871   1.002
 8627TIP3   OH249859   4.879   3.162   0.280
 8627TIP3    H149860   4.844   3.248   0.312
 8627TIP3    H249861   4.805   3.102   0.301
 8628TIP3   OH249862   3.878   2.797   1.484
 8628TIP3    H149863   3.894   2.750   1.569
 8628TIP3    H249864   3.818   2.735   1.439
 8629TIP3   OH249865   4.580   2.752   1.699
 8629TIP3    H149866   4.548   2.719   1.613
 8629TIP3    H249867   4.672   2.719   1.700
 8630TIP3   OH249868   5.048   3.287   1.496
 8630TIP3    H149869   4.955   3.305   1.474
 8630TIP3    H249870   5.045   3.315   1.590
 8631TIP3   OH249871   5.616   2.502   0.335
 8631TIP3    H149872   5.557   2.473   0.263
 8631TIP3    H249873   5.622   2.596   0.310
 8632TIP3   OH249874   5.614   3.090   1.614
 8632TIP3    H149875   5.525   3.112   1.578
 8632TIP3    H249876   5.668   3.084   1.533
 8633TIP3   OH249877   5.449   3.385   0.376
 8633TIP3    H149878   5.409   3.303   0.406
 8633TIP3    H249879   5.473   3.367   0.283
 8634TIP3   OH249880   5.166   2.868   1.085
 8634TIP3    H149881   5.072   2.847   1.073
 8634TIP3    H249882   5.209   2.792   1.040
 8635TIP3   OH249883   4.417   3.301   0.695
 8635TIP3    H149884   4.466   3.382   0.675
 8635TIP3    H249885   4.329   3.324   0.662
 8636TIP3   OH249886   3.993   2.789   0.145
 8636TIP3    H149887   4.052   2.847   0.196
 8636TIP3    H249888   3.905   2.816   0.179
 8637TIP3   OH249889   4.558   3.068   0.646
 8637TIP3    H149890   4.526   3.159   0.655
 8637TIP3    H249891   4.488   3.017   0.691
 8638TIP3   OH249892   4.604   3.485   1.287
 8638TIP3    H149893   4.647   3.567   1.261
 8638TIP3    H249894   4.666   3.452   1.355
 8639TIP3   OH249895   4.427   3.564   0.606
 8639TIP3    H149896   4.330   3.581   0.612
 8639TIP3    H249897   4.462   3.651   0.630
 8640TIP3   OH249898   4.954   3.085   1.249
 8640TIP3    H149899   4.924   3.067   1.341
 8640TIP3    H249900   5.019   3.014   1.233
 8641TIP3   OH249901   5.184   3.190   0.159
 8641TIP3    H149902   5.220   3.147   0.238
 8641TIP3    H249903   5.090   3.173   0.174
 8642TIP3   OH249904   5.238   3.544   1.498
 8642TIP3    H149905   5.169   3.494   1.450
 8642TIP3    H249906   5.256   3.614   1.431
 8643TIP3   OH249907   5.636   3.631   0.188
 8643TIP3    H149908   5.707   3.693   0.164
 8643TIP3    H249909   5.563   3.693   0.208
 8644TIP3   OH249910   4.043   2.269   1.437
 8644TIP3    H149911   3.953   2.305   1.436
 8644TIP3    H249912   4.033   2.184   1.483
 8645TIP3   OH249913   5.268   3.058   0.389
 8645TIP3    H149914   5.244   2.976   0.437
 8645TIP3    H249915   5.364   3.059   0.400
 8646TIP3   OH249916   4.006   3.446   1.280
 8646TIP3    H149917   4.037   3.355   1.281
 8646TIP3    H249918   4.031   3.477   1.367
 8647TIP3   OH249919   4.478   3.256   0.254
 8647TIP3    H149920   4.511   3.204   0.328
 8647TIP3    H249921   4.489   3.349   0.286
 8648TIP3   OH249922   4.131   2.979   0.299
 8648TIP3    H149923   4.062   3.019   0.356
 8648TIP3    H249924   4.186   3.055   0.274
 8649TIP3   OH249925   4.917   2.246   1.335
 8649TIP3    H149926   4.989   2.253   1.399
 8649TIP3    H249927   4.879   2.159   1.356
 8650TIP3   OH249928   4.985   2.210   0.444
 8650TIP3    H149929   5.022   2.247   0.363
 8650TIP3    H249930   5.049   2.246   0.509
 8651TIP3   OH249931   4.756   3.418   0.320
 8651TIP3    H149932   4.677   3.474   0.335
 8651TIP3    H249933   4.814   3.473   0.265
 8652TIP3   OH249934   4.704   2.394   0.522
 8652TIP3    H149935   4.794   2.434   0.532
 8652TIP3    H249936   4.687   2.362   0.614
 8653TIP3   OH249937   4.771   2.481   1.444
 8653TIP3    H149938   4.777   2.536   1.525
 8653TIP3    H249939   4.836   2.412   1.453
 8654TIP3   OH249940   4.798   2.085   0.608
 8654TIP3    H149941   4.769   2.145   0.678
 8654TIP3    H249942   4.871   2.138   0.568
 8655TIP3   OH249943   4.502   3.522   0.331
 8655TIP3    H149944   4.511   3.603   0.275
 8655TIP3    H249945   4.470   3.561   0.414
 8656TIP3   OH249946   4.362   2.195   0.298
 8656TIP3    H149947   4.359   2.288   0.325
 8656TIP3    H249948   4.455   2.169   0.310
 8657TIP3   OH249949   5.387   2.268   1.528
 8657TIP3    H149950   5.294   2.300   1.515
 8657TIP3    H249951   5.417   2.266   1.436
 8658TIP3   OH249952   5.250   2.647   0.928
 8658TIP3    H149953   5.167   2.601   0.902
 8658TIP3    H249954   5.298   2.578   0.979
 8659TIP3   OH249955   4.193   3.236   0.190
 8659TIP3    H149956   4.255   3.303   0.220
 8659TIP3    H249957   4.241   3.194   0.118
 8660TIP3   OH249958   4.022   2.508   0.107
 8660TIP3    H149959   4.023   2.604   0.121
 8660TIP3    H249960   3.936   2.489   0.069
 8661TIP3   OH249961   5.355   3.575   1.094
 8661TIP3    H149962   5.347   3.643   1.026
 8661TIP3    H249963   5.451   3.578   1.114
 8662TIP3   OH249964   4.104   1.985   0.978
 8662TIP3    H149965   4.086   1.986   0.881
 8662TIP3    H249966   4.064   1.899   1.002
 8663TIP3   OH249967   4.000   3.378   0.592
 8663TIP3    H149968   3.914   3.421   0.585
 8663TIP3    H249969   4.046   3.422   0.519
 8664TIP3   OH249970   3.919   3.642   1.717
 8664TIP3    H149971   3.980   3.623   1.792
 8664TIP3    H249972   3.881   3.554   1.699
 8665TIP3   OH249973   4.382   3.524   1.882
 8665TIP3    H149974   4.469   3.490   1.909
 8665TIP3    H249975   4.388   3.510   1.786
 8666TIP3   OH249976   4.808   3.495   0.048
 8666TIP3    H149977   4.738   3.431   0.064
 8666TIP3    H249978   4.879   3.446   0.005
 8667TIP3   OH249979   5.042   3.370   1.755
 8667TIP3    H149980   5.008   3.283   1.784
 8667TIP3    H249981   5.118   3.383   1.815
 8668TIP3   OH249982   5.281   3.453   0.095
 8668TIP3    H149983   5.293   3.358   0.093
 8668TIP3    H249984   5.313   3.483   0.009
 8669TIP3   OH249985   3.910   3.019   1.819
 8669TIP3    H149986   3.927   2.928   1.790
 8669TIP3    H249987   3.837   3.044   1.761
 8670TIP3   OH249988   4.332   3.037   0.017
 8670TIP3    H149989   4.360   2.972   0.083
 8670TIP3    H249990   4.412   3.045  -0.035
 8671TIP3   OH249991   4.583   3.017   1.757
 8671TIP3    H149992   4.549   3.050   1.672
 8671TIP3    H249993   4.589   2.919   1.743
 8672TIP3   OH249994   5.152   3.004   1.497
 8672TIP3    H149995   5.231   3.061   1.492
 8672TIP3    H249996   5.082   3.073   1.500
 8673TIP3   OH249997   4.009   2.744   1.758
 8673TIP3    H149998   4.044   2.655   1.747
 8673TIP3    H249999   3.980   2.741   1.851
 8674TIP3   OH250000   4.470   2.857   0.262
 8674TIP3    H150001   4.414   2.806   0.324
 8674TIP3    H250002   4.496   2.789   0.197
 8675TIP3   OH250003   4.393   2.635   1.492
 8675TIP3    H150004   4.332   2.707   1.518
 8675TIP3    H250005   4.433   2.673   1.412
 8676TIP3   OH250006   4.580   2.673   0.096
 8676TIP3    H150007   4.552   2.667   0.001
 8676TIP3    H250008   4.675   2.692   0.089
 8677TIP3   OH250009   4.901   2.895   1.830
 8677TIP3    H150010   4.996   2.891   1.811
 8677TIP3    H250011   4.884   2.816   1.883
 8678TIP3   OH250012   5.505   2.908  11.009
 8678TIP3    H150013   5.490   2.870  10.923
 8678TIP3    H250014   5.512   3.003  10.988
 8679TIP3   OH250015   4.438   2.374   1.597
 8679TIP3    H150016   4.446   2.303   1.530
 8679TIP3    H250017   4.427   2.455   1.543
 8680TIP3   OH250018   4.475   2.212   1.353
 8680TIP3    H150019   4.525   2.259   1.282
 8680TIP3    H250020   4.385   2.205   1.313
 8681TIP3   OH250021   4.628   2.762   1.377
 8681TIP3    H150022   4.704   2.745   1.321
 8681TIP3    H250023   4.591   2.846   1.343
 8682TIP3   OH250024   5.067   2.536   1.873
 8682TIP3    H150025   5.091   2.442   1.864
 8682TIP3    H250026   5.154   2.581   1.877
 8683TIP3   OH250027   5.202   2.816   1.691
 8683TIP3    H150028   5.177   2.888   1.629
 8683TIP3    H250029   5.298   2.813   1.672
 8684TIP3   OH250030   4.280   2.499   1.789
 8684TIP3    H150031   4.203   2.441   1.774
 8684TIP3    H250032   4.345   2.462   1.728
 8685TIP3   OH250033   4.553   1.957   1.391
 8685TIP3    H150034   4.534   2.053   1.381
 8685TIP3    H250035   4.479   1.919   1.341
 8686TIP3   OH250036   4.682   2.388   1.756
 8686TIP3    H150037   4.648   2.365   1.845
 8686TIP3    H250038   4.603   2.369   1.701
 8687TIP3   OH250039   4.953   2.303   1.666
 8687TIP3    H150040   4.857   2.309   1.676
 8687TIP3    H250041   4.979   2.239   1.735
 8688TIP3   OH250042   5.110   2.166   1.853
 8688TIP3    H150043   5.107   2.068   1.857
 8688TIP3    H250044   5.087   2.195   1.944
 8689TIP3   OH250045   4.103   2.288   1.770
 8689TIP3    H150046   4.112   2.215   1.708
 8689TIP3    H250047   4.078   2.246   1.854
 8690TIP3   OH250048   4.572   1.893   1.662
 8690TIP3    H150049   4.644   1.828   1.659
 8690TIP3    H250050   4.564   1.911   1.566
 8691TIP3   OH250051   4.611   2.056   1.875
 8691TIP3    H150052   4.593   2.005   1.792
 8691TIP3    H250053   4.551   2.133   1.865
 8692TIP3   OH250054   4.568   3.744   0.195
 8692TIP3    H150055   4.662   3.764   0.196
 8692TIP3    H250056   4.527   3.807   0.131
 8693TIP3   OH250057   3.920   3.204   0.140
 8693TIP3    H150058   4.016   3.217   0.158
 8693TIP3    H250059   3.921   3.146   0.063
 8694TIP3   OH250060   3.791   3.743   0.635
 8694TIP3    H150061   3.719   3.695   0.589
 8694TIP3    H250062   3.819   3.678   0.702
 8695TIP3   OH250063   3.873   3.558   0.823
 8695TIP3    H150064   3.838   3.470   0.843
 8695TIP3    H250065   3.897   3.591   0.912
 8696TIP3   OH250066   5.626   3.641   1.112
 8696TIP3    H150067   5.630   3.652   1.209
 8696TIP3    H250068   5.700   3.695   1.086
 8697TIP3   OH250069   5.585   3.596   1.411
 8697TIP3    H150070   5.538   3.520   1.371
 8697TIP3    H250071   5.633   3.550   1.482
 8698TIP3   OH250072   5.429   3.168   1.878
 8698TIP3    H150073   5.338   3.166   1.913
 8698TIP3    H250074   5.466   3.249   1.918
 8699TIP3   OH250075   5.563   3.000   0.419
 8699TIP3    H150076   5.648   3.041   0.441
 8699TIP3    H250077   5.559   2.931   0.488
 8700TIP3   OH250078   5.596   2.810   0.609
 8700TIP3    H150079   5.520   2.760   0.648
 8700TIP3    H250080   5.656   2.822   0.686
 8701TIP3   OH250081   5.572   3.078   1.108
 8701TIP3    H150082   5.653   3.040   1.069
 8701TIP3    H250083   5.587   3.174   1.090
 8702TIP3   OH250084   5.429   3.370   1.333
 8702TIP3    H150085   5.360   3.404   1.392
 8702TIP3    H250086   5.374   3.330   1.262
 8703TIP3   OH250087   5.626   2.792   0.242
 8703TIP3    H150088   5.565   2.827   0.174
 8703TIP3    H250089   5.614   2.861   0.312
 8704TIP3   OH250090   5.464   2.519   0.098
 8704TIP3    H150091   5.464   2.584   0.028
 8704TIP3    H250092   5.443   2.434   0.055
 8705TIP3   OH250093   5.377   2.657   0.666
 8705TIP3    H150094   5.364   2.561   0.662
 8705TIP3    H250095   5.347   2.677   0.757
 8706TIP3   OH250096   3.878   2.865   1.074
 8706TIP3    H150097   3.895   2.856   0.977
 8706TIP3    H250098   3.969   2.847   1.107
 8707TIP3   OH250099   5.465   2.853   1.635
 8707TIP3    H150100   5.526   2.778   1.648
 8707TIP3    H250101   5.526   2.930   1.636
 8708TIP3   OH250102   5.615   2.641   1.700
 8708TIP3    H150103   5.527   2.601   1.685
 8708TIP3    H250104   5.672   2.562   1.693
 8709TIP3   OH250105   5.367   2.248   0.124
 8709TIP3    H150106   5.453   2.214   0.090
 8709TIP3    H250107   5.311   2.220   0.051
 8710TIP3   OH250108   5.343   2.415   0.511
 8710TIP3    H150109   5.373   2.322   0.522
 8710TIP3    H250110   5.423   2.455   0.473
 8711TIP3   OH250111   5.410   2.469   1.057
 8711TIP3    H150112   5.506   2.492   1.055
 8711TIP3    H250113   5.391   2.483   1.151
 8712TIP3   OH250114   5.416   2.541   1.334
 8712TIP3    H150115   5.328   2.570   1.365
 8712TIP3    H250116   5.460   2.627   1.312
 8713TIP3   OH250117   3.880   2.399   1.709
 8713TIP3    H150118   3.966   2.355   1.719
 8713TIP3    H250119   3.812   2.327   1.712
 8714TIP3   OH250120   5.644   1.949   1.868
 8714TIP3    H150121   5.679   1.882   1.806
 8714TIP3    H250122   5.653   2.030   1.813
 8715TIP3   OH250123   5.412   2.144   0.517
 8715TIP3    H150124   5.435   2.100   0.602
 8715TIP3    H250125   5.353   2.080   0.473
 8716TIP3   OH250126   3.961   2.225   0.973
 8716TIP3    H150127   4.007   2.141   0.997
 8716TIP3    H250128   4.017   2.293   1.011
 8717TIP3   OH250129   3.786   2.526   1.074
 8717TIP3    H150130   3.844   2.499   1.000
 8717TIP3    H250131   3.836   2.604   1.104
 8718TIP3   OH250132   5.596   2.158   1.703
 8718TIP3    H150133   5.502   2.186   1.698
 8718TIP3    H250134   5.598   2.103   1.624
 8719TIP3   OH250135   5.605   2.144   0.172
 8719TIP3    H150136   5.645   2.077   0.115
 8719TIP3    H250137   5.671   2.213   0.182
 8720TIP3   OH250138   3.825   2.151   0.484
 8720TIP3    H150139   3.731   2.169   0.468
 8720TIP3    H250140   3.867   2.200   0.411
 8721TIP3   OH250141   5.295   3.642   0.678
 8721TIP3    H150142   5.360   3.594   0.622
 8721TIP3    H250143   5.342   3.673   0.758
 8722TIP3   OH250144   3.819   2.016   1.312
 8722TIP3    H150145   3.756   2.000   1.383
 8722TIP3    H250146   3.775   2.086   1.260
 8723TIP3   OH250147   4.045   3.337   1.731
 8723TIP3    H150148   3.961   3.358   1.687
 8723TIP3    H250149   4.017   3.329   1.823
 8724TIP3   OH250150   4.333   3.436   1.354
 8724TIP3    H150151   4.303   3.525   1.332
 8724TIP3    H250152   4.427   3.445   1.327
 8725TIP3   OH250153   4.785   3.557   1.639
 8725TIP3    H150154   4.784   3.544   1.736
 8725TIP3    H250155   4.865   3.611   1.623
 8726TIP3   OH250156   4.997   3.706   1.579
 8726TIP3    H150157   5.070   3.647   1.555
 8726TIP3    H250158   5.034   3.750   1.658
 8727TIP3   OH250159   5.498   1.967   1.490
 8727TIP3    H150160   5.415   1.997   1.448
 8727TIP3    H250161   5.515   1.885   1.438
 8728TIP3   OH250162   4.077   3.758   1.355
 8728TIP3    H150163   4.006   3.812   1.317
 8728TIP3    H250164   4.048   3.744   1.447
 8729TIP3   OH250165   4.320   3.711   1.257
 8729TIP3    H150166   4.236   3.736   1.304
 8729TIP3    H250167   4.321   3.779   1.188
 8730TIP3   OH250168   4.799   3.711   1.177
 8730TIP3    H150169   4.745   3.765   1.118
 8730TIP3    H250170   4.804   3.771   1.255
 8731TIP3   OH250171   5.021   3.589   1.287
 8731TIP3    H150172   4.938   3.618   1.245
 8731TIP3    H250173   5.072   3.671   1.277
 8732TIP3   OH250174   5.280   3.744   1.305
 8732TIP3    H150175   5.277   3.840   1.283
 8732TIP3    H250176   5.303   3.707   1.217
 8733TIP3   OH250177   4.024   3.625   1.051
 8733TIP3    H150178   4.015   3.578   1.136
 8733TIP3    H250179   4.106   3.586   1.012
 8734TIP3   OH250180   4.231   3.496   0.916
 8734TIP3    H150181   4.215   3.403   0.940
 8734TIP3    H250182   4.317   3.512   0.961
 8735TIP3   OH250183   4.492   3.545   1.004
 8735TIP3    H150184   4.507   3.452   0.978
 8735TIP3    H250185   4.496   3.539   1.100
 8736TIP3   OH250186   4.835   2.109   0.914
 8736TIP3    H150187   4.769   2.045   0.946
 8736TIP3    H250188   4.892   2.054   0.859
 8737TIP3   OH250189   5.350   1.912   0.923
 8737TIP3    H150190   5.411   1.972   0.873
 8737TIP3    H250191   5.262   1.949   0.901
 8738TIP3   OH250192   5.516   2.040   0.750
 8738TIP3    H150193   5.585   1.982   0.709
 8738TIP3    H250194   5.568   2.122   0.762
 8739TIP3   OH250195   4.073   1.971   0.705
 8739TIP3    H150196   3.995   1.954   0.650
 8739TIP3    H250197   4.119   1.885   0.696
 8740TIP3   OH250198   3.952   1.947   0.280
 8740TIP3    H150199   3.998   2.013   0.223
 8740TIP3    H250200   3.896   2.004   0.335
 8741TIP3   OH250201   4.519   1.964   0.681
 8741TIP3    H150202   4.609   2.000   0.672
 8741TIP3    H250203   4.517   1.941   0.774
 8742TIP3   OH250204   5.093   1.966   0.843
 8742TIP3    H150205   5.088   1.976   0.747
 8742TIP3    H250206   5.054   1.876   0.856
 8743TIP3   OH250207   5.218   1.968   0.409
 8743TIP3    H150208   5.144   2.028   0.396
 8743TIP3    H250209   5.174   1.883   0.430
 8744TIP3   OH250210   3.940   3.543   0.376
 8744TIP3    H150211   3.874   3.545   0.304
 8744TIP3    H250212   3.948   3.639   0.390
 8745TIP3   OH250213   4.131   2.129   0.137
 8745TIP3    H150214   4.188   2.082   0.074
 8745TIP3    H250215   4.198   2.177   0.188
 8746TIP3   OH250216   4.642   2.169   0.362
 8746TIP3    H150217   4.661   2.106   0.435
 8746TIP3    H250218   4.644   2.250   0.416
 8747TIP3   OH250219   4.831   3.684   0.215
 8747TIP3    H150220   4.925   3.696   0.194
 8747TIP3    H250221   4.806   3.628   0.138
 8748TIP3   OH250222   5.493   3.627   0.479
 8748TIP3    H150223   5.478   3.543   0.428
 8748TIP3    H250224   5.494   3.693   0.406
 8749TIP3   OH250225   4.062   2.026   1.647
 8749TIP3    H150226   4.021   1.947   1.687
 8749TIP3    H250227   4.153   2.023   1.686
 8750TIP3   OH250228   4.264   1.963   1.811
 8750TIP3    H150229   4.354   1.931   1.790
 8750TIP3    H250230   4.223   1.885   1.850
 8751TIP3   OH250231   4.100   3.600   0.079
 8751TIP3    H150232   4.096   3.674   0.143
 8751TIP3    H250233   4.197   3.594   0.082
 8752TIP3   OH250234   5.102   1.893   1.828
 8752TIP3    H150235   5.111   1.845   1.912
 8752TIP3    H250236   5.193   1.891   1.794
 8753TIP3   OH250237   5.423   3.498   1.689
 8753TIP3    H150238   5.343   3.485   1.634
 8753TIP3    H250239   5.411   3.593   1.711
 8754TIP3   OH250240   6.869   2.887   0.684
 8754TIP3    H150241   6.866   2.985   0.684
 8754TIP3    H250242   6.794   2.863   0.628
 8755TIP3   OH250243   6.754   2.811   1.037
 8755TIP3    H150244   6.753   2.747   1.110
 8755TIP3    H250245   6.717   2.759   0.963
 8756TIP3   OH250246   5.988   2.779   1.193
 8756TIP3    H150247   5.997   2.710   1.262
 8756TIP3    H250248   6.063   2.836   1.215
 8757TIP3   OH250249   7.120   3.106   0.866
 8757TIP3    H150250   7.080   3.034   0.917
 8757TIP3    H250251   7.124   3.177   0.933
 8758TIP3   OH250252   6.081   3.224   1.041
 8758TIP3    H150253   6.050   3.137   1.011
 8758TIP3    H250254   6.176   3.206   1.046
 8759TIP3   OH250255   5.744   2.579   0.593
 8759TIP3    H150256   5.701   2.666   0.586
 8759TIP3    H250257   5.689   2.524   0.535
 8760TIP3   OH250258   5.816   2.802   0.808
 8760TIP3    H150259   5.844   2.719   0.852
 8760TIP3    H250260   5.884   2.813   0.740
 8761TIP3   OH250261   6.834   3.623   0.891
 8761TIP3    H150262   6.899   3.554   0.861
 8761TIP3    H250263   6.811   3.587   0.977
 8762TIP3   OH250264   6.590   3.050   1.087
 8762TIP3    H150265   6.624   2.989   1.019
 8762TIP3    H250266   6.672   3.067   1.136
 8763TIP3   OH250267   7.450   2.219   1.156
 8763TIP3    H150268   7.468   2.276   1.234
 8763TIP3    H250269   7.509   2.259   1.091
 8764TIP3   OH250270   6.907   2.498   1.117
 8764TIP3    H150271   6.925   2.402   1.118
 8764TIP3    H250272   6.897   2.512   1.021
 8765TIP3   OH250273   6.218   2.307   0.838
 8765TIP3    H150274   6.230   2.390   0.788
 8765TIP3    H250275   6.179   2.250   0.768
 8766TIP3   OH250276   6.994   2.314   0.671
 8766TIP3    H150277   7.056   2.283   0.742
 8766TIP3    H250278   7.052   2.373   0.622
 8767TIP3   OH250279   5.881   2.548   0.911
 8767TIP3    H150280   5.947   2.494   0.957
 8767TIP3    H250281   5.892   2.517   0.820
 8768TIP3   OH250282   6.396   2.704   0.845
 8768TIP3    H150283   6.464   2.646   0.882
 8768TIP3    H250284   6.346   2.639   0.792
 8769TIP3   OH250285   7.495   2.358   1.385
 8769TIP3    H150286   7.434   2.434   1.373
 8769TIP3    H250287   7.498   2.350   1.481
 8770TIP3   OH250288   6.110   2.197   1.242
 8770TIP3    H150289   6.082   2.255   1.167
 8770TIP3    H250290   6.043   2.220   1.310
 8771TIP3   OH250291   6.837   3.146   0.598
 8771TIP3    H150292   6.809   3.117   0.509
 8771TIP3    H250293   6.808   3.240   0.600
 8772TIP3   OH250294   6.360   2.961   1.265
 8772TIP3    H150295   6.291   3.026   1.288
 8772TIP3    H250296   6.431   3.021   1.236
 8773TIP3   OH250297   7.174   2.250   0.874
 8773TIP3    H150298   7.152   2.173   0.927
 8773TIP3    H250299   7.241   2.293   0.930
 8774TIP3   OH250300   6.068   2.382   1.046
 8774TIP3    H150301   6.130   2.452   1.076
 8774TIP3    H250302   6.118   2.342   0.971
 8775TIP3   OH250303   6.206   3.162   1.347
 8775TIP3    H150304   6.201   3.254   1.314
 8775TIP3    H250305   6.118   3.154   1.392
 8776TIP3   OH250306   5.812   3.121   0.425
 8776TIP3    H150307   5.791   3.156   0.336
 8776TIP3    H250308   5.820   3.203   0.478
 8777TIP3   OH250309   7.174   3.290   1.103
 8777TIP3    H150310   7.077   3.302   1.115
 8777TIP3    H250311   7.201   3.382   1.082
 8778TIP3   OH250312   7.205   2.119   1.242
 8778TIP3    H150313   7.134   2.182   1.231
 8778TIP3    H250314   7.277   2.159   1.190
 8779TIP3   OH250315   6.502   1.930   0.988
 8779TIP3    H150316   6.487   1.834   0.980
 8779TIP3    H250317   6.414   1.961   1.019
 8780TIP3   OH250318   7.001   3.468   0.765
 8780TIP3    H150319   7.042   3.396   0.712
 8780TIP3    H250320   7.046   3.546   0.725
 8781TIP3   OH250321   7.122   3.260   0.615
 8781TIP3    H150322   7.093   3.192   0.552
 8781TIP3    H250323   7.125   3.210   0.698
 8782TIP3   OH250324   7.283   3.122   1.463
 8782TIP3    H150325   7.297   3.055   1.392
 8782TIP3    H250326   7.305   3.205   1.417
 8783TIP3   OH250327   6.732   2.808   0.437
 8783TIP3    H150328   6.664   2.869   0.404
 8783TIP3    H250329   6.803   2.822   0.373
 8784TIP3   OH250330   6.741   2.663   0.142
 8784TIP3    H150331   6.811   2.669   0.209
 8784TIP3    H250332   6.771   2.593   0.085
 8785TIP3   OH250333   7.472   2.753   1.267
 8785TIP3    H150334   7.406   2.825   1.270
 8785TIP3    H250335   7.521   2.778   1.186
 8786TIP3   OH250336   7.076   2.824   0.530
 8786TIP3    H150337   7.005   2.856   0.591
 8786TIP3    H250338   7.127   2.765   0.589
 8787TIP3   OH250339   7.072   2.647   1.444
 8787TIP3    H150340   7.072   2.730   1.496
 8787TIP3    H250341   7.009   2.676   1.375
 8788TIP3   OH250342   6.239   2.896   0.723
 8788TIP3    H150343   6.208   2.857   0.638
 8788TIP3    H250344   6.301   2.827   0.756
 8789TIP3   OH250345   6.370   3.234   0.991
 8789TIP3    H150346   6.371   3.183   0.909
 8789TIP3    H250347   6.449   3.199   1.037
 8790TIP3   OH250348   6.271   2.771   1.090
 8790TIP3    H150349   6.326   2.780   1.009
 8790TIP3    H250350   6.312   2.838   1.150
 8791TIP3   OH250351   6.915   3.329   1.161
 8791TIP3    H150352   6.886   3.393   1.227
 8791TIP3    H250353   6.889   3.244   1.202
 8792TIP3   OH250354   6.368   3.215   1.559
 8792TIP3    H150355   6.325   3.288   1.608
 8792TIP3    H250356   6.301   3.194   1.489
 8793TIP3   OH250357   6.971   2.744   0.297
 8793TIP3    H150358   7.018   2.774   0.380
 8793TIP3    H250359   7.006   2.806   0.229
 8794TIP3   OH250360   6.062   2.830   1.473
 8794TIP3    H150361   6.068   2.897   1.544
 8794TIP3    H250362   5.968   2.838   1.454
 8795TIP3   OH250363   6.739   3.424   0.642
 8795TIP3    H150364   6.779   3.454   0.724
 8795TIP3    H250365   6.681   3.498   0.619
 8796TIP3   OH250366   6.193   3.417   1.633
 8796TIP3    H150367   6.186   3.408   1.537
 8796TIP3    H250368   6.100   3.404   1.661
 8797TIP3   OH250369   7.341   1.922   0.287
 8797TIP3    H150370   7.245   1.931   0.309
 8797TIP3    H250371   7.358   2.007   0.243
 8798TIP3   OH250372   6.137   2.798   0.482
 8798TIP3    H150373   6.106   2.877   0.434
 8798TIP3    H250374   6.070   2.732   0.461
 8799TIP3   OH250375   7.454   3.357   0.124
 8799TIP3    H150376   7.466   3.452   0.142
 8799TIP3    H250377   7.545   3.325   0.120
 8800TIP3   OH250378   5.744   3.042   1.376
 8800TIP3    H150379   5.701   3.034   1.289
 8800TIP3    H250380   5.754   2.947   1.397
 8801TIP3   OH250381   5.721   3.314   1.054
 8801TIP3    H150382   5.817   3.304   1.051
 8801TIP3    H250383   5.713   3.397   1.102
 8802TIP3   OH250384   7.545   3.385   1.621
 8802TIP3    H150385   7.532   3.289   1.619
 8802TIP3    H250386   7.457   3.410   1.660
 8803TIP3   OH250387   6.641   3.339   1.507
 8803TIP3    H150388   6.646   3.424   1.558
 8803TIP3    H250389   6.553   3.303   1.532
 8804TIP3   OH250390   6.684   3.715   0.488
 8804TIP3    H150391   6.675   3.709   0.391
 8804TIP3    H250392   6.688   3.811   0.504
 8805TIP3   OH250393   6.049   3.602   0.668
 8805TIP3    H150394   6.064   3.562   0.757
 8805TIP3    H250395   5.965   3.559   0.645
 8806TIP3   OH250396   6.985   3.631   0.192
 8806TIP3    H150397   7.040   3.561   0.148
 8806TIP3    H250398   6.997   3.605   0.286
 8807TIP3   OH250399   6.959   3.629   0.464
 8807TIP3    H150400   6.863   3.636   0.482
 8807TIP3    H250401   6.983   3.555   0.521
 8808TIP3   OH250402   7.260   2.532   1.668
 8808TIP3    H150403   7.211   2.577   1.596
 8808TIP3    H250404   7.258   2.440   1.638
 8809TIP3   OH250405   5.974   3.174   1.468
 8809TIP3    H150406   5.995   3.138   1.556
 8809TIP3    H250407   5.887   3.134   1.447
 8810TIP3   OH250408   6.242   2.021   1.063
 8810TIP3    H150409   6.152   2.008   1.027
 8810TIP3    H250410   6.228   2.104   1.112
 8811TIP3   OH250411   6.707   1.987   1.399
 8811TIP3    H150412   6.746   1.944   1.478
 8811TIP3    H250413   6.610   1.976   1.414
 8812TIP3   OH250414   7.035   2.373   1.490
 8812TIP3    H150415   6.978   2.351   1.567
 8812TIP3    H250416   7.016   2.466   1.467
 8813TIP3   OH250417   7.125   2.833   0.083
 8813TIP3    H150418   7.103   2.852  -0.009
 8813TIP3    H250419   7.196   2.900   0.091
 8814TIP3   OH250420   6.669   2.249   0.129
 8814TIP3    H150421   6.636   2.241   0.221
 8814TIP3    H250422   6.644   2.158   0.104
 8815TIP3   OH250423   6.253   2.519   1.191
 8815TIP3    H150424   6.178   2.518   1.254
 8815TIP3    H250425   6.247   2.609   1.152
 8816TIP3   OH250426   6.248   2.529   0.677
 8816TIP3    H150427   6.154   2.505   0.662
 8816TIP3    H250428   6.286   2.502   0.591
 8817TIP3   OH250429   6.800   2.579   0.549
 8817TIP3    H150430   6.760   2.664   0.516
 8817TIP3    H250431   6.870   2.565   0.485
 8818TIP3   OH250432   6.705   2.601   1.695
 8818TIP3    H150433   6.653   2.523   1.726
 8818TIP3    H250434   6.789   2.590   1.743
 8819TIP3   OH250435   6.905   2.530   0.837
 8819TIP3    H150436   6.875   2.586   0.764
 8819TIP3    H250437   6.913   2.445   0.791
 8820TIP3   OH250438   6.014   2.542   1.356
 8820TIP3    H150439   6.024   2.583   1.443
 8820TIP3    H250440   5.970   2.458   1.378
 8821TIP3   OH250441   6.358   2.194   0.055
 8821TIP3    H150442   6.317   2.211   0.142
 8821TIP3    H250443   6.298   2.258   0.014
 8822TIP3   OH250444   5.680   2.253   0.757
 8822TIP3    H150445   5.749   2.249   0.827
 8822TIP3    H250446   5.725   2.217   0.678
 8823TIP3   OH250447   5.806   2.325   0.290
 8823TIP3    H150448   5.858   2.387   0.235
 8823TIP3    H250449   5.738   2.387   0.325
 8824TIP3   OH250450   6.823   2.687   1.291
 8824TIP3    H150451   6.861   2.618   1.233
 8824TIP3    H250452   6.776   2.635   1.358
 8825TIP3   OH250453   6.503   2.287   0.776
 8825TIP3    H150454   6.409   2.286   0.805
 8825TIP3    H250455   6.551   2.267   0.858
 8826TIP3   OH250456   5.984   2.440   0.663
 8826TIP3    H150457   5.896   2.456   0.623
 8826TIP3    H250458   6.012   2.357   0.621
 8827TIP3   OH250459   6.347   2.447   0.429
 8827TIP3    H150460   6.443   2.456   0.443
 8827TIP3    H250461   6.324   2.512   0.360
 8828TIP3   OH250462   6.945   2.210   1.099
 8828TIP3    H150463   6.877   2.213   1.170
 8828TIP3    H250464   6.893   2.182   1.021
 8829TIP3   OH250465   6.213   2.573   0.189
 8829TIP3    H150466   6.166   2.524   0.120
 8829TIP3    H250467   6.298   2.581   0.143
 8830TIP3   OH250468   7.263   3.771   1.733
 8830TIP3    H150469   7.290   3.811   1.648
 8830TIP3    H250470   7.335   3.804   1.789
 8831TIP3   OH250471   6.031   3.020   1.690
 8831TIP3    H150472   6.104   3.044   1.750
 8831TIP3    H250473   5.955   3.026   1.751
 8832TIP3   OH250474   6.631   2.561   0.965
 8832TIP3    H150475   6.692   2.508   0.912
 8832TIP3    H250476   6.617   2.506   1.043
 8833TIP3   OH250477   6.133   2.175   0.611
 8833TIP3    H150478   6.101   2.083   0.609
 8833TIP3    H250479   6.210   2.168   0.554
 8834TIP3   OH250480   6.496   2.393   1.207
 8834TIP3    H150481   6.413   2.446   1.215
 8834TIP3    H250482   6.551   2.429   1.278
 8835TIP3   OH250483   6.555   3.013   0.378
 8835TIP3    H150484   6.474   2.969   0.343
 8835TIP3    H250485   6.530   3.029   0.471
 8836TIP3   OH250486   7.274   2.937   1.257
 8836TIP3    H150487   7.329   2.986   1.192
 8836TIP3    H250488   7.188   2.940   1.211
 8837TIP3   OH250489   6.939   2.319   0.164
 8837TIP3    H150490   6.843   2.304   0.182
 8837TIP3    H250491   6.965   2.376   0.240
 8838TIP3   OH250492   6.704   3.044   1.501
 8838TIP3    H150493   6.669   3.000   1.579
 8838TIP3    H250494   6.677   3.136   1.513
 8839TIP3   OH250495   7.020   2.485   0.344
 8839TIP3    H150496   7.096   2.477   0.407
 8839TIP3    H250497   7.015   2.581   0.324
 8840TIP3   OH250498   6.066   2.957   0.957
 8840TIP3    H150499   6.133   2.947   0.887
 8840TIP3    H250500   6.071   2.871   1.002
 8841TIP3   OH250501   6.764   3.162   0.281
 8841TIP3    H150502   6.729   3.247   0.313
 8841TIP3    H250503   6.690   3.101   0.301
 8842TIP3   OH250504   5.764   2.795   1.482
 8842TIP3    H150505   5.781   2.751   1.568
 8842TIP3    H250506   5.702   2.735   1.438
 8843TIP3   OH250507   6.466   2.752   1.699
 8843TIP3    H150508   6.433   2.719   1.614
 8843TIP3    H250509   6.558   2.718   1.699
 8844TIP3   OH250510   6.935   3.286   1.496
 8844TIP3    H150511   6.843   3.303   1.473
 8844TIP3    H250512   6.931   3.315   1.590
 8845TIP3   OH250513   7.495   2.502   0.339
 8845TIP3    H150514   7.449   2.472   0.259
 8845TIP3    H250515   7.512   2.595   0.311
 8846TIP3   OH250516   7.500   3.089   1.614
 8846TIP3    H150517   7.410   3.112   1.578
 8846TIP3    H250518   7.554   3.085   1.533
 8847TIP3   OH250519   7.336   3.384   0.376
 8847TIP3    H150520   7.294   3.303   0.407
 8847TIP3    H250521   7.358   3.367   0.282
 8848TIP3   OH250522   7.052   2.868   1.085
 8848TIP3    H150523   6.958   2.848   1.073
 8848TIP3    H250524   7.095   2.792   1.040
 8849TIP3   OH250525   6.303   3.301   0.695
 8849TIP3    H150526   6.352   3.382   0.675
 8849TIP3    H250527   6.215   3.324   0.662
 8850TIP3   OH250528   5.877   2.787   0.145
 8850TIP3    H150529   5.937   2.846   0.195
 8850TIP3    H250530   5.790   2.816   0.179
 8851TIP3   OH250531   6.444   3.067   0.647
 8851TIP3    H150532   6.411   3.159   0.655
 8851TIP3    H250533   6.373   3.017   0.692
 8852TIP3   OH250534   6.489   3.487   1.289
 8852TIP3    H150535   6.536   3.566   1.259
 8852TIP3    H250536   6.551   3.451   1.355
 8853TIP3   OH250537   6.311   3.566   0.601
 8853TIP3    H150538   6.215   3.581   0.613
 8853TIP3    H250539   6.348   3.650   0.632
 8854TIP3   OH250540   6.840   3.084   1.249
 8854TIP3    H150541   6.809   3.066   1.340
 8854TIP3    H250542   6.905   3.014   1.232
 8855TIP3   OH250543   7.069   3.190   0.159
 8855TIP3    H150544   7.106   3.147   0.238
 8855TIP3    H250545   6.975   3.172   0.174
 8856TIP3   OH250546   7.124   3.544   1.498
 8856TIP3    H150547   7.054   3.495   1.451
 8856TIP3    H250548   7.142   3.614   1.431
 8857TIP3   OH250549   7.521   3.631   0.183
 8857TIP3    H150550   7.593   3.694   0.166
 8857TIP3    H250551   7.449   3.692   0.211
 8858TIP3   OH250552   5.930   2.269   1.437
 8858TIP3    H150553   5.839   2.304   1.436
 8858TIP3    H250554   5.919   2.185   1.484
 8859TIP3   OH250555   7.153   3.058   0.388
 8859TIP3    H150556   7.129   2.978   0.438
 8859TIP3    H250557   7.249   3.058   0.400
 8860TIP3   OH250558   5.890   3.447   1.280
 8860TIP3    H150559   5.922   3.355   1.281
 8860TIP3    H250560   5.917   3.477   1.367
 8861TIP3   OH250561   6.363   3.255   0.254
 8861TIP3    H150562   6.396   3.203   0.328
 8861TIP3    H250563   6.375   3.347   0.286
 8862TIP3   OH250564   6.016   2.979   0.299
 8862TIP3    H150565   5.947   3.018   0.356
 8862TIP3    H250566   6.072   3.055   0.276
 8863TIP3   OH250567   6.803   2.247   1.335
 8863TIP3    H150568   6.875   2.253   1.399
 8863TIP3    H250569   6.765   2.159   1.356
 8864TIP3   OH250570   6.877   2.203   0.444
 8864TIP3    H150571   6.901   2.250   0.365
 8864TIP3    H250572   6.933   2.246   0.511
 8865TIP3   OH250573   6.643   3.417   0.320
 8865TIP3    H150574   6.564   3.473   0.336
 8865TIP3    H250575   6.700   3.472   0.265
 8866TIP3   OH250576   6.600   2.378   0.525
 8866TIP3    H150577   6.678   2.437   0.528
 8866TIP3    H250578   6.573   2.366   0.619
 8867TIP3   OH250579   6.656   2.481   1.444
 8867TIP3    H150580   6.663   2.536   1.525
 8867TIP3    H250581   6.722   2.412   1.453
 8868TIP3   OH250582   6.685   2.083   0.611
 8868TIP3    H150583   6.652   2.147   0.677
 8868TIP3    H250584   6.754   2.138   0.567
 8869TIP3   OH250585   6.383   3.525   0.329
 8869TIP3    H150586   6.399   3.607   0.276
 8869TIP3    H250587   6.357   3.560   0.416
 8870TIP3   OH250588   6.248   2.196   0.295
 8870TIP3    H150589   6.246   2.289   0.324
 8870TIP3    H250590   6.341   2.170   0.313
 8871TIP3   OH250591   7.273   2.267   1.528
 8871TIP3    H150592   7.180   2.300   1.515
 8871TIP3    H250593   7.303   2.266   1.436
 8872TIP3   OH250594   7.135   2.646   0.927
 8872TIP3    H150595   7.053   2.602   0.902
 8872TIP3    H250596   7.183   2.578   0.980
 8873TIP3   OH250597   6.077   3.237   0.189
 8873TIP3    H150598   6.143   3.300   0.222
 8873TIP3    H250599   6.126   3.193   0.118
 8874TIP3   OH250600   5.908   2.507   0.104
 8874TIP3    H150601   5.909   2.603   0.122
 8874TIP3    H250602   5.819   2.490   0.071
 8875TIP3   OH250603   7.241   3.573   1.095
 8875TIP3    H150604   7.233   3.641   1.025
 8875TIP3    H250605   7.337   3.578   1.113
 8876TIP3   OH250606   5.990   1.985   0.978
 8876TIP3    H150607   5.972   1.986   0.881
 8876TIP3    H250608   5.949   1.899   1.002
 8877TIP3   OH250609   5.887   3.377   0.592
 8877TIP3    H150610   5.800   3.418   0.585
 8877TIP3    H250611   5.932   3.422   0.519
 8878TIP3   OH250612   5.805   3.642   1.719
 8878TIP3    H150613   5.866   3.623   1.793
 8878TIP3    H250614   5.766   3.555   1.701
 8879TIP3   OH250615   6.275   3.534   1.880
 8879TIP3    H150616   6.350   3.484   1.913
 8879TIP3    H250617   6.272   3.506   1.786
 8880TIP3   OH250618   6.694   3.496   0.048
 8880TIP3    H150619   6.624   3.431   0.064
 8880TIP3    H250620   6.764   3.445   0.005
 8881TIP3   OH250621   6.923   3.373   1.756
 8881TIP3    H150622   6.892   3.284   1.783
 8881TIP3    H250623   7.001   3.385   1.814
 8882TIP3   OH250624   7.166   3.454   0.095
 8882TIP3    H150625   7.178   3.358   0.093
 8882TIP3    H250626   7.198   3.484   0.008
 8883TIP3   OH250627   5.796   3.019   1.819
 8883TIP3    H150628   5.813   2.928   1.790
 8883TIP3    H250629   5.722   3.045   1.761
 8884TIP3   OH250630   6.217   3.037   0.022
 8884TIP3    H150631   6.248   2.969   0.085
 8884TIP3    H250632   6.295   3.043  -0.036
 8885TIP3   OH250633   6.468   3.018   1.757
 8885TIP3    H150634   6.435   3.050   1.671
 8885TIP3    H250635   6.475   2.921   1.746
 8886TIP3   OH250636   7.038   3.004   1.497
 8886TIP3    H150637   7.117   3.061   1.492
 8886TIP3    H250638   6.968   3.071   1.500
 8887TIP3   OH250639   5.890   2.742   1.757
 8887TIP3    H150640   5.932   2.656   1.749
 8887TIP3    H250641   5.867   2.743   1.852
 8888TIP3   OH250642   6.353   2.858   0.262
 8888TIP3    H150643   6.303   2.804   0.326
 8888TIP3    H250644   6.385   2.789   0.200
 8889TIP3   OH250645   6.279   2.636   1.492
 8889TIP3    H150646   6.219   2.708   1.517
 8889TIP3    H250647   6.319   2.673   1.412
 8890TIP3   OH250648   6.464   2.676   0.090
 8890TIP3    H150649   6.439   2.672  -0.005
 8890TIP3    H250650   6.560   2.691   0.093
 8891TIP3   OH250651   6.787   2.894   1.827
 8891TIP3    H150652   6.882   2.891   1.812
 8891TIP3    H250653   6.770   2.817   1.883
 8892TIP3   OH250654   7.390   2.906  11.008
 8892TIP3    H150655   7.377   2.872  10.920
 8892TIP3    H250656   7.399   3.002  10.989
 8893TIP3   OH250657   6.320   2.374   1.597
 8893TIP3    H150658   6.331   2.303   1.530
 8893TIP3    H250659   6.315   2.455   1.543
 8894TIP3   OH250660   6.360   2.212   1.354
 8894TIP3    H150661   6.411   2.259   1.283
 8894TIP3    H250662   6.271   2.205   1.314
 8895TIP3   OH250663   6.514   2.762   1.378
 8895TIP3    H150664   6.589   2.745   1.321
 8895TIP3    H250665   6.477   2.845   1.343
 8896TIP3   OH250666   6.953   2.536   1.873
 8896TIP3    H150667   6.977   2.442   1.864
 8896TIP3    H250668   7.039   2.581   1.877
 8897TIP3   OH250669   7.088   2.816   1.691
 8897TIP3    H150670   7.063   2.888   1.629
 8897TIP3    H250671   7.184   2.813   1.672
 8898TIP3   OH250672   6.166   2.499   1.790
 8898TIP3    H150673   6.089   2.441   1.774
 8898TIP3    H250674   6.231   2.462   1.727
 8899TIP3   OH250675   6.439   1.956   1.391
 8899TIP3    H150676   6.420   2.052   1.382
 8899TIP3    H250677   6.364   1.919   1.341
 8900TIP3   OH250678   6.566   2.389   1.756
 8900TIP3    H150679   6.534   2.365   1.845
 8900TIP3    H250680   6.488   2.368   1.701
 8901TIP3   OH250681   6.838   2.304   1.666
 8901TIP3    H150682   6.742   2.309   1.676
 8901TIP3    H250683   6.864   2.239   1.735
 8902TIP3   OH250684   6.996   2.165   1.853
 8902TIP3    H150685   6.992   2.067   1.857
 8902TIP3    H250686   6.972   2.194   1.944
 8903TIP3   OH250687   5.974   2.294   1.766
 8903TIP3    H150688   5.998   2.220   1.708
 8903TIP3    H250689   5.964   2.249   1.853
 8904TIP3   OH250690   6.460   1.896   1.662
 8904TIP3    H150691   6.528   1.826   1.661
 8904TIP3    H250692   6.449   1.909   1.566
 8905TIP3   OH250693   6.497   2.056   1.875
 8905TIP3    H150694   6.479   2.005   1.792
 8905TIP3    H250695   6.437   2.133   1.865
 8906TIP3   OH250696   6.443   3.752   0.195
 8906TIP3    H150697   6.541   3.758   0.199
 8906TIP3    H250698   6.423   3.813   0.123
 8907TIP3   OH250699   5.806   3.204   0.140
 8907TIP3    H150700   5.902   3.216   0.158
 8907TIP3    H250701   5.808   3.146   0.063
 8908TIP3   OH250702   5.665   3.742   0.638
 8908TIP3    H150703   5.618   3.680   0.580
 8908TIP3    H250704   5.709   3.681   0.701
 8909TIP3   OH250705   5.754   3.560   0.823
 8909TIP3    H150706   5.726   3.469   0.843
 8909TIP3    H250707   5.785   3.589   0.911
 8910TIP3   OH250708   7.507   3.639   1.115
 8910TIP3    H150709   7.517   3.651   1.211
 8910TIP3    H250710   7.581   3.692   1.084
 8911TIP3   OH250711   7.472   3.596   1.410
 8911TIP3    H150712   7.423   3.520   1.372
 8911TIP3    H250713   7.520   3.550   1.482
 8912TIP3   OH250714   7.315   3.169   1.878
 8912TIP3    H150715   7.224   3.167   1.914
 8912TIP3    H250716   7.352   3.249   1.918
 8913TIP3   OH250717   7.449   3.000   0.419
 8913TIP3    H150718   7.534   3.041   0.442
 8913TIP3    H250719   7.444   2.930   0.488
 8914TIP3   OH250720   7.480   2.809   0.608
 8914TIP3    H150721   7.405   2.760   0.648
 8914TIP3    H250722   7.540   2.821   0.684
 8915TIP3   OH250723   7.457   3.078   1.107
 8915TIP3    H150724   7.538   3.040   1.069
 8915TIP3    H250725   7.472   3.173   1.090
 8916TIP3   OH250726   7.314   3.370   1.334
 8916TIP3    H150727   7.245   3.404   1.393
 8916TIP3    H250728   7.260   3.330   1.263
 8917TIP3   OH250729   7.507   2.789   0.245
 8917TIP3    H150730   7.452   2.830   0.174
 8917TIP3    H250731   7.502   2.861   0.311
 8918TIP3   OH250732   7.367   2.518   0.089
 8918TIP3    H150733   7.364   2.586   0.020
 8918TIP3    H250734   7.350   2.433   0.043
 8919TIP3   OH250735   7.264   2.656   0.664
 8919TIP3    H150736   7.251   2.560   0.664
 8919TIP3    H250737   7.233   2.678   0.754
 8920TIP3   OH250738   5.765   2.866   1.073
 8920TIP3    H150739   5.782   2.857   0.976
 8920TIP3    H250740   5.854   2.847   1.107
 8921TIP3   OH250741   7.351   2.853   1.636
 8921TIP3    H150742   7.412   2.777   1.648
 8921TIP3    H250743   7.411   2.930   1.635
 8922TIP3   OH250744   7.501   2.641   1.700
 8922TIP3    H150745   7.413   2.601   1.685
 8922TIP3    H250746   7.559   2.562   1.693
 8923TIP3   OH250747   7.251   2.257   0.121
 8923TIP3    H150748   7.337   2.215   0.094
 8923TIP3    H250749   7.198   2.216   0.051
 8924TIP3   OH250750   7.227   2.415   0.501
 8924TIP3    H150751   7.258   2.324   0.523
 8924TIP3    H250752   7.312   2.455   0.478
 8925TIP3   OH250753   7.295   2.470   1.056
 8925TIP3    H150754   7.391   2.492   1.055
 8925TIP3    H250755   7.277   2.483   1.151
 8926TIP3   OH250756   7.301   2.540   1.335
 8926TIP3    H150757   7.213   2.570   1.365
 8926TIP3    H250758   7.345   2.626   1.312
 8927TIP3   OH250759   5.727   2.396   1.689
 8927TIP3    H150760   5.821   2.373   1.707
 8927TIP3    H250761   5.681   2.313   1.714
 8928TIP3   OH250762   7.530   1.949   1.868
 8928TIP3    H150763   7.565   1.882   1.806
 8928TIP3    H250764   7.539   2.030   1.814
 8929TIP3   OH250765   7.296   2.146   0.516
 8929TIP3    H150766   7.322   2.103   0.600
 8929TIP3    H250767   7.238   2.079   0.474
 8930TIP3   OH250768   5.847   2.225   0.973
 8930TIP3    H150769   5.892   2.142   0.997
 8930TIP3    H250770   5.903   2.293   1.011
 8931TIP3   OH250771   5.675   2.525   1.076
 8931TIP3    H150772   5.731   2.499   1.000
 8931TIP3    H250773   5.723   2.605   1.103
 8932TIP3   OH250774   7.481   2.158   1.703
 8932TIP3    H150775   7.387   2.186   1.698
 8932TIP3    H250776   7.483   2.102   1.624
 8933TIP3   OH250777   7.487   2.148   0.169
 8933TIP3    H150778   7.530   2.077   0.119
 8933TIP3    H250779   7.558   2.212   0.185
 8934TIP3   OH250780   5.710   2.151   0.485
 8934TIP3    H150781   5.616   2.168   0.469
 8934TIP3    H250782   5.753   2.200   0.413
 8935TIP3   OH250783   7.184   3.644   0.679
 8935TIP3    H150784   7.252   3.616   0.615
 8935TIP3    H250785   7.236   3.695   0.743
 8936TIP3   OH250786   5.706   2.015   1.312
 8936TIP3    H150787   5.640   1.996   1.381
 8936TIP3    H250788   5.660   2.083   1.259
 8937TIP3   OH250789   5.931   3.334   1.728
 8937TIP3    H150790   5.847   3.358   1.685
 8937TIP3    H250791   5.904   3.327   1.820
 8938TIP3   OH250792   6.220   3.437   1.357
 8938TIP3    H150793   6.189   3.524   1.330
 8938TIP3    H250794   6.313   3.444   1.327
 8939TIP3   OH250795   6.652   3.579   1.646
 8939TIP3    H150796   6.665   3.543   1.737
 8939TIP3    H250797   6.742   3.609   1.623
 8940TIP3   OH250798   6.881   3.705   1.578
 8940TIP3    H150799   6.954   3.648   1.555
 8940TIP3    H250800   6.918   3.750   1.658
 8941TIP3   OH250801   7.383   1.967   1.490
 8941TIP3    H150802   7.301   1.997   1.449
 8941TIP3    H250803   7.399   1.884   1.439
 8942TIP3   OH250804   5.962   3.761   1.355
 8942TIP3    H150805   5.889   3.811   1.316
 8942TIP3    H250806   5.932   3.742   1.445
 8943TIP3   OH250807   6.209   3.717   1.263
 8943TIP3    H150808   6.120   3.734   1.302
 8943TIP3    H250809   6.205   3.776   1.186
 8944TIP3   OH250810   6.680   3.709   1.180
 8944TIP3    H150811   6.634   3.765   1.116
 8944TIP3    H250812   6.693   3.772   1.254
 8945TIP3   OH250813   6.908   3.588   1.285
 8945TIP3    H150814   6.824   3.618   1.246
 8945TIP3    H250815   6.958   3.671   1.275
 8946TIP3   OH250816   7.166   3.745   1.305
 8946TIP3    H150817   7.163   3.841   1.282
 8946TIP3    H250818   7.189   3.708   1.217
 8947TIP3   OH250819   5.909   3.625   1.051
 8947TIP3    H150820   5.900   3.579   1.137
 8947TIP3    H250821   5.991   3.586   1.012
 8948TIP3   OH250822   6.116   3.496   0.916
 8948TIP3    H150823   6.101   3.403   0.940
 8948TIP3    H250824   6.202   3.512   0.960
 8949TIP3   OH250825   6.377   3.545   1.004
 8949TIP3    H150826   6.392   3.452   0.978
 8949TIP3    H250827   6.382   3.539   1.101
 8950TIP3   OH250828   6.722   2.110   0.914
 8950TIP3    H150829   6.655   2.047   0.946
 8950TIP3    H250830   6.778   2.054   0.859
 8951TIP3   OH250831   7.236   1.913   0.922
 8951TIP3    H150832   7.297   1.973   0.872
 8951TIP3    H250833   7.147   1.950   0.901
 8952TIP3   OH250834   7.402   2.040   0.749
 8952TIP3    H150835   7.471   1.981   0.709
 8952TIP3    H250836   7.454   2.123   0.762
 8953TIP3   OH250837   5.959   1.971   0.704
 8953TIP3    H150838   5.880   1.954   0.650
 8953TIP3    H250839   6.005   1.885   0.696
 8954TIP3   OH250840   5.839   1.947   0.280
 8954TIP3    H150841   5.883   2.012   0.223
 8954TIP3    H250842   5.782   2.004   0.335
 8955TIP3   OH250843   6.405   1.964   0.681
 8955TIP3    H150844   6.495   2.000   0.672
 8955TIP3    H250845   6.403   1.942   0.774
 8956TIP3   OH250846   6.979   1.966   0.843
 8956TIP3    H150847   6.972   1.978   0.747
 8956TIP3    H250848   6.939   1.876   0.856
 8957TIP3   OH250849   7.104   1.970   0.408
 8957TIP3    H150850   7.027   2.028   0.398
 8957TIP3    H250851   7.063   1.884   0.430
 8958TIP3   OH250852   5.825   3.543   0.376
 8958TIP3    H150853   5.759   3.544   0.304
 8958TIP3    H250854   5.833   3.639   0.390
 8959TIP3   OH250855   6.017   2.135   0.130
 8959TIP3    H150856   6.075   2.080   0.077
 8959TIP3    H250857   6.084   2.178   0.187
 8960TIP3   OH250858   6.527   2.166   0.360
 8960TIP3    H150859   6.547   2.108   0.435
 8960TIP3    H250860   6.529   2.251   0.410
 8961TIP3   OH250861   6.712   3.687   0.213
 8961TIP3    H150862   6.807   3.696   0.196
 8961TIP3    H250863   6.693   3.627   0.137
 8962TIP3   OH250864   7.384   3.625   0.481
 8962TIP3    H150865   7.364   3.546   0.425
 8962TIP3    H250866   7.375   3.698   0.416
 8963TIP3   OH250867   5.947   2.026   1.647
 8963TIP3    H150868   5.907   1.946   1.687
 8963TIP3    H250869   6.038   2.021   1.686
 8964TIP3   OH250870   6.147   1.965   1.813
 8964TIP3    H150871   6.236   1.931   1.791
 8964TIP3    H250872   6.110   1.884   1.852
 8965TIP3   OH250873   6.006   3.634   0.070
 8965TIP3    H150874   5.979   3.669   0.156
 8965TIP3    H250875   6.087   3.586   0.089
 8966TIP3   OH250876   6.987   1.892   1.827
 8966TIP3    H150877   6.997   1.845   1.912
 8966TIP3    H250878   7.079   1.889   1.793
 8967TIP3   OH250879   7.308   3.498   1.689
 8967TIP3    H150880   7.228   3.485   1.634
 8967TIP3    H250881   7.296   3.593   1.709
 8968TIP3   OH250882   7.871   2.781   1.195
 8968TIP3    H150883   7.885   2.709   1.260
 8968TIP3    H250884   7.951   2.833   1.213
 8969TIP3   OH250885   7.947   3.210   1.058
 8969TIP3    H150886   7.931   3.127   1.010
 8969TIP3    H250887   8.045   3.214   1.050
 8970TIP3   OH250888   7.627   2.578   0.592
 8970TIP3    H150889   7.586   2.667   0.585
 8970TIP3    H250890   7.571   2.525   0.536
 8971TIP3   OH250891   7.702   2.803   0.807
 8971TIP3    H150892   7.729   2.720   0.852
 8971TIP3    H250893   7.772   2.813   0.741
 8972TIP3   OH250894   7.762   2.546   0.912
 8972TIP3    H150895   7.833   2.495   0.957
 8972TIP3    H250896   7.781   2.517   0.821
 8973TIP3   OH250897   7.974   2.195   1.239
 8973TIP3    H150898   7.963   2.259   1.165
 8973TIP3    H250899   7.917   2.228   1.310
 8974TIP3   OH250900   7.940   2.368   1.036
 8974TIP3    H150901   7.994   2.441   1.077
 8974TIP3    H250902   7.999   2.339   0.964
 8975TIP3   OH250903   8.072   3.197   1.348
 8975TIP3    H150904   8.064   3.283   1.308
 8975TIP3    H250905   7.986   3.178   1.391
 8976TIP3   OH250906   7.699   3.122   0.428
 8976TIP3    H150907   7.679   3.155   0.338
 8976TIP3    H250908   7.706   3.206   0.478
 8977TIP3   OH250909   7.936   2.829   1.476
 8977TIP3    H150910   7.946   2.893   1.547
 8977TIP3    H250911   7.843   2.839   1.453
 8978TIP3   OH250912   8.076   3.416   1.636
 8978TIP3    H150913   8.072   3.403   1.541
 8978TIP3    H250914   7.981   3.404   1.660
 8979TIP3   OH250915   8.017   2.803   0.483
 8979TIP3    H150916   7.992   2.881   0.430
 8979TIP3    H250917   7.951   2.738   0.460
 8980TIP3   OH250918   7.628   3.042   1.376
 8980TIP3    H150919   7.586   3.033   1.289
 8980TIP3    H250920   7.641   2.947   1.397
 8981TIP3   OH250921   7.607   3.316   1.054
 8981TIP3    H150922   7.703   3.305   1.050
 8981TIP3    H250923   7.601   3.399   1.102
 8982TIP3   OH250924   7.922   3.594   0.672
 8982TIP3    H150925   7.939   3.555   0.759
 8982TIP3    H250926   7.836   3.553   0.650
 8983TIP3   OH250927   7.848   3.178   1.475
 8983TIP3    H150928   7.878   3.133   1.557
 8983TIP3    H250929   7.767   3.130   1.448
 8984TIP3   OH250930   7.899   2.545   1.359
 8984TIP3    H150931   7.903   2.583   1.448
 8984TIP3    H250932   7.861   2.458   1.376
 8985TIP3   OH250933   7.563   2.252   0.756
 8985TIP3    H150934   7.631   2.249   0.827
 8985TIP3    H250935   7.611   2.218   0.678
 8986TIP3   OH250936   7.687   2.327   0.287
 8986TIP3    H150937   7.742   2.389   0.236
 8986TIP3    H250938   7.622   2.389   0.326
 8987TIP3   OH250939   7.866   2.445   0.661
 8987TIP3    H150940   7.777   2.454   0.623
 8987TIP3    H250941   7.899   2.358   0.632
 8988TIP3   OH250942   7.915   3.028   1.687
 8988TIP3    H150943   7.985   3.046   1.750
 8988TIP3    H250944   7.837   3.030   1.747
 8989TIP3   OH250945   7.968   2.170   0.589
 8989TIP3    H150946   7.964   2.076   0.617
 8989TIP3    H250947   8.065   2.178   0.582
 8990TIP3   OH250948   7.946   2.956   0.949
 8990TIP3    H150949   8.023   2.950   0.890
 8990TIP3    H250950   7.956   2.874   1.002
 8991TIP3   OH250951   7.651   2.795   1.483
 8991TIP3    H150952   7.666   2.750   1.568
 8991TIP3    H250953   7.588   2.736   1.438
 8992TIP3   OH250954   7.766   2.783   0.153
 8992TIP3    H150955   7.823   2.851   0.192
 8992TIP3    H250956   7.677   2.817   0.178
 8993TIP3   OH250957   7.813   2.270   1.442
 8993TIP3    H150958   7.722   2.303   1.431
 8993TIP3    H250959   7.800   2.182   1.483
 8994TIP3   OH250960   7.784   3.446   1.277
 8994TIP3    H150961   7.799   3.352   1.284
 8994TIP3    H250962   7.800   3.478   1.367
 8995TIP3   OH250963   7.905   2.978   0.300
 8995TIP3    H150964   7.834   3.020   0.353
 8995TIP3    H250965   7.956   3.055   0.268
 8996TIP3   OH250966   7.956   3.248   0.202
 8996TIP3    H150967   8.030   3.305   0.223
 8996TIP3    H250968   7.998   3.196   0.128
 8997TIP3   OH250969   7.797   2.506   0.112
 8997TIP3    H150970   7.795   2.604   0.117
 8997TIP3    H250971   7.714   2.485   0.071
 8998TIP3   OH250972   7.873   1.986   0.979
 8998TIP3    H150973   7.862   1.988   0.881
 8998TIP3    H250974   7.836   1.899   1.003
 8999TIP3   OH250975   7.765   3.377   0.591
 8999TIP3    H150976   7.681   3.425   0.585
 8999TIP3    H250977   7.817   3.421   0.522
 9000TIP3   OH250978   7.689   3.642   1.719
 9000TIP3    H150979   7.749   3.623   1.793
 9000TIP3    H250980   7.650   3.554   1.701
 9001TIP3   OH250981   7.683   3.019   1.819
 9001TIP3    H150982   7.697   2.927   1.790
 9001TIP3    H250983   7.608   3.044   1.762
 9002TIP3   OH250984   7.776   2.743   1.758
 9002TIP3    H150985   7.817   2.656   1.746
 9002TIP3    H250986   7.755   2.742   1.852
 9003TIP3   OH250987   8.038   2.516   1.802
 9003TIP3    H150988   7.969   2.449   1.782
 9003TIP3    H250989   8.108   2.485   1.743
 9004TIP3   OH250990   7.859   2.292   1.765
 9004TIP3    H150991   7.882   2.217   1.706
 9004TIP3    H250992   7.853   2.250   1.853
 9005TIP3   OH250993   7.687   3.201   0.146
 9005TIP3    H150994   7.783   3.216   0.159
 9005TIP3    H250995   7.692   3.148   0.065
 9006TIP3   OH250996   7.561   3.743   0.635
 9006TIP3    H150997   7.488   3.694   0.590
 9006TIP3    H250998   7.591   3.679   0.702
 9007TIP3   OH250999   7.643   3.556   0.823
 9007TIP3    H151000   7.608   3.469   0.843
 9007TIP3    H251001   7.670   3.589   0.911
 9008TIP3   OH251002   7.652   2.870   1.070
 9008TIP3    H151003   7.673   2.855   0.975
 9008TIP3    H251004   7.739   2.847   1.108
 9009TIP3   OH251005   7.610   2.396   1.687
 9009TIP3    H151006   7.704   2.374   1.704
 9009TIP3    H251007   7.565   2.313   1.714
 9010TIP3   OH251008   7.729   2.224   0.973
 9010TIP3    H151009   7.780   2.143   0.993
 9010TIP3    H251010   7.790   2.292   1.006
 9011TIP3   OH251011   7.557   2.525   1.074
 9011TIP3    H151012   7.617   2.499   1.000
 9011TIP3    H251013   7.605   2.604   1.104
 9012TIP3   OH251014   7.596   2.147   0.482
 9012TIP3    H151015   7.502   2.167   0.470
 9012TIP3    H251016   7.636   2.202   0.413
 9013TIP3   OH251017   7.590   2.015   1.313
 9013TIP3    H151018   7.522   1.996   1.380
 9013TIP3    H251019   7.546   2.082   1.258
 9014TIP3   OH251020   7.813   3.336   1.729
 9014TIP3    H151021   7.730   3.359   1.683
 9014TIP3    H251022   7.784   3.326   1.820
 9015TIP3   OH251023   7.847   3.762   1.359
 9015TIP3    H151024   7.774   3.810   1.317
 9015TIP3    H251025   7.812   3.744   1.447
 9016TIP3   OH251026   8.073   3.683   1.233
 9016TIP3    H151027   8.008   3.720   1.296
 9016TIP3    H251028   8.095   3.766   1.188
 9017TIP3   OH251029   7.784   3.625   1.053
 9017TIP3    H151030   7.790   3.580   1.140
 9017TIP3    H251031   7.868   3.591   1.013
 9018TIP3   OH251032   7.982   3.495   0.932
 9018TIP3    H151033   7.977   3.399   0.945
 9018TIP3    H251034   8.073   3.508   0.966
 9019TIP3   OH251035   7.837   1.966   0.706
 9019TIP3    H151036   7.759   1.948   0.650
 9019TIP3    H251037   7.890   1.885   0.701
 9020TIP3   OH251038   7.722   1.948   0.278
 9020TIP3    H151039   7.768   2.014   0.223
 9020TIP3    H251040   7.667   2.003   0.336
 9021TIP3   OH251041   7.715   3.543   0.369
 9021TIP3    H151042   7.643   3.543   0.304
 9021TIP3    H251043   7.717   3.638   0.392
 9022TIP3   OH251044   7.904   2.128   0.133
 9022TIP3    H151045   7.963   2.081   0.072
 9022TIP3    H251046   7.967   2.179   0.185
 9023TIP3   OH251047   7.839   2.027   1.644
 9023TIP3    H151048   7.799   1.949   1.685
 9023TIP3    H251049   7.928   2.022   1.684
 9024TIP3   OH251050   8.030   1.960   1.811
 9024TIP3    H151051   8.120   1.930   1.787
 9024TIP3    H251052   7.994   1.880   1.853
 9025TIP3   OH251053   7.893   3.641   0.071
 9025TIP3    H151054   7.867   3.671   0.159
 9025TIP3    H251055   7.970   3.585   0.086
 9026TIP3   OH251056   1.212   4.772   0.685
 9026TIP3    H151057   1.209   4.870   0.684
 9026TIP3    H251058   1.137   4.748   0.628
 9027TIP3   OH251059   1.097   4.696   1.037
 9027TIP3    H151060   1.095   4.632   1.109
 9027TIP3    H251061   1.060   4.645   0.963
 9028TIP3   OH251062   0.346   4.656   1.183
 9028TIP3    H151063   0.339   4.597   1.261
 9028TIP3    H251064   0.407   4.723   1.217
 9029TIP3   OH251065   1.473   4.992   0.871
 9029TIP3    H151066   1.422   4.921   0.912
 9029TIP3    H251067   1.460   5.063   0.937
 9030TIP3   OH251068   0.422   5.110   1.039
 9030TIP3    H151069   0.393   5.020   1.013
 9030TIP3    H251070   0.517   5.092   1.046
 9031TIP3   OH251071   0.093   4.467   0.582
 9031TIP3    H151072   0.049   4.554   0.588
 9031TIP3    H251073   0.028   4.412   0.541
 9032TIP3   OH251074   0.159   4.684   0.806
 9032TIP3    H151075   0.185   4.602   0.852
 9032TIP3    H251076   0.228   4.695   0.739
 9033TIP3   OH251077   1.177   5.508   0.890
 9033TIP3    H151078   1.243   5.439   0.862
 9033TIP3    H251079   1.154   5.473   0.976
 9034TIP3   OH251080   0.934   4.936   1.087
 9034TIP3    H151081   0.967   4.874   1.020
 9034TIP3    H251082   1.016   4.953   1.137
 9035TIP3   OH251083   1.792   4.104   1.156
 9035TIP3    H151084   1.811   4.161   1.233
 9035TIP3    H251085   1.850   4.145   1.091
 9036TIP3   OH251086   1.251   4.384   1.117
 9036TIP3    H151087   1.268   4.288   1.118
 9036TIP3    H251088   1.240   4.397   1.021
 9037TIP3   OH251089   0.562   4.193   0.838
 9037TIP3    H151090   0.572   4.277   0.789
 9037TIP3    H251091   0.524   4.136   0.768
 9038TIP3   OH251092   1.335   4.199   0.674
 9038TIP3    H151093   1.400   4.169   0.742
 9038TIP3    H251094   1.392   4.257   0.621
 9039TIP3   OH251095   0.235   4.435   0.910
 9039TIP3    H151096   0.297   4.375   0.956
 9039TIP3    H251097   0.237   4.400   0.819
 9040TIP3   OH251098   0.739   4.589   0.844
 9040TIP3    H151099   0.807   4.531   0.882
 9040TIP3    H251100   0.689   4.524   0.792
 9041TIP3   OH251101   1.836   4.242   1.385
 9041TIP3    H151102   1.777   4.320   1.373
 9041TIP3    H251103   1.840   4.237   1.481
 9042TIP3   OH251104   0.456   4.082   1.240
 9042TIP3    H151105   0.425   4.141   1.168
 9042TIP3    H251106   0.389   4.103   1.310
 9043TIP3   OH251107   1.181   5.031   0.597
 9043TIP3    H151108   1.153   5.002   0.508
 9043TIP3    H251109   1.151   5.125   0.599
 9044TIP3   OH251110   0.706   4.847   1.265
 9044TIP3    H151111   0.635   4.910   1.288
 9044TIP3    H251112   0.776   4.907   1.235
 9045TIP3   OH251113   1.518   4.135   0.874
 9045TIP3    H151114   1.495   4.059   0.927
 9045TIP3    H251115   1.584   4.179   0.930
 9046TIP3   OH251116   0.414   4.265   1.047
 9046TIP3    H151117   0.473   4.337   1.077
 9046TIP3    H251118   0.465   4.228   0.970
 9047TIP3   OH251119   0.550   5.047   1.346
 9047TIP3    H151120   0.543   5.138   1.314
 9047TIP3    H251121   0.462   5.038   1.390
 9048TIP3   OH251122   0.154   5.008   0.423
 9048TIP3    H151123   0.131   5.043   0.336
 9048TIP3    H251124   0.164   5.088   0.478
 9049TIP3   OH251125   1.520   5.178   1.095
 9049TIP3    H151126   1.423   5.185   1.115
 9049TIP3    H251127   1.540   5.273   1.086
 9050TIP3   OH251128   1.551   4.004   1.241
 9050TIP3    H151129   1.478   4.067   1.231
 9050TIP3    H251130   1.622   4.046   1.189
 9051TIP3   OH251131   0.845   3.816   0.988
 9051TIP3    H151132   0.830   3.720   0.980
 9051TIP3    H251133   0.758   3.847   1.019
 9052TIP3   OH251134   1.349   5.352   0.768
 9052TIP3    H151135   1.383   5.282   0.709
 9052TIP3    H251136   1.387   5.432   0.725
 9053TIP3   OH251137   1.469   5.145   0.616
 9053TIP3    H151138   1.436   5.080   0.551
 9053TIP3    H251139   1.464   5.094   0.698
 9054TIP3   OH251140   1.626   5.007   1.462
 9054TIP3    H151141   1.641   4.940   1.393
 9054TIP3    H251142   1.647   5.091   1.418
 9055TIP3   OH251143   1.076   4.692   0.437
 9055TIP3    H151144   1.009   4.754   0.403
 9055TIP3    H251145   1.148   4.704   0.372
 9056TIP3   OH251146   1.084   4.550   0.142
 9056TIP3    H151147   1.155   4.554   0.208
 9056TIP3    H251148   1.114   4.478   0.087
 9057TIP3   OH251149   1.816   4.637   1.269
 9057TIP3    H151150   1.750   4.708   1.272
 9057TIP3    H251151   1.865   4.659   1.188
 9058TIP3   OH251152   1.423   4.717   0.533
 9058TIP3    H151153   1.347   4.740   0.592
 9058TIP3    H251154   1.470   4.649   0.585
 9059TIP3   OH251155   1.413   4.532   1.446
 9059TIP3    H151156   1.415   4.615   1.496
 9059TIP3    H251157   1.352   4.561   1.375
 9060TIP3   OH251158   0.584   4.782   0.724
 9060TIP3    H151159   0.549   4.742   0.640
 9060TIP3    H251160   0.645   4.712   0.757
 9061TIP3   OH251161   0.714   5.119   0.991
 9061TIP3    H151162   0.714   5.068   0.909
 9061TIP3    H251163   0.793   5.085   1.036
 9062TIP3   OH251164   0.618   4.655   1.089
 9062TIP3    H151165   0.670   4.666   1.008
 9062TIP3    H251166   0.653   4.724   1.150
 9063TIP3   OH251167   1.260   5.215   1.160
 9063TIP3    H151168   1.230   5.278   1.226
 9063TIP3    H251169   1.235   5.129   1.201
 9064TIP3   OH251170   0.711   5.100   1.559
 9064TIP3    H151171   0.668   5.173   1.609
 9064TIP3    H251172   0.644   5.080   1.489
 9065TIP3   OH251173   1.308   4.636   0.298
 9065TIP3    H151174   1.363   4.655   0.378
 9065TIP3    H251175   1.354   4.687   0.227
 9066TIP3   OH251176   0.403   4.712   1.476
 9066TIP3    H151177   0.410   4.784   1.541
 9066TIP3    H251178   0.308   4.723   1.453
 9067TIP3   OH251179   1.083   5.310   0.642
 9067TIP3    H151180   1.122   5.339   0.725
 9067TIP3    H251181   1.024   5.384   0.619
 9068TIP3   OH251182   0.537   5.302   1.634
 9068TIP3    H151183   0.528   5.294   1.537
 9068TIP3    H251184   0.443   5.289   1.661
 9069TIP3   OH251185   1.684   3.809   0.286
 9069TIP3    H151186   1.588   3.816   0.308
 9069TIP3    H251187   1.700   3.894   0.242
 9070TIP3   OH251188   0.484   4.683   0.480
 9070TIP3    H151189   0.450   4.762   0.434
 9070TIP3    H251190   0.416   4.618   0.463
 9071TIP3   OH251191   1.796   5.243   0.124
 9071TIP3    H151192   1.809   5.338   0.142
 9071TIP3    H251193   1.887   5.211   0.121
 9072TIP3   OH251194   0.141   4.884   1.351
 9072TIP3    H151195   0.065   4.920   1.303
 9072TIP3    H251196   0.095   4.815   1.402
 9073TIP3   OH251197   0.089   5.224   1.036
 9073TIP3    H151198   0.178   5.192   1.055
 9073TIP3    H251199   0.070   5.281   1.111
 9074TIP3   OH251200   1.888   5.272   1.622
 9074TIP3    H151201   1.876   5.176   1.619
 9074TIP3    H251202   1.801   5.297   1.660
 9075TIP3   OH251203   0.983   5.225   1.507
 9075TIP3    H151204   0.989   5.309   1.558
 9075TIP3    H251205   0.895   5.190   1.531
 9076TIP3   OH251206   1.027   5.600   0.488
 9076TIP3    H151207   1.019   5.595   0.391
 9076TIP3    H251208   1.031   5.696   0.504
 9077TIP3   OH251209   0.397   5.485   0.667
 9077TIP3    H151210   0.407   5.447   0.757
 9077TIP3    H251211   0.311   5.446   0.644
 9078TIP3   OH251212   1.329   5.517   0.192
 9078TIP3    H151213   1.383   5.447   0.148
 9078TIP3    H251214   1.340   5.491   0.286
 9079TIP3   OH251215   1.302   5.514   0.464
 9079TIP3    H151216   1.206   5.522   0.482
 9079TIP3    H251217   1.326   5.440   0.521
 9080TIP3   OH251218   1.603   4.418   1.668
 9080TIP3    H151219   1.555   4.463   1.596
 9080TIP3    H251220   1.601   4.326   1.638
 9081TIP3   OH251221   0.317   5.066   1.471
 9081TIP3    H151222   0.333   5.023   1.558
 9081TIP3    H251223   0.236   5.019   1.442
 9082TIP3   OH251224   0.586   3.908   1.061
 9082TIP3    H151225   0.495   3.895   1.027
 9082TIP3    H251226   0.571   3.990   1.113
 9083TIP3   OH251227   1.050   3.872   1.399
 9083TIP3    H151228   1.089   3.830   1.478
 9083TIP3    H251229   0.953   3.862   1.414
 9084TIP3   OH251230   1.378   4.259   1.490
 9084TIP3    H151231   1.321   4.237   1.568
 9084TIP3    H251232   1.360   4.351   1.467
 9085TIP3   OH251233   1.462   4.723   0.085
 9085TIP3    H151234   1.446   4.734  -0.010
 9085TIP3    H251235   1.538   4.781   0.092
 9086TIP3   OH251236   1.015   4.132   0.134
 9086TIP3    H151237   0.979   4.125   0.224
 9086TIP3    H251238   0.984   4.046   0.101
 9087TIP3   OH251239   0.596   4.405   1.191
 9087TIP3    H151240   0.521   4.404   1.254
 9087TIP3    H251241   0.590   4.495   1.152
 9088TIP3   OH251242   0.592   4.415   0.677
 9088TIP3    H151243   0.498   4.392   0.663
 9088TIP3    H251244   0.629   4.387   0.591
 9089TIP3   OH251245   1.143   4.465   0.550
 9089TIP3    H151246   1.105   4.549   0.515
 9089TIP3    H251247   1.212   4.449   0.484
 9090TIP3   OH251248   1.047   4.489   1.700
 9090TIP3    H151249   0.996   4.408   1.724
 9090TIP3    H251250   1.134   4.474   1.740
 9091TIP3   OH251251   1.247   4.416   0.837
 9091TIP3    H151252   1.218   4.472   0.764
 9091TIP3    H251253   1.256   4.331   0.791
 9092TIP3   OH251254   0.360   4.430   1.355
 9092TIP3    H151255   0.363   4.472   1.443
 9092TIP3    H251256   0.313   4.347   1.375
 9093TIP3   OH251257   0.698   4.077   0.058
 9093TIP3    H151258   0.658   4.100   0.143
 9093TIP3    H251259   0.645   4.143   0.010
 9094TIP3   OH251260   0.053   4.171   0.763
 9094TIP3    H151261   0.104   4.136   0.839
 9094TIP3    H251262   0.064   4.104   0.698
 9095TIP3   OH251263   0.150   4.222   0.290
 9095TIP3    H151264   0.204   4.278   0.233
 9095TIP3    H251265   0.083   4.282   0.324
 9096TIP3   OH251266   1.166   4.573   1.291
 9096TIP3    H151267   1.205   4.504   1.233
 9096TIP3    H251268   1.119   4.520   1.357
 9097TIP3   OH251269   0.847   4.172   0.776
 9097TIP3    H151270   0.754   4.171   0.804
 9097TIP3    H251271   0.895   4.153   0.858
 9098TIP3   OH251272   0.332   4.324   0.663
 9098TIP3    H151273   0.243   4.343   0.626
 9098TIP3    H251274   0.353   4.238   0.622
 9099TIP3   OH251275   0.690   4.333   0.430
 9099TIP3    H151276   0.787   4.341   0.443
 9099TIP3    H251277   0.667   4.398   0.361
 9100TIP3   OH251278   1.288   4.095   1.099
 9100TIP3    H151279   1.220   4.099   1.170
 9100TIP3    H251280   1.237   4.068   1.021
 9101TIP3   OH251281   0.556   4.459   0.189
 9101TIP3    H151282   0.511   4.410   0.119
 9101TIP3    H251283   0.642   4.466   0.143
 9102TIP3   OH251284   1.607   5.658   1.732
 9102TIP3    H151285   1.633   5.696   1.647
 9102TIP3    H251286   1.679   5.690   1.788
 9103TIP3   OH251287   0.379   4.902   1.692
 9103TIP3    H151288   0.452   4.929   1.751
 9103TIP3    H251289   0.302   4.912   1.750
 9104TIP3   OH251290   0.975   4.447   0.965
 9104TIP3    H151291   1.035   4.394   0.912
 9104TIP3    H251292   0.960   4.392   1.043
 9105TIP3   OH251293   0.479   4.061   0.612
 9105TIP3    H151294   0.443   3.970   0.609
 9105TIP3    H251295   0.557   4.053   0.555
 9106TIP3   OH251296   0.839   4.279   1.207
 9106TIP3    H151297   0.756   4.331   1.215
 9106TIP3    H251298   0.894   4.315   1.278
 9107TIP3   OH251299   0.898   4.899   0.378
 9107TIP3    H151300   0.817   4.854   0.343
 9107TIP3    H251301   0.873   4.914   0.471
 9108TIP3   OH251302   1.618   4.824   1.257
 9108TIP3    H151303   1.672   4.870   1.191
 9108TIP3    H251304   1.531   4.824   1.212
 9109TIP3   OH251305   1.282   4.190   0.180
 9109TIP3    H151306   1.185   4.194   0.183
 9109TIP3    H251307   1.315   4.266   0.233
 9110TIP3   OH251308   1.047   4.930   1.501
 9110TIP3    H151309   1.012   4.886   1.579
 9110TIP3    H251310   1.020   5.022   1.513
 9111TIP3   OH251311   1.351   4.376   0.362
 9111TIP3    H151312   1.441   4.359   0.396
 9111TIP3    H251313   1.363   4.457   0.309
 9112TIP3   OH251314   0.408   4.843   0.957
 9112TIP3    H151315   0.475   4.834   0.886
 9112TIP3    H251316   0.415   4.756   1.002
 9113TIP3   OH251317   1.108   5.048   0.281
 9113TIP3    H151318   1.072   5.133   0.313
 9113TIP3    H251319   1.034   4.986   0.301
 9114TIP3   OH251320   0.119   4.663   1.478
 9114TIP3    H151321   0.125   4.632   1.570
 9114TIP3    H251322   0.040   4.620   1.443
 9115TIP3   OH251323   0.810   4.638   1.701
 9115TIP3    H151324   0.776   4.606   1.616
 9115TIP3    H251325   0.901   4.604   1.697
 9116TIP3   OH251326   1.279   5.171   1.496
 9116TIP3    H151327   1.186   5.189   1.472
 9116TIP3    H251328   1.274   5.201   1.589
 9117TIP3   OH251329   1.847   4.387   0.334
 9117TIP3    H151330   1.784   4.360   0.263
 9117TIP3    H251331   1.850   4.482   0.310
 9118TIP3   OH251332   1.843   4.975   1.614
 9118TIP3    H151333   1.754   4.997   1.579
 9118TIP3    H251334   1.897   4.970   1.533
 9119TIP3   OH251335   1.681   5.269   0.378
 9119TIP3    H151336   1.635   5.188   0.404
 9119TIP3    H251337   1.702   5.254   0.284
 9120TIP3   OH251338   1.396   4.755   1.084
 9120TIP3    H151339   1.302   4.734   1.073
 9120TIP3    H251340   1.438   4.679   1.040
 9121TIP3   OH251341   0.647   5.186   0.695
 9121TIP3    H151342   0.696   5.267   0.675
 9121TIP3    H251343   0.559   5.209   0.662
 9122TIP3   OH251344   0.217   4.672   0.149
 9122TIP3    H151345   0.281   4.732   0.193
 9122TIP3    H251346   0.134   4.706   0.181
 9123TIP3   OH251347   0.787   4.953   0.647
 9123TIP3    H151348   0.755   5.045   0.655
 9123TIP3    H251349   0.716   4.903   0.691
 9124TIP3   OH251350   0.833   5.372   1.289
 9124TIP3    H151351   0.879   5.452   1.259
 9124TIP3    H251352   0.895   5.337   1.355
 9125TIP3   OH251353   0.655   5.451   0.600
 9125TIP3    H151354   0.559   5.466   0.613
 9125TIP3    H251355   0.692   5.536   0.632
 9126TIP3   OH251356   1.183   4.970   1.249
 9126TIP3    H151357   1.153   4.952   1.340
 9126TIP3    H251358   1.248   4.900   1.232
 9127TIP3   OH251359   1.412   5.075   0.159
 9127TIP3    H151360   1.449   5.032   0.238
 9127TIP3    H251361   1.319   5.058   0.174
 9128TIP3   OH251362   1.468   5.429   1.498
 9128TIP3    H151363   1.397   5.380   1.451
 9128TIP3    H251364   1.485   5.499   1.431
 9129TIP3   OH251365   1.865   5.516   0.184
 9129TIP3    H151366   1.936   5.579   0.165
 9129TIP3    H251367   1.793   5.577   0.211
 9130TIP3   OH251368   0.273   4.153   1.435
 9130TIP3    H151369   0.183   4.189   1.441
 9130TIP3    H251370   0.259   4.069   1.482
 9131TIP3   OH251371   1.496   4.942   0.387
 9131TIP3    H151372   1.472   4.862   0.438
 9131TIP3    H251373   1.592   4.943   0.397
 9132TIP3   OH251374   0.235   5.331   1.276
 9132TIP3    H151375   0.266   5.239   1.281
 9132TIP3    H251376   0.257   5.362   1.364
 9133TIP3   OH251377   0.706   5.141   0.254
 9133TIP3    H151378   0.739   5.088   0.328
 9133TIP3    H251379   0.718   5.233   0.285
 9134TIP3   OH251380   0.359   4.863   0.300
 9134TIP3    H151381   0.290   4.902   0.358
 9134TIP3    H251382   0.411   4.942   0.274
 9135TIP3   OH251383   1.146   4.132   1.335
 9135TIP3    H151384   1.218   4.138   1.399
 9135TIP3    H251385   1.108   4.045   1.356
 9136TIP3   OH251386   1.219   4.089   0.444
 9136TIP3    H151387   1.246   4.135   0.364
 9136TIP3    H251388   1.276   4.132   0.509
 9137TIP3   OH251389   0.986   5.303   0.320
 9137TIP3    H151390   0.907   5.359   0.336
 9137TIP3    H251391   1.043   5.358   0.265
 9138TIP3   OH251392   0.943   4.264   0.525
 9138TIP3    H151393   1.021   4.323   0.528
 9138TIP3    H251394   0.917   4.252   0.619
 9139TIP3   OH251395   0.999   4.367   1.444
 9139TIP3    H151396   1.006   4.423   1.524
 9139TIP3    H251397   1.065   4.297   1.453
 9140TIP3   OH251398   1.028   3.969   0.611
 9140TIP3    H151399   0.995   4.033   0.676
 9140TIP3    H251400   1.098   4.024   0.567
 9141TIP3   OH251401   0.727   5.410   0.329
 9141TIP3    H151402   0.743   5.492   0.276
 9141TIP3    H251403   0.700   5.446   0.416
 9142TIP3   OH251404   0.591   4.081   0.299
 9142TIP3    H151405   0.590   4.175   0.322
 9142TIP3    H251406   0.684   4.057   0.309
 9143TIP3   OH251407   1.616   4.153   1.528
 9143TIP3    H151408   1.523   4.185   1.515
 9143TIP3    H251409   1.646   4.151   1.436
 9144TIP3   OH251410   1.478   4.532   0.928
 9144TIP3    H151411   1.395   4.487   0.901
 9144TIP3    H251412   1.526   4.464   0.980
 9145TIP3   OH251413   0.420   5.125   0.187
 9145TIP3    H151414   0.487   5.186   0.222
 9145TIP3    H251415   0.471   5.078   0.119
 9146TIP3   OH251416   0.253   4.394   0.101
 9146TIP3    H151417   0.248   4.490   0.122
 9146TIP3    H251418   0.166   4.371   0.068
 9147TIP3   OH251419   1.586   5.455   1.090
 9147TIP3    H151420   1.574   5.529   1.027
 9147TIP3    H251421   1.680   5.468   1.115
 9148TIP3   OH251422   0.330   3.874   0.972
 9148TIP3    H151423   0.311   3.869   0.876
 9148TIP3    H251424   0.295   3.787   1.001
 9149TIP3   OH251425   0.229   5.260   0.590
 9149TIP3    H151426   0.146   5.307   0.587
 9149TIP3    H251427   0.278   5.308   0.522
 9150TIP3   OH251428   0.151   5.525   1.719
 9150TIP3    H151429   0.211   5.500   1.792
 9150TIP3    H251430   0.106   5.441   1.697
 9151TIP3   OH251431   0.620   5.419   1.879
 9151TIP3    H151432   0.695   5.368   1.913
 9151TIP3    H251433   0.615   5.391   1.786
 9152TIP3   OH251434   1.037   5.381   0.048
 9152TIP3    H151435   0.967   5.317   0.064
 9152TIP3    H251436   1.108   5.331   0.005
 9153TIP3   OH251437   1.267   5.258   1.755
 9153TIP3    H151438   1.235   5.170   1.783
 9153TIP3    H251439   1.344   5.270   1.814
 9154TIP3   OH251440   1.509   5.339   0.096
 9154TIP3    H151441   1.521   5.243   0.093
 9154TIP3    H251442   1.542   5.369   0.009
 9155TIP3   OH251443   0.140   4.909   1.822
 9155TIP3    H151444   0.158   4.818   1.790
 9155TIP3    H251445   0.071   4.934   1.761
 9156TIP3   OH251446   0.560   4.923   0.022
 9156TIP3    H151447   0.591   4.855   0.084
 9156TIP3    H251448   0.638   4.929  -0.036
 9157TIP3   OH251449   0.811   4.904   1.757
 9157TIP3    H151450   0.778   4.936   1.671
 9157TIP3    H251451   0.818   4.806   1.746
 9158TIP3   OH251452   1.381   4.889   1.497
 9158TIP3    H151453   1.460   4.947   1.492
 9158TIP3    H251454   1.312   4.957   1.500
 9159TIP3   OH251455   0.223   4.630   1.759
 9159TIP3    H151456   0.272   4.547   1.749
 9159TIP3    H251457   0.201   4.627   1.853
 9160TIP3   OH251458   0.696   4.744   0.263
 9160TIP3    H151459   0.647   4.689   0.325
 9160TIP3    H251460   0.728   4.675   0.199
 9161TIP3   OH251461   0.622   4.522   1.492
 9161TIP3    H151462   0.561   4.593   1.517
 9161TIP3    H251463   0.662   4.558   1.412
 9162TIP3   OH251464   0.805   4.567   0.090
 9162TIP3    H151465   0.785   4.551  -0.005
 9162TIP3    H251466   0.902   4.573   0.093
 9163TIP3   OH251467   1.130   4.781   1.830
 9163TIP3    H151468   1.225   4.778   1.810
 9163TIP3    H251469   1.113   4.700   1.880
 9164TIP3   OH251470   1.734   4.793  11.009
 9164TIP3    H151471   1.718   4.755  10.923
 9164TIP3    H251472   1.741   4.888  10.988
 9165TIP3   OH251473   0.667   4.260   1.597
 9165TIP3    H151474   0.673   4.189   1.531
 9165TIP3    H251475   0.656   4.341   1.543
 9166TIP3   OH251476   0.704   4.098   1.354
 9166TIP3    H151477   0.754   4.144   1.283
 9166TIP3    H251478   0.614   4.091   1.314
 9167TIP3   OH251479   0.858   4.649   1.379
 9167TIP3    H151480   0.932   4.631   1.321
 9167TIP3    H251481   0.820   4.731   1.343
 9168TIP3   OH251482   1.297   4.422   1.877
 9168TIP3    H151483   1.321   4.329   1.861
 9168TIP3    H251484   1.384   4.466   1.872
 9169TIP3   OH251485   1.431   4.702   1.691
 9169TIP3    H151486   1.406   4.773   1.629
 9169TIP3    H251487   1.527   4.698   1.672
 9170TIP3   OH251488   0.509   4.386   1.790
 9170TIP3    H151489   0.433   4.327   1.774
 9170TIP3    H251490   0.574   4.348   1.728
 9171TIP3   OH251491   0.783   3.842   1.391
 9171TIP3    H151492   0.764   3.938   1.383
 9171TIP3    H251493   0.708   3.804   1.341
 9172TIP3   OH251494   0.911   4.276   1.758
 9172TIP3    H151495   0.876   4.249   1.845
 9172TIP3    H251496   0.834   4.255   1.701
 9173TIP3   OH251497   1.182   4.190   1.666
 9173TIP3    H151498   1.085   4.195   1.676
 9173TIP3    H251499   1.207   4.125   1.734
 9174TIP3   OH251500   1.339   4.050   1.853
 9174TIP3    H151501   1.334   3.952   1.857
 9174TIP3    H251502   1.316   4.079   1.944
 9175TIP3   OH251503   0.325   4.178   1.768
 9175TIP3    H151504   0.345   4.105   1.707
 9175TIP3    H251505   0.310   4.132   1.853
 9176TIP3   OH251506   0.804   3.782   1.661
 9176TIP3    H151507   0.872   3.712   1.659
 9176TIP3    H251508   0.791   3.795   1.565
 9177TIP3   OH251509   0.840   3.942   1.875
 9177TIP3    H151510   0.822   3.891   1.792
 9177TIP3    H251511   0.780   4.019   1.865
 9178TIP3   OH251512   0.786   5.638   0.195
 9178TIP3    H151513   0.884   5.644   0.199
 9178TIP3    H251514   0.766   5.699   0.122
 9179TIP3   OH251515   0.150   5.089   0.139
 9179TIP3    H151516   0.247   5.105   0.156
 9179TIP3    H251517   0.155   5.029   0.064
 9180TIP3   OH251518   0.035   5.640   0.624
 9180TIP3    H151519  -0.046   5.592   0.595
 9180TIP3    H251520   0.054   5.579   0.698
 9181TIP3   OH251521   0.123   5.446   0.815
 9181TIP3    H151522   0.075   5.362   0.832
 9181TIP3    H251523   0.134   5.482   0.905
 9182TIP3   OH251524   1.858   5.519   1.114
 9182TIP3    H151525   1.859   5.538   1.210
 9182TIP3    H251526   1.925   5.582   1.085
 9183TIP3   OH251527   1.815   5.480   1.406
 9183TIP3    H151528   1.765   5.404   1.372
 9183TIP3    H251529   1.861   5.438   1.480
 9184TIP3   OH251530   1.658   5.054   1.878
 9184TIP3    H151531   1.567   5.052   1.914
 9184TIP3    H251532   1.695   5.135   1.918
 9185TIP3   OH251533   1.790   4.889   0.423
 9185TIP3    H151534   1.878   4.925   0.439
 9185TIP3    H251535   1.788   4.815   0.488
 9186TIP3   OH251536   1.824   4.697   0.610
 9186TIP3    H151537   1.750   4.643   0.645
 9186TIP3    H251538   1.885   4.705   0.686
 9187TIP3   OH251539   1.798   4.969   1.092
 9187TIP3    H151540   1.883   4.922   1.073
 9187TIP3    H251541   1.826   5.060   1.110
 9188TIP3   OH251542   1.657   5.255   1.332
 9188TIP3    H151543   1.591   5.290   1.394
 9188TIP3    H251544   1.600   5.215   1.265
 9189TIP3   OH251545   1.855   4.679   0.243
 9189TIP3    H151546   1.794   4.713   0.174
 9189TIP3    H251547   1.843   4.747   0.312
 9190TIP3   OH251548   1.693   4.404   0.099
 9190TIP3    H151549   1.693   4.469   0.029
 9190TIP3    H251550   1.672   4.320   0.056
 9191TIP3   OH251551   1.608   4.542   0.666
 9191TIP3    H151552   1.593   4.447   0.661
 9191TIP3    H251553   1.575   4.563   0.756
 9192TIP3   OH251554   0.108   4.748   1.072
 9192TIP3    H151555   0.127   4.742   0.976
 9192TIP3    H251556   0.196   4.735   1.110
 9193TIP3   OH251557   1.693   4.739   1.636
 9193TIP3    H151558   1.755   4.663   1.648
 9193TIP3    H251559   1.754   4.816   1.636
 9194TIP3   OH251560   1.844   4.526   1.700
 9194TIP3    H151561   1.755   4.487   1.685
 9194TIP3    H251562   1.901   4.448   1.693
 9195TIP3   OH251563   1.595   4.132   0.124
 9195TIP3    H151564   1.681   4.100   0.090
 9195TIP3    H251565   1.539   4.106   0.050
 9196TIP3   OH251566   1.572   4.301   0.513
 9196TIP3    H151567   1.601   4.207   0.522
 9196TIP3    H251568   1.649   4.340   0.472
 9197TIP3   OH251569   1.638   4.355   1.057
 9197TIP3    H151570   1.734   4.378   1.055
 9197TIP3    H251571   1.620   4.369   1.151
 9198TIP3   OH251572   1.645   4.427   1.336
 9198TIP3    H151573   1.556   4.456   1.365
 9198TIP3    H251574   1.688   4.512   1.312
 9199TIP3   OH251575   0.092   4.235   1.647
 9199TIP3    H151576   0.171   4.252   1.702
 9199TIP3    H251577   0.025   4.200   1.709
 9200TIP3   OH251578   1.873   3.834   1.868
 9200TIP3    H151579   1.908   3.768   1.806
 9200TIP3    H251580   1.882   3.915   1.813
 9201TIP3   OH251581   1.644   4.029   0.516
 9201TIP3    H151582   1.662   3.986   0.602
 9201TIP3    H251583   1.581   3.967   0.473
 9202TIP3   OH251584   0.190   4.110   0.978
 9202TIP3    H151585   0.238   4.028   0.999
 9202TIP3    H251586   0.245   4.179   1.017
 9203TIP3   OH251587   0.040   4.418   1.085
 9203TIP3    H151588   0.086   4.395   1.002
 9203TIP3    H251589   0.074   4.506   1.102
 9204TIP3   OH251590   1.825   4.044   1.703
 9204TIP3    H151591   1.731   4.071   1.697
 9204TIP3    H251592   1.827   3.988   1.624
 9205TIP3   OH251593   1.836   4.028   0.174
 9205TIP3    H151594   1.871   3.963   0.113
 9205TIP3    H251595   1.900   4.099   0.179
 9206TIP3   OH251596   0.076   4.018   0.436
 9206TIP3    H151597  -0.018   4.041   0.449
 9206TIP3    H251598   0.112   4.097   0.393
 9207TIP3   OH251599   1.530   5.528   0.679
 9207TIP3    H151600   1.596   5.503   0.612
 9207TIP3    H251601   1.579   5.584   0.742
 9208TIP3   OH251602   0.067   3.914   1.326
 9208TIP3    H151603  -0.006   3.885   1.382
 9208TIP3    H251604   0.013   3.976   1.271
 9209TIP3   OH251605   0.274   5.228   1.730
 9209TIP3    H151606   0.190   5.245   1.686
 9209TIP3    H251607   0.247   5.215   1.822
 9210TIP3   OH251608   0.561   5.322   1.356
 9210TIP3    H151609   0.529   5.410   1.329
 9210TIP3    H251610   0.655   5.330   1.327
 9211TIP3   OH251611   0.996   5.464   1.647
 9211TIP3    H151612   1.009   5.429   1.738
 9211TIP3    H251613   1.086   5.495   1.623
 9212TIP3   OH251614   1.224   5.591   1.578
 9212TIP3    H151615   1.298   5.533   1.555
 9212TIP3    H251616   1.261   5.635   1.658
 9213TIP3   OH251617   1.726   3.852   1.490
 9213TIP3    H151618   1.644   3.883   1.448
 9213TIP3    H251619   1.743   3.770   1.439
 9214TIP3   OH251620   0.304   5.646   1.356
 9214TIP3    H151621   0.230   5.696   1.318
 9214TIP3    H251622   0.272   5.631   1.447
 9215TIP3   OH251623   0.555   5.604   1.264
 9215TIP3    H151624   0.466   5.618   1.303
 9215TIP3    H251625   0.549   5.661   1.186
 9216TIP3   OH251626   1.024   5.594   1.180
 9216TIP3    H151627   0.977   5.650   1.116
 9216TIP3    H251628   1.036   5.657   1.254
 9217TIP3   OH251629   1.251   5.474   1.285
 9217TIP3    H151630   1.167   5.503   1.246
 9217TIP3    H251631   1.301   5.556   1.275
 9218TIP3   OH251632   1.509   5.632   1.305
 9218TIP3    H151633   1.506   5.728   1.283
 9218TIP3    H251634   1.530   5.596   1.217
 9219TIP3   OH251635   0.256   5.514   1.047
 9219TIP3    H151636   0.241   5.469   1.133
 9219TIP3    H251637   0.335   5.471   1.010
 9220TIP3   OH251638   0.459   5.380   0.916
 9220TIP3    H151639   0.444   5.287   0.940
 9220TIP3    H251640   0.545   5.398   0.961
 9221TIP3   OH251641   0.720   5.429   1.005
 9221TIP3    H151642   0.735   5.337   0.978
 9221TIP3    H251643   0.726   5.424   1.101
 9222TIP3   OH251644   1.064   3.995   0.915
 9222TIP3    H151645   0.998   3.931   0.946
 9222TIP3    H251646   1.120   3.940   0.859
 9223TIP3   OH251647   1.579   3.799   0.922
 9223TIP3    H151648   1.640   3.859   0.872
 9223TIP3    H251649   1.490   3.835   0.900
 9224TIP3   OH251650   1.746   3.927   0.749
 9224TIP3    H151651   1.813   3.866   0.710
 9224TIP3    H251652   1.796   4.009   0.763
 9225TIP3   OH251653   0.307   3.856   0.702
 9225TIP3    H151654   0.226   3.838   0.649
 9225TIP3    H251655   0.351   3.770   0.695
 9226TIP3   OH251656   0.183   3.830   0.279
 9226TIP3    H151657   0.226   3.897   0.222
 9226TIP3    H251658   0.128   3.888   0.335
 9227TIP3   OH251659   0.748   3.850   0.681
 9227TIP3    H151660   0.838   3.885   0.672
 9227TIP3    H251661   0.745   3.828   0.774
 9228TIP3   OH251662   1.322   3.852   0.843
 9228TIP3    H151663   1.315   3.864   0.747
 9228TIP3    H251664   1.282   3.762   0.856
 9229TIP3   OH251665   1.447   3.854   0.409
 9229TIP3    H151666   1.373   3.914   0.396
 9229TIP3    H251667   1.403   3.768   0.430
 9230TIP3   OH251668   0.171   5.434   0.375
 9230TIP3    H151669   0.106   5.432   0.304
 9230TIP3    H251670   0.171   5.529   0.392
 9231TIP3   OH251671   0.362   4.023   0.128
 9231TIP3    H151672   0.417   3.966   0.075
 9231TIP3    H251673   0.431   4.062   0.185
 9232TIP3   OH251674   0.869   4.051   0.361
 9232TIP3    H151675   0.890   3.994   0.437
 9232TIP3    H251676   0.873   4.137   0.410
 9233TIP3   OH251677   1.055   5.572   0.213
 9233TIP3    H151678   1.150   5.581   0.196
 9233TIP3    H251679   1.037   5.512   0.137
 9234TIP3   OH251680   1.727   5.510   0.482
 9234TIP3    H151681   1.707   5.432   0.425
 9234TIP3    H251682   1.719   5.583   0.418
 9235TIP3   OH251683   0.290   3.913   1.652
 9235TIP3    H151684   0.250   3.830   1.686
 9235TIP3    H251685   0.382   3.906   1.687
 9236TIP3   OH251686   0.494   3.850   1.813
 9236TIP3    H151687   0.582   3.814   1.790
 9236TIP3    H251688   0.452   3.771   1.851
 9237TIP3   OH251689   0.350   5.516   0.070
 9237TIP3    H151690   0.326   5.555   0.156
 9237TIP3    H251691   0.433   5.472   0.088
 9238TIP3   OH251692   1.331   3.780   1.829
 9238TIP3    H151693   1.340   3.732   1.913
 9238TIP3    H251694   1.422   3.775   1.793
 9239TIP3   OH251695   1.652   5.384   1.689
 9239TIP3    H151696   1.572   5.371   1.634
 9239TIP3    H251697   1.640   5.479   1.711
 9240TIP3   OH251698   3.098   4.772   0.685
 9240TIP3    H151699   3.095   4.870   0.684
 9240TIP3    H251700   3.023   4.749   0.627
 9241TIP3   OH251701   2.982   4.696   1.037
 9241TIP3    H151702   2.981   4.632   1.109
 9241TIP3    H251703   2.945   4.644   0.963
 9242TIP3   OH251704   2.216   4.665   1.193
 9242TIP3    H151705   2.225   4.596   1.261
 9242TIP3    H251706   2.292   4.722   1.215
 9243TIP3   OH251707   3.350   4.992   0.867
 9243TIP3    H151708   3.309   4.920   0.916
 9243TIP3    H251709   3.353   5.062   0.934
 9244TIP3   OH251710   2.306   5.110   1.040
 9244TIP3    H151711   2.280   5.020   1.011
 9244TIP3    H251712   2.402   5.094   1.047
 9245TIP3   OH251713   1.976   4.460   0.588
 9245TIP3    H151714   1.935   4.550   0.588
 9245TIP3    H251715   1.911   4.413   0.534
 9246TIP3   OH251716   2.044   4.688   0.807
 9246TIP3    H151717   2.072   4.608   0.853
 9246TIP3    H251718   2.114   4.700   0.741
 9247TIP3   OH251719   3.063   5.508   0.891
 9247TIP3    H151720   3.127   5.440   0.861
 9247TIP3    H251721   3.040   5.473   0.977
 9248TIP3   OH251722   2.819   4.936   1.087
 9248TIP3    H151723   2.853   4.874   1.019
 9248TIP3    H251724   2.901   4.953   1.137
 9249TIP3   OH251725   3.678   4.104   1.156
 9249TIP3    H151726   3.697   4.161   1.233
 9249TIP3    H251727   3.736   4.145   1.091
 9250TIP3   OH251728   3.136   4.384   1.117
 9250TIP3    H151729   3.153   4.288   1.118
 9250TIP3    H251730   3.126   4.397   1.021
 9251TIP3   OH251731   2.444   4.193   0.837
 9251TIP3    H151732   2.463   4.276   0.789
 9251TIP3    H251733   2.412   4.133   0.768
 9252TIP3   OH251734   3.221   4.200   0.674
 9252TIP3    H151735   3.286   4.169   0.742
 9252TIP3    H251736   3.278   4.257   0.621
 9253TIP3   OH251737   2.107   4.435   0.915
 9253TIP3    H151738   2.175   4.383   0.960
 9253TIP3    H251739   2.123   4.407   0.823
 9254TIP3   OH251740   2.624   4.589   0.845
 9254TIP3    H151741   2.693   4.532   0.882
 9254TIP3    H251742   2.574   4.524   0.791
 9255TIP3   OH251743   3.723   4.242   1.385
 9255TIP3    H151744   3.664   4.320   1.373
 9255TIP3    H251745   3.726   4.236   1.482
 9256TIP3   OH251746   2.339   4.083   1.241
 9256TIP3    H151747   2.310   4.140   1.167
 9256TIP3    H251748   2.272   4.105   1.310
 9257TIP3   OH251749   3.066   5.031   0.597
 9257TIP3    H151750   3.039   5.002   0.509
 9257TIP3    H251751   3.037   5.125   0.600
 9258TIP3   OH251752   2.589   4.847   1.265
 9258TIP3    H151753   2.519   4.912   1.288
 9258TIP3    H251754   2.660   4.907   1.236
 9259TIP3   OH251755   3.403   4.136   0.874
 9259TIP3    H151756   3.380   4.059   0.927
 9259TIP3    H251757   3.470   4.179   0.930
 9260TIP3   OH251758   2.295   4.270   1.044
 9260TIP3    H151759   2.359   4.337   1.078
 9260TIP3    H251760   2.349   4.228   0.972
 9261TIP3   OH251761   2.435   5.048   1.347
 9261TIP3    H151762   2.430   5.140   1.314
 9261TIP3    H251763   2.347   5.040   1.392
 9262TIP3   OH251764   2.038   5.007   0.427
 9262TIP3    H151765   2.019   5.041   0.338
 9262TIP3    H251766   2.051   5.090   0.477
 9263TIP3   OH251767   3.403   5.176   1.103
 9263TIP3    H151768   3.306   5.187   1.115
 9263TIP3    H251769   3.430   5.267   1.082
 9264TIP3   OH251770   3.435   4.003   1.241
 9264TIP3    H151771   3.363   4.067   1.231
 9264TIP3    H251772   3.507   4.045   1.190
 9265TIP3   OH251773   2.731   3.817   0.988
 9265TIP3    H151774   2.716   3.720   0.980
 9265TIP3    H251775   2.643   3.847   1.019
 9266TIP3   OH251776   3.230   5.353   0.765
 9266TIP3    H151777   3.271   5.282   0.711
 9266TIP3    H251778   3.275   5.432   0.725
 9267TIP3   OH251779   3.351   5.146   0.615
 9267TIP3    H151780   3.322   5.078   0.552
 9267TIP3    H251781   3.354   5.095   0.698
 9268TIP3   OH251782   3.511   5.007   1.463
 9268TIP3    H151783   3.527   4.941   1.392
 9268TIP3    H251784   3.533   5.090   1.417
 9269TIP3   OH251785   2.961   4.692   0.437
 9269TIP3    H151786   2.894   4.754   0.403
 9269TIP3    H251787   3.034   4.705   0.373
 9270TIP3   OH251788   2.970   4.550   0.142
 9270TIP3    H151789   3.042   4.553   0.208
 9270TIP3    H251790   2.999   4.478   0.087
 9271TIP3   OH251791   3.701   4.638   1.267
 9271TIP3    H151792   3.636   4.711   1.270
 9271TIP3    H251793   3.751   4.662   1.187
 9272TIP3   OH251794   3.309   4.717   0.533
 9272TIP3    H151795   3.233   4.740   0.592
 9272TIP3    H251796   3.355   4.649   0.585
 9273TIP3   OH251797   3.300   4.533   1.444
 9273TIP3    H151798   3.300   4.615   1.496
 9273TIP3    H251799   3.237   4.561   1.375
 9274TIP3   OH251800   2.466   4.781   0.723
 9274TIP3    H151801   2.436   4.742   0.637
 9274TIP3    H251802   2.529   4.713   0.756
 9275TIP3   OH251803   2.599   5.119   0.991
 9275TIP3    H151804   2.600   5.068   0.909
 9275TIP3    H251805   2.678   5.085   1.036
 9276TIP3   OH251806   2.502   4.657   1.092
 9276TIP3    H151807   2.554   4.666   1.010
 9276TIP3    H251808   2.542   4.725   1.151
 9277TIP3   OH251809   3.143   5.215   1.161
 9277TIP3    H151810   3.115   5.278   1.227
 9277TIP3    H251811   3.118   5.129   1.202
 9278TIP3   OH251812   2.596   5.100   1.559
 9278TIP3    H151813   2.553   5.173   1.608
 9278TIP3    H251814   2.529   5.080   1.489
 9279TIP3   OH251815   3.194   4.636   0.298
 9279TIP3    H151816   3.249   4.655   0.378
 9279TIP3    H251817   3.239   4.687   0.227
 9280TIP3   OH251818   2.291   4.716   1.473
 9280TIP3    H151819   2.297   4.782   1.544
 9280TIP3    H251820   2.196   4.724   1.454
 9281TIP3   OH251821   2.968   5.310   0.641
 9281TIP3    H151822   3.008   5.339   0.724
 9281TIP3    H251823   2.910   5.384   0.619
 9282TIP3   OH251824   2.421   5.303   1.633
 9282TIP3    H151825   2.414   5.294   1.537
 9282TIP3    H251826   2.329   5.289   1.661
 9283TIP3   OH251827   3.570   3.811   0.286
 9283TIP3    H151828   3.474   3.818   0.309
 9283TIP3    H251829   3.585   3.895   0.241
 9284TIP3   OH251830   2.365   4.683   0.483
 9284TIP3    H151831   2.336   4.762   0.434
 9284TIP3    H251832   2.299   4.619   0.459
 9285TIP3   OH251833   3.682   5.243   0.124
 9285TIP3    H151834   3.694   5.338   0.142
 9285TIP3    H251835   3.773   5.211   0.121
 9286TIP3   OH251836   1.972   4.928   1.375
 9286TIP3    H151837   1.930   4.917   1.288
 9286TIP3    H251838   1.983   4.834   1.397
 9287TIP3   OH251839   1.953   5.204   1.052
 9287TIP3    H151840   2.050   5.190   1.053
 9287TIP3    H251841   1.949   5.284   1.107
 9288TIP3   OH251842   3.774   5.271   1.622
 9288TIP3    H151843   3.762   5.176   1.618
 9288TIP3    H251844   3.686   5.297   1.660
 9289TIP3   OH251845   2.869   5.225   1.507
 9289TIP3    H151846   2.875   5.309   1.558
 9289TIP3    H251847   2.782   5.189   1.532
 9290TIP3   OH251848   2.912   5.600   0.488
 9290TIP3    H151849   2.904   5.595   0.392
 9290TIP3    H251850   2.917   5.696   0.504
 9291TIP3   OH251851   2.279   5.489   0.668
 9291TIP3    H151852   2.293   5.447   0.756
 9291TIP3    H251853   2.194   5.448   0.644
 9292TIP3   OH251854   3.214   5.516   0.192
 9292TIP3    H151855   3.269   5.447   0.148
 9292TIP3    H251856   3.225   5.490   0.285
 9293TIP3   OH251857   3.187   5.514   0.464
 9293TIP3    H151858   3.092   5.522   0.482
 9293TIP3    H251859   3.212   5.440   0.521
 9294TIP3   OH251860   3.489   4.418   1.668
 9294TIP3    H151861   3.440   4.462   1.597
 9294TIP3    H251862   3.486   4.326   1.638
 9295TIP3   OH251863   2.203   5.059   1.468
 9295TIP3    H151864   2.224   5.023   1.556
 9295TIP3    H251865   2.115   5.019   1.447
 9296TIP3   OH251866   2.471   3.908   1.062
 9296TIP3    H151867   2.380   3.893   1.027
 9296TIP3    H251868   2.456   3.990   1.113
 9297TIP3   OH251869   2.936   3.872   1.399
 9297TIP3    H151870   2.975   3.830   1.478
 9297TIP3    H251871   2.838   3.862   1.414
 9298TIP3   OH251872   3.263   4.258   1.490
 9298TIP3    H151873   3.207   4.236   1.567
 9298TIP3    H251874   3.245   4.351   1.467
 9299TIP3   OH251875   3.349   4.722   0.085
 9299TIP3    H151876   3.330   4.736  -0.009
 9299TIP3    H251877   3.423   4.784   0.091
 9300TIP3   OH251878   2.901   4.132   0.134
 9300TIP3    H151879   2.864   4.125   0.224
 9300TIP3    H251880   2.870   4.046   0.101
 9301TIP3   OH251881   2.481   4.404   1.190
 9301TIP3    H151882   2.407   4.404   1.254
 9301TIP3    H251883   2.477   4.495   1.152
 9302TIP3   OH251884   2.482   4.412   0.677
 9302TIP3    H151885   2.386   4.400   0.663
 9302TIP3    H251886   2.519   4.388   0.590
 9303TIP3   OH251887   3.029   4.465   0.550
 9303TIP3    H151888   2.990   4.549   0.515
 9303TIP3    H251889   3.098   4.449   0.484
 9304TIP3   OH251890   2.934   4.487   1.695
 9304TIP3    H151891   2.882   4.409   1.726
 9304TIP3    H251892   3.018   4.476   1.743
 9305TIP3   OH251893   3.133   4.416   0.837
 9305TIP3    H151894   3.104   4.472   0.764
 9305TIP3    H251895   3.142   4.331   0.791
 9306TIP3   OH251896   2.243   4.428   1.356
 9306TIP3    H151897   2.253   4.469   1.443
 9306TIP3    H251898   2.199   4.344   1.378
 9307TIP3   OH251899   2.583   4.078   0.058
 9307TIP3    H151900   2.544   4.101   0.143
 9307TIP3    H251901   2.530   4.143   0.010
 9308TIP3   OH251902   1.915   4.147   0.754
 9308TIP3    H151903   1.976   4.132   0.830
 9308TIP3    H251904   1.948   4.092   0.681
 9309TIP3   OH251905   2.044   4.215   0.304
 9309TIP3    H151906   2.085   4.271   0.234
 9309TIP3    H251907   1.965   4.273   0.321
 9310TIP3   OH251908   3.051   4.573   1.291
 9310TIP3    H151909   3.090   4.504   1.234
 9310TIP3    H251910   3.004   4.520   1.358
 9311TIP3   OH251911   2.734   4.172   0.776
 9311TIP3    H151912   2.642   4.171   0.806
 9311TIP3    H251913   2.782   4.152   0.858
 9312TIP3   OH251914   2.220   4.348   0.681
 9312TIP3    H151915   2.135   4.366   0.634
 9312TIP3    H251916   2.267   4.270   0.648
 9313TIP3   OH251917   2.574   4.333   0.431
 9313TIP3    H151918   2.671   4.340   0.443
 9313TIP3    H251919   2.554   4.398   0.361
 9314TIP3   OH251920   3.173   4.095   1.099
 9314TIP3    H151921   3.105   4.099   1.170
 9314TIP3    H251922   3.122   4.068   1.021
 9315TIP3   OH251923   2.441   4.456   0.191
 9315TIP3    H151924   2.396   4.409   0.119
 9315TIP3    H251925   2.526   4.466   0.145
 9316TIP3   OH251926   3.492   5.659   1.733
 9316TIP3    H151927   3.519   5.696   1.647
 9316TIP3    H251928   3.565   5.690   1.788
 9317TIP3   OH251929   2.260   4.906   1.690
 9317TIP3    H151930   2.332   4.930   1.750
 9317TIP3    H251931   2.183   4.912   1.751
 9318TIP3   OH251932   2.860   4.447   0.965
 9318TIP3    H151933   2.921   4.394   0.912
 9318TIP3    H251934   2.846   4.392   1.043
 9319TIP3   OH251935   2.351   4.063   0.600
 9319TIP3    H151936   2.335   3.966   0.611
 9319TIP3    H251937   2.439   4.055   0.557
 9320TIP3   OH251938   2.724   4.279   1.208
 9320TIP3    H151939   2.642   4.331   1.215
 9320TIP3    H251940   2.780   4.315   1.278
 9321TIP3   OH251941   2.783   4.899   0.378
 9321TIP3    H151942   2.703   4.854   0.343
 9321TIP3    H251943   2.759   4.914   0.471
 9322TIP3   OH251944   3.503   4.823   1.257
 9322TIP3    H151945   3.558   4.871   1.193
 9322TIP3    H251946   3.417   4.826   1.211
 9323TIP3   OH251947   3.170   4.191   0.177
 9323TIP3    H151948   3.073   4.193   0.182
 9323TIP3    H251949   3.200   4.266   0.234
 9324TIP3   OH251950   2.933   4.930   1.501
 9324TIP3    H151951   2.897   4.886   1.579
 9324TIP3    H251952   2.906   5.022   1.513
 9325TIP3   OH251953   3.238   4.374   0.359
 9325TIP3    H151954   3.327   4.360   0.397
 9325TIP3    H251955   3.248   4.458   0.310
 9326TIP3   OH251956   2.294   4.842   0.956
 9326TIP3    H151957   2.362   4.834   0.887
 9326TIP3    H251958   2.300   4.757   1.003
 9327TIP3   OH251959   2.993   5.048   0.281
 9327TIP3    H151960   2.957   5.133   0.314
 9327TIP3    H251961   2.919   4.986   0.301
 9328TIP3   OH251962   1.993   4.681   1.482
 9328TIP3    H151963   2.009   4.637   1.568
 9328TIP3    H251964   1.931   4.621   1.438
 9329TIP3   OH251965   2.695   4.637   1.699
 9329TIP3    H151966   2.662   4.605   1.614
 9329TIP3    H251967   2.786   4.604   1.699
 9330TIP3   OH251968   3.164   5.171   1.496
 9330TIP3    H151969   3.071   5.189   1.473
 9330TIP3    H251970   3.160   5.201   1.590
 9331TIP3   OH251971   3.733   4.390   0.329
 9331TIP3    H151972   3.661   4.363   0.271
 9331TIP3    H251973   3.735   4.487   0.312
 9332TIP3   OH251974   3.729   4.975   1.614
 9332TIP3    H151975   3.639   4.997   1.578
 9332TIP3    H251976   3.783   4.970   1.533
 9333TIP3   OH251977   3.564   5.270   0.375
 9333TIP3    H151978   3.522   5.188   0.406
 9333TIP3    H251979   3.587   5.252   0.282
 9334TIP3   OH251980   3.280   4.753   1.085
 9334TIP3    H151981   3.186   4.733   1.073
 9334TIP3    H251982   3.323   4.678   1.040
 9335TIP3   OH251983   2.531   5.187   0.697
 9335TIP3    H151984   2.581   5.267   0.675
 9335TIP3    H251985   2.443   5.210   0.662
 9336TIP3   OH251986   2.106   4.673   0.144
 9336TIP3    H151987   2.166   4.731   0.195
 9336TIP3    H251988   2.019   4.701   0.179
 9337TIP3   OH251989   2.672   4.953   0.647
 9337TIP3    H151990   2.640   5.045   0.655
 9337TIP3    H251991   2.602   4.903   0.692
 9338TIP3   OH251992   2.717   5.372   1.289
 9338TIP3    H151993   2.764   5.451   1.259
 9338TIP3    H251994   2.779   5.337   1.355
 9339TIP3   OH251995   2.540   5.451   0.601
 9339TIP3    H151996   2.444   5.466   0.613
 9339TIP3    H251997   2.577   5.536   0.632
 9340TIP3   OH251998   3.068   4.970   1.249
 9340TIP3    H151999   3.038   4.952   1.340
 9340TIP3    H252000   3.134   4.900   1.232
 9341TIP3   OH252001   3.298   5.075   0.159
 9341TIP3    H152002   3.335   5.032   0.238
 9341TIP3    H252003   3.204   5.058   0.174
 9342TIP3   OH252004   3.353   5.429   1.498
 9342TIP3    H152005   3.283   5.380   1.451
 9342TIP3    H252006   3.370   5.499   1.431
 9343TIP3   OH252007   3.751   5.516   0.184
 9343TIP3    H152008   3.822   5.579   0.165
 9343TIP3    H252009   3.679   5.577   0.211
 9344TIP3   OH252010   2.158   4.155   1.437
 9344TIP3    H152011   2.068   4.190   1.436
 9344TIP3    H252012   2.147   4.070   1.484
 9345TIP3   OH252013   3.382   4.942   0.388
 9345TIP3    H152014   3.358   4.861   0.437
 9345TIP3    H252015   3.478   4.945   0.401
 9346TIP3   OH252016   2.118   5.330   1.278
 9346TIP3    H152017   2.154   5.240   1.282
 9346TIP3    H252018   2.144   5.363   1.365
 9347TIP3   OH252019   2.590   5.141   0.255
 9347TIP3    H152020   2.626   5.088   0.328
 9347TIP3    H252021   2.604   5.233   0.286
 9348TIP3   OH252022   2.245   4.864   0.299
 9348TIP3    H152023   2.176   4.904   0.356
 9348TIP3    H252024   2.300   4.940   0.276
 9349TIP3   OH252025   3.032   4.132   1.335
 9349TIP3    H152026   3.104   4.138   1.399
 9349TIP3    H252027   2.993   4.045   1.356
 9350TIP3   OH252028   3.105   4.089   0.444
 9350TIP3    H152029   3.131   4.135   0.364
 9350TIP3    H252030   3.162   4.132   0.510
 9351TIP3   OH252031   2.871   5.303   0.320
 9351TIP3    H152032   2.793   5.359   0.336
 9351TIP3    H252033   2.929   5.358   0.265
 9352TIP3   OH252034   2.828   4.264   0.525
 9352TIP3    H152035   2.906   4.323   0.528
 9352TIP3    H252036   2.802   4.252   0.619
 9353TIP3   OH252037   2.885   4.367   1.444
 9353TIP3    H152038   2.892   4.422   1.525
 9353TIP3    H252039   2.951   4.297   1.453
 9354TIP3   OH252040   2.913   3.969   0.611
 9354TIP3    H152041   2.881   4.033   0.676
 9354TIP3    H252042   2.983   4.024   0.567
 9355TIP3   OH252043   2.612   5.411   0.329
 9355TIP3    H152044   2.628   5.492   0.276
 9355TIP3    H252045   2.586   5.446   0.416
 9356TIP3   OH252046   2.474   4.081   0.303
 9356TIP3    H152047   2.478   4.176   0.321
 9356TIP3    H252048   2.568   4.055   0.308
 9357TIP3   OH252049   3.501   4.153   1.528
 9357TIP3    H152050   3.409   4.186   1.515
 9357TIP3    H252051   3.532   4.151   1.436
 9358TIP3   OH252052   3.364   4.532   0.927
 9358TIP3    H152053   3.281   4.487   0.901
 9358TIP3    H252054   3.412   4.464   0.980
 9359TIP3   OH252055   2.306   5.123   0.189
 9359TIP3    H152056   2.372   5.186   0.222
 9359TIP3    H252057   2.355   5.079   0.118
 9360TIP3   OH252058   2.135   4.391   0.110
 9360TIP3    H152059   2.139   4.489   0.120
 9360TIP3    H252060   2.050   4.377   0.069
 9361TIP3   OH252061   3.470   5.459   1.095
 9361TIP3    H152062   3.462   5.527   1.025
 9361TIP3    H252063   3.566   5.464   1.113
 9362TIP3   OH252064   2.218   3.871   0.977
 9362TIP3    H152065   2.200   3.870   0.881
 9362TIP3    H252066   2.179   3.784   1.003
 9363TIP3   OH252067   2.111   5.265   0.594
 9363TIP3    H152068   2.027   5.310   0.582
 9363TIP3    H252069   2.162   5.305   0.521
 9364TIP3   OH252070   2.034   5.528   1.719
 9364TIP3    H152071   2.095   5.509   1.793
 9364TIP3    H252072   1.995   5.440   1.701
 9365TIP3   OH252073   2.504   5.420   1.880
 9365TIP3    H152074   2.579   5.370   1.913
 9365TIP3    H252075   2.500   5.391   1.786
 9366TIP3   OH252076   2.923   5.381   0.048
 9366TIP3    H152077   2.853   5.317   0.064
 9366TIP3    H252078   2.993   5.331   0.005
 9367TIP3   OH252079   3.152   5.258   1.756
 9367TIP3    H152080   3.121   5.170   1.783
 9367TIP3    H252081   3.230   5.270   1.814
 9368TIP3   OH252082   3.395   5.339   0.095
 9368TIP3    H152083   3.407   5.243   0.093
 9368TIP3    H252084   3.428   5.369   0.009
 9369TIP3   OH252085   2.024   4.905   1.819
 9369TIP3    H152086   2.041   4.813   1.790
 9369TIP3    H252087   1.951   4.930   1.761
 9370TIP3   OH252088   2.446   4.922   0.022
 9370TIP3    H152089   2.477   4.855   0.085
 9370TIP3    H252090   2.524   4.929  -0.036
 9371TIP3   OH252091   2.697   4.904   1.757
 9371TIP3    H152092   2.664   4.936   1.671
 9371TIP3    H252093   2.703   4.806   1.746
 9372TIP3   OH252094   3.266   4.889   1.497
 9372TIP3    H152095   3.346   4.947   1.492
 9372TIP3    H252096   3.197   4.957   1.500
 9373TIP3   OH252097   2.118   4.628   1.757
 9373TIP3    H152098   2.160   4.541   1.748
 9373TIP3    H252099   2.095   4.629   1.852
 9374TIP3   OH252100   2.582   4.744   0.262
 9374TIP3    H152101   2.533   4.689   0.325
 9374TIP3    H252102   2.614   4.675   0.199
 9375TIP3   OH252103   2.507   4.521   1.492
 9375TIP3    H152104   2.449   4.594   1.518
 9375TIP3    H252105   2.548   4.559   1.412
 9376TIP3   OH252106   2.691   4.567   0.090
 9376TIP3    H152107   2.669   4.552  -0.004
 9376TIP3    H252108   2.788   4.573   0.093
 9377TIP3   OH252109   3.016   4.779   1.827
 9377TIP3    H152110   3.111   4.777   1.812
 9377TIP3    H252111   2.998   4.702   1.883
 9378TIP3   OH252112   3.621   4.792  11.009
 9378TIP3    H152113   3.602   4.758  10.922
 9378TIP3    H252114   3.626   4.888  10.990
 9379TIP3   OH252115   2.549   4.259   1.597
 9379TIP3    H152116   2.560   4.189   1.531
 9379TIP3    H252117   2.544   4.341   1.543
 9380TIP3   OH252118   2.589   4.098   1.353
 9380TIP3    H152119   2.640   4.144   1.283
 9380TIP3    H252120   2.500   4.090   1.314
 9381TIP3   OH252121   2.742   4.648   1.378
 9381TIP3    H152122   2.818   4.631   1.321
 9381TIP3    H252123   2.705   4.731   1.343
 9382TIP3   OH252124   3.182   4.421   1.874
 9382TIP3    H152125   3.206   4.328   1.864
 9382TIP3    H252126   3.268   4.466   1.877
 9383TIP3   OH252127   3.317   4.702   1.691
 9383TIP3    H152128   3.291   4.773   1.629
 9383TIP3    H252129   3.412   4.698   1.672
 9384TIP3   OH252130   2.395   4.385   1.790
 9384TIP3    H152131   2.318   4.327   1.774
 9384TIP3    H252132   2.460   4.348   1.727
 9385TIP3   OH252133   2.668   3.841   1.391
 9385TIP3    H152134   2.649   3.938   1.382
 9385TIP3    H252135   2.593   3.804   1.341
 9386TIP3   OH252136   2.795   4.274   1.756
 9386TIP3    H152137   2.762   4.251   1.845
 9386TIP3    H252138   2.717   4.254   1.701
 9387TIP3   OH252139   3.067   4.189   1.666
 9387TIP3    H152140   2.971   4.195   1.676
 9387TIP3    H252141   3.093   4.125   1.735
 9388TIP3   OH252142   3.224   4.051   1.853
 9388TIP3    H152143   3.221   3.953   1.857
 9388TIP3    H252144   3.201   4.080   1.944
 9389TIP3   OH252145   2.202   4.179   1.766
 9389TIP3    H152146   2.226   4.105   1.708
 9389TIP3    H252147   2.192   4.135   1.853
 9390TIP3   OH252148   2.689   3.782   1.662
 9390TIP3    H152149   2.757   3.711   1.661
 9390TIP3    H252150   2.677   3.794   1.566
 9391TIP3   OH252151   2.725   3.942   1.875
 9391TIP3    H152152   2.708   3.891   1.792
 9391TIP3    H252153   2.666   4.019   1.865
 9392TIP3   OH252154   2.672   5.638   0.195
 9392TIP3    H152155   2.769   5.643   0.199
 9392TIP3    H252156   2.651   5.700   0.124
 9393TIP3   OH252157   2.035   5.089   0.140
 9393TIP3    H152158   2.131   5.102   0.158
 9393TIP3    H252159   2.037   5.032   0.063
 9394TIP3   OH252160   1.905   5.629   0.635
 9394TIP3    H152161   1.833   5.581   0.588
 9394TIP3    H252162   1.934   5.564   0.701
 9395TIP3   OH252163   1.984   5.445   0.824
 9395TIP3    H152164   1.959   5.355   0.845
 9395TIP3    H252165   2.016   5.479   0.910
 9396TIP3   OH252166   3.742   5.523   1.115
 9396TIP3    H152167   3.745   5.538   1.211
 9396TIP3    H252168   3.812   5.581   1.085
 9397TIP3   OH252169   3.699   5.482   1.410
 9397TIP3    H152170   3.652   5.405   1.371
 9397TIP3    H252171   3.746   5.437   1.482
 9398TIP3   OH252172   3.543   5.054   1.878
 9398TIP3    H152173   3.453   5.052   1.914
 9398TIP3    H252174   3.580   5.135   1.918
 9399TIP3   OH252175   3.678   4.886   0.419
 9399TIP3    H152176   3.763   4.927   0.441
 9399TIP3    H252177   3.673   4.816   0.488
 9400TIP3   OH252178   3.711   4.696   0.610
 9400TIP3    H152179   3.635   4.645   0.647
 9400TIP3    H252180   3.770   4.707   0.687
 9401TIP3   OH252181   3.686   4.964   1.108
 9401TIP3    H152182   3.767   4.926   1.069
 9401TIP3    H252183   3.701   5.059   1.090
 9402TIP3   OH252184   3.543   5.255   1.334
 9402TIP3    H152185   3.474   5.290   1.393
 9402TIP3    H252186   3.488   5.215   1.263
 9403TIP3   OH252187   3.738   4.676   0.244
 9403TIP3    H152188   3.680   4.715   0.175
 9403TIP3    H252189   3.730   4.746   0.313
 9404TIP3   OH252190   3.566   4.410   0.102
 9404TIP3    H152191   3.561   4.479   0.035
 9404TIP3    H252192   3.527   4.329   0.061
 9405TIP3   OH252193   3.494   4.542   0.667
 9405TIP3    H152194   3.478   4.447   0.662
 9405TIP3    H252195   3.461   4.563   0.756
 9406TIP3   OH252196   1.995   4.758   1.072
 9406TIP3    H152197   2.011   4.741   0.976
 9406TIP3    H252198   2.082   4.730   1.107
 9407TIP3   OH252199   3.580   4.738   1.636
 9407TIP3    H152200   3.641   4.663   1.648
 9407TIP3    H252201   3.640   4.816   1.635
 9408TIP3   OH252202   3.730   4.526   1.700
 9408TIP3    H152203   3.641   4.487   1.685
 9408TIP3    H252204   3.786   4.448   1.693
 9409TIP3   OH252205   3.486   4.141   0.120
 9409TIP3    H152206   3.565   4.091   0.092
 9409TIP3    H252207   3.423   4.106   0.055
 9410TIP3   OH252208   3.457   4.300   0.508
 9410TIP3    H152209   3.488   4.208   0.523
 9410TIP3    H252210   3.538   4.341   0.476
 9411TIP3   OH252211   3.524   4.355   1.057
 9411TIP3    H152212   3.620   4.378   1.055
 9411TIP3    H252213   3.506   4.369   1.151
 9412TIP3   OH252214   3.531   4.427   1.335
 9412TIP3    H152215   3.442   4.456   1.365
 9412TIP3    H252216   3.574   4.512   1.312
 9413TIP3   OH252217   1.956   4.282   1.689
 9413TIP3    H152218   2.050   4.259   1.707
 9413TIP3    H252219   1.910   4.198   1.714
 9414TIP3   OH252220   3.759   3.833   1.868
 9414TIP3    H152221   3.792   3.767   1.804
 9414TIP3    H252222   3.768   3.915   1.815
 9415TIP3   OH252223   3.530   4.030   0.514
 9415TIP3    H152224   3.550   3.987   0.600
 9415TIP3    H252225   3.467   3.967   0.473
 9416TIP3   OH252226   2.079   4.111   0.966
 9416TIP3    H152227   2.119   4.028   0.999
 9416TIP3    H252228   2.130   4.179   1.013
 9417TIP3   OH252229   1.903   4.411   1.077
 9417TIP3    H152230   1.960   4.385   1.002
 9417TIP3    H252231   1.951   4.491   1.104
 9418TIP3   OH252232   3.710   4.044   1.704
 9418TIP3    H152233   3.616   4.071   1.699
 9418TIP3    H252234   3.713   3.988   1.625
 9419TIP3   OH252235   3.722   4.039   0.160
 9419TIP3    H152236   3.760   3.959   0.122
 9419TIP3    H252237   3.798   4.089   0.194
 9420TIP3   OH252238   1.944   4.048   0.489
 9420TIP3    H152239   1.847   4.049   0.472
 9420TIP3    H252240   1.974   4.081   0.403
 9421TIP3   OH252241   3.413   5.530   0.678
 9421TIP3    H152242   3.481   5.501   0.614
 9421TIP3    H252243   3.465   5.580   0.743
 9422TIP3   OH252244   1.935   3.901   1.312
 9422TIP3    H152245   1.868   3.882   1.381
 9422TIP3    H252246   1.889   3.968   1.259
 9423TIP3   OH252247   2.160   5.220   1.729
 9423TIP3    H152248   2.076   5.243   1.685
 9423TIP3    H252249   2.133   5.213   1.820
 9424TIP3   OH252250   2.449   5.322   1.357
 9424TIP3    H152251   2.418   5.410   1.330
 9424TIP3    H252252   2.542   5.330   1.327
 9425TIP3   OH252253   2.881   5.464   1.646
 9425TIP3    H152254   2.894   5.429   1.737
 9425TIP3    H252255   2.972   5.495   1.623
 9426TIP3   OH252256   3.109   5.591   1.579
 9426TIP3    H152257   3.183   5.533   1.555
 9426TIP3    H252258   3.147   5.636   1.658
 9427TIP3   OH252259   3.612   3.852   1.490
 9427TIP3    H152260   3.529   3.883   1.448
 9427TIP3    H252261   3.628   3.770   1.439
 9428TIP3   OH252262   2.191   5.645   1.355
 9428TIP3    H152263   2.118   5.696   1.317
 9428TIP3    H252264   2.162   5.628   1.446
 9429TIP3   OH252265   2.438   5.603   1.263
 9429TIP3    H152266   2.349   5.619   1.302
 9429TIP3    H252267   2.433   5.662   1.186
 9430TIP3   OH252268   2.909   5.594   1.180
 9430TIP3    H152269   2.863   5.650   1.116
 9430TIP3    H252270   2.922   5.657   1.254
 9431TIP3   OH252271   3.137   5.474   1.285
 9431TIP3    H152272   3.053   5.503   1.246
 9431TIP3    H252273   3.187   5.556   1.275
 9432TIP3   OH252274   3.395   5.631   1.305
 9432TIP3    H152275   3.392   5.727   1.282
 9432TIP3    H252276   3.418   5.594   1.217
 9433TIP3   OH252277   2.135   5.507   1.048
 9433TIP3    H152278   2.130   5.465   1.138
 9433TIP3    H252279   2.221   5.473   1.013
 9434TIP3   OH252280   2.345   5.381   0.916
 9434TIP3    H152281   2.331   5.288   0.940
 9434TIP3    H252282   2.430   5.398   0.960
 9435TIP3   OH252283   2.605   5.430   1.004
 9435TIP3    H152284   2.621   5.338   0.978
 9435TIP3    H252285   2.610   5.425   1.101
 9436TIP3   OH252286   2.950   3.995   0.915
 9436TIP3    H152287   2.883   3.931   0.946
 9436TIP3    H252288   3.006   3.940   0.859
 9437TIP3   OH252289   3.465   3.799   0.922
 9437TIP3    H152290   3.525   3.859   0.872
 9437TIP3    H252291   3.376   3.835   0.900
 9438TIP3   OH252292   3.630   3.926   0.748
 9438TIP3    H152293   3.699   3.867   0.710
 9438TIP3    H252294   3.682   4.008   0.764
 9439TIP3   OH252295   2.189   3.860   0.700
 9439TIP3    H152296   2.109   3.835   0.651
 9439TIP3    H252297   2.234   3.772   0.698
 9440TIP3   OH252298   2.072   3.832   0.283
 9440TIP3    H152299   2.112   3.897   0.221
 9440TIP3    H252300   2.006   3.885   0.330
 9441TIP3   OH252301   2.634   3.849   0.681
 9441TIP3    H152302   2.724   3.884   0.673
 9441TIP3    H252303   2.632   3.828   0.774
 9442TIP3   OH252304   3.207   3.852   0.843
 9442TIP3    H152305   3.201   3.864   0.747
 9442TIP3    H252306   3.168   3.762   0.856
 9443TIP3   OH252307   3.333   3.854   0.409
 9443TIP3    H152308   3.258   3.914   0.397
 9443TIP3    H252309   3.289   3.768   0.430
 9444TIP3   OH252310   2.058   5.429   0.372
 9444TIP3    H152311   1.985   5.430   0.307
 9444TIP3    H252312   2.059   5.523   0.393
 9445TIP3   OH252313   2.246   4.021   0.132
 9445TIP3    H152314   2.301   3.966   0.076
 9445TIP3    H252315   2.316   4.063   0.184
 9446TIP3   OH252316   2.755   4.051   0.361
 9446TIP3    H152317   2.776   3.994   0.437
 9446TIP3    H252318   2.758   4.137   0.410
 9447TIP3   OH252319   2.940   5.572   0.213
 9447TIP3    H152320   3.036   5.581   0.197
 9447TIP3    H252321   2.922   5.512   0.137
 9448TIP3   OH252322   3.613   5.511   0.481
 9448TIP3    H152323   3.592   5.431   0.426
 9448TIP3    H252324   3.604   5.584   0.415
 9449TIP3   OH252325   2.176   3.912   1.647
 9449TIP3    H152326   2.136   3.832   1.686
 9449TIP3    H252327   2.266   3.907   1.686
 9450TIP3   OH252328   2.376   3.851   1.813
 9450TIP3    H152329   2.465   3.817   1.791
 9450TIP3    H252330   2.339   3.770   1.852
 9451TIP3   OH252331   2.235   5.520   0.069
 9451TIP3    H152332   2.207   5.554   0.156
 9451TIP3    H252333   2.315   5.471   0.089
 9452TIP3   OH252334   3.217   3.779   1.827
 9452TIP3    H152335   3.226   3.731   1.912
 9452TIP3    H252336   3.308   3.775   1.793
 9453TIP3   OH252337   3.537   5.384   1.689
 9453TIP3    H152338   3.457   5.371   1.634
 9453TIP3    H252339   3.526   5.479   1.711
 9454TIP3   OH252340   4.983   4.772   0.685
 9454TIP3    H152341   4.980   4.870   0.684
 9454TIP3    H252342   4.908   4.749   0.628
 9455TIP3   OH252343   4.871   4.694   1.038
 9455TIP3    H152344   4.863   4.631   1.110
 9455TIP3    H252345   4.829   4.648   0.963
 9456TIP3   OH252346   4.102   4.665   1.193
 9456TIP3    H152347   4.111   4.596   1.261
 9456TIP3    H252348   4.178   4.722   1.216
 9457TIP3   OH252349   5.235   4.992   0.867
 9457TIP3    H152350   5.195   4.920   0.917
 9457TIP3    H252351   5.239   5.062   0.934
 9458TIP3   OH252352   4.195   5.110   1.042
 9458TIP3    H152353   4.165   5.022   1.011
 9458TIP3    H252354   4.291   5.092   1.046
 9459TIP3   OH252355   3.860   4.464   0.588
 9459TIP3    H152356   3.815   4.550   0.585
 9459TIP3    H252357   3.800   4.409   0.537
 9460TIP3   OH252358   3.931   4.688   0.808
 9460TIP3    H152359   3.959   4.605   0.852
 9460TIP3    H252360   3.999   4.699   0.740
 9461TIP3   OH252361   4.948   5.509   0.891
 9461TIP3    H152362   5.013   5.440   0.861
 9461TIP3    H252363   4.925   5.473   0.977
 9462TIP3   OH252364   4.705   4.935   1.087
 9462TIP3    H152365   4.738   4.875   1.019
 9462TIP3    H252366   4.787   4.953   1.137
 9463TIP3   OH252367   5.561   4.105   1.156
 9463TIP3    H152368   5.584   4.160   1.234
 9463TIP3    H252369   5.623   4.143   1.091
 9464TIP3   OH252370   5.031   4.380   1.117
 9464TIP3    H152371   5.030   4.283   1.109
 9464TIP3    H252372   5.009   4.400   1.023
 9465TIP3   OH252373   4.332   4.193   0.838
 9465TIP3    H152374   4.345   4.276   0.789
 9465TIP3    H252375   4.294   4.135   0.768
 9466TIP3   OH252376   5.110   4.195   0.670
 9466TIP3    H152377   5.172   4.170   0.742
 9466TIP3    H252378   5.163   4.260   0.621
 9467TIP3   OH252379   3.995   4.435   0.911
 9467TIP3    H152380   4.062   4.380   0.957
 9467TIP3    H252381   4.007   4.402   0.820
 9468TIP3   OH252382   4.511   4.590   0.844
 9468TIP3    H152383   4.578   4.531   0.882
 9468TIP3    H252384   4.460   4.525   0.792
 9469TIP3   OH252385   5.605   4.242   1.384
 9469TIP3    H152386   5.551   4.323   1.375
 9469TIP3    H252387   5.615   4.235   1.480
 9470TIP3   OH252388   4.222   4.080   1.238
 9470TIP3    H152389   4.196   4.142   1.167
 9470TIP3    H252390   4.161   4.105   1.311
 9471TIP3   OH252391   4.952   5.030   0.598
 9471TIP3    H152392   4.925   5.002   0.509
 9471TIP3    H252393   4.923   5.125   0.600
 9472TIP3   OH252394   4.475   4.847   1.265
 9472TIP3    H152395   4.405   4.911   1.289
 9472TIP3    H252396   4.546   4.907   1.236
 9473TIP3   OH252397   5.289   4.136   0.876
 9473TIP3    H152398   5.265   4.060   0.930
 9473TIP3    H252399   5.355   4.179   0.931
 9474TIP3   OH252400   4.182   4.269   1.045
 9474TIP3    H152401   4.245   4.338   1.076
 9474TIP3    H252402   4.233   4.228   0.970
 9475TIP3   OH252403   4.321   5.048   1.347
 9475TIP3    H152404   4.315   5.140   1.314
 9475TIP3    H252405   4.232   5.040   1.392
 9476TIP3   OH252406   3.927   5.006   0.425
 9476TIP3    H152407   3.905   5.042   0.336
 9476TIP3    H252408   3.935   5.088   0.478
 9477TIP3   OH252409   5.288   5.176   1.103
 9477TIP3    H152410   5.192   5.188   1.115
 9477TIP3    H252411   5.315   5.267   1.082
 9478TIP3   OH252412   5.321   4.007   1.244
 9478TIP3    H152413   5.246   4.065   1.228
 9478TIP3    H252414   5.393   4.043   1.189
 9479TIP3   OH252415   4.616   3.816   0.986
 9479TIP3    H152416   4.601   3.720   0.981
 9479TIP3    H252417   4.530   3.847   1.023
 9480TIP3   OH252418   5.116   5.354   0.765
 9480TIP3    H152419   5.157   5.282   0.712
 9480TIP3    H252420   5.160   5.432   0.725
 9481TIP3   OH252421   5.237   5.146   0.615
 9481TIP3    H152422   5.208   5.078   0.552
 9481TIP3    H252423   5.239   5.095   0.698
 9482TIP3   OH252424   5.397   5.007   1.463
 9482TIP3    H152425   5.412   4.941   1.392
 9482TIP3    H252426   5.418   5.090   1.417
 9483TIP3   OH252427   4.847   4.692   0.437
 9483TIP3    H152428   4.780   4.754   0.403
 9483TIP3    H252429   4.919   4.705   0.373
 9484TIP3   OH252430   4.856   4.551   0.142
 9484TIP3    H152431   4.927   4.554   0.208
 9484TIP3    H252432   4.885   4.478   0.087
 9485TIP3   OH252433   5.582   4.635   1.264
 9485TIP3    H152434   5.523   4.712   1.270
 9485TIP3    H252435   5.638   4.662   1.188
 9486TIP3   OH252436   5.194   4.717   0.533
 9486TIP3    H152437   5.119   4.740   0.592
 9486TIP3    H252438   5.241   4.649   0.585
 9487TIP3   OH252439   5.186   4.533   1.436
 9487TIP3    H152440   5.189   4.610   1.498
 9487TIP3    H252441   5.115   4.571   1.379
 9488TIP3   OH252442   4.353   4.781   0.723
 9488TIP3    H152443   4.322   4.743   0.637
 9488TIP3    H252444   4.415   4.713   0.756
 9489TIP3   OH252445   4.485   5.119   0.991
 9489TIP3    H152446   4.485   5.068   0.909
 9489TIP3    H252447   4.564   5.084   1.037
 9490TIP3   OH252448   4.388   4.655   1.091
 9490TIP3    H152449   4.440   4.666   1.009
 9490TIP3    H252450   4.427   4.724   1.150
 9491TIP3   OH252451   5.030   5.215   1.161
 9491TIP3    H152452   4.999   5.279   1.227
 9491TIP3    H252453   5.003   5.130   1.202
 9492TIP3   OH252454   4.482   5.100   1.559
 9492TIP3    H152455   4.439   5.173   1.608
 9492TIP3    H252456   4.415   5.079   1.489
 9493TIP3   OH252457   5.079   4.636   0.298
 9493TIP3    H152458   5.134   4.655   0.378
 9493TIP3    H252459   5.125   4.687   0.227
 9494TIP3   OH252460   4.177   4.716   1.473
 9494TIP3    H152461   4.182   4.782   1.544
 9494TIP3    H252462   4.082   4.722   1.454
 9495TIP3   OH252463   4.853   5.309   0.643
 9495TIP3    H152464   4.894   5.340   0.725
 9495TIP3    H252465   4.796   5.384   0.619
 9496TIP3   OH252466   4.307   5.303   1.633
 9496TIP3    H152467   4.300   5.294   1.537
 9496TIP3    H252468   4.214   5.289   1.661
 9497TIP3   OH252469   5.455   3.812   0.297
 9497TIP3    H152470   5.357   3.818   0.304
 9497TIP3    H252471   5.473   3.891   0.240
 9498TIP3   OH252472   4.251   4.683   0.482
 9498TIP3    H152473   4.221   4.762   0.434
 9498TIP3    H252474   4.185   4.617   0.461
 9499TIP3   OH252475   5.567   5.243   0.124
 9499TIP3    H152476   5.580   5.338   0.142
 9499TIP3    H252477   5.659   5.211   0.121
 9500TIP3   OH252478   3.859   4.927   1.376
 9500TIP3    H152479   3.815   4.919   1.289
 9500TIP3    H252480   3.869   4.832   1.397
 9501TIP3   OH252481   3.835   5.201   1.052
 9501TIP3    H152482   3.931   5.189   1.050
 9501TIP3    H252483   3.827   5.283   1.102
 9502TIP3   OH252484   5.660   5.272   1.622
 9502TIP3    H152485   5.647   5.176   1.618
 9502TIP3    H252486   5.572   5.297   1.660
 9503TIP3   OH252487   4.755   5.225   1.507
 9503TIP3    H152488   4.761   5.309   1.558
 9503TIP3    H252489   4.668   5.189   1.532
 9504TIP3   OH252490   4.801   5.601   0.489
 9504TIP3    H152491   4.787   5.594   0.393
 9504TIP3    H252492   4.803   5.697   0.504
 9505TIP3   OH252493   4.163   5.488   0.668
 9505TIP3    H152494   4.178   5.447   0.756
 9505TIP3    H252495   4.078   5.446   0.646
 9506TIP3   OH252496   5.100   5.517   0.192
 9506TIP3    H152497   5.155   5.447   0.148
 9506TIP3    H252498   5.110   5.491   0.285
 9507TIP3   OH252499   5.075   5.515   0.465
 9507TIP3    H152500   4.979   5.523   0.482
 9507TIP3    H252501   5.098   5.440   0.521
 9508TIP3   OH252502   5.376   4.417   1.667
 9508TIP3    H152503   5.326   4.464   1.599
 9508TIP3    H252504   5.372   4.325   1.639
 9509TIP3   OH252505   4.089   5.059   1.469
 9509TIP3    H152506   4.110   5.023   1.557
 9509TIP3    H252507   4.001   5.019   1.447
 9510TIP3   OH252508   4.356   3.909   1.056
 9510TIP3    H152509   4.264   3.894   1.025
 9510TIP3    H252510   4.343   3.986   1.114
 9511TIP3   OH252511   4.825   3.872   1.399
 9511TIP3    H152512   4.859   3.830   1.480
 9511TIP3    H252513   4.726   3.865   1.410
 9512TIP3   OH252514   5.146   4.265   1.482
 9512TIP3    H152515   5.097   4.232   1.563
 9512TIP3    H252516   5.124   4.358   1.482
 9513TIP3   OH252517   5.233   4.723   0.085
 9513TIP3    H152518   5.217   4.734  -0.010
 9513TIP3    H252519   5.310   4.781   0.092
 9514TIP3   OH252520   4.789   4.131   0.135
 9514TIP3    H152521   4.749   4.124   0.223
 9514TIP3    H252522   4.753   4.047   0.101
 9515TIP3   OH252523   4.368   4.405   1.191
 9515TIP3    H152524   4.294   4.402   1.255
 9515TIP3    H252525   4.359   4.494   1.151
 9516TIP3   OH252526   4.361   4.415   0.676
 9516TIP3    H152527   4.268   4.390   0.662
 9516TIP3    H252528   4.401   4.387   0.592
 9517TIP3   OH252529   4.914   4.465   0.551
 9517TIP3    H152530   4.876   4.548   0.515
 9517TIP3    H252531   4.983   4.449   0.485
 9518TIP3   OH252532   4.821   4.485   1.693
 9518TIP3    H152533   4.767   4.408   1.724
 9518TIP3    H252534   4.902   4.476   1.746
 9519TIP3   OH252535   5.021   4.415   0.838
 9519TIP3    H152536   4.989   4.471   0.765
 9519TIP3    H252537   5.026   4.330   0.790
 9520TIP3   OH252538   4.128   4.427   1.356
 9520TIP3    H152539   4.138   4.469   1.443
 9520TIP3    H252540   4.086   4.343   1.379
 9521TIP3   OH252541   4.476   4.085   0.059
 9521TIP3    H152542   4.426   4.092   0.142
 9521TIP3    H252543   4.414   4.144   0.012
 9522TIP3   OH252544   3.795   4.139   0.755
 9522TIP3    H152545   3.863   4.135   0.826
 9522TIP3    H252546   3.840   4.102   0.677
 9523TIP3   OH252547   3.910   4.211   0.279
 9523TIP3    H152548   3.979   4.270   0.241
 9523TIP3    H252549   3.856   4.275   0.330
 9524TIP3   OH252550   4.947   4.570   1.296
 9524TIP3    H152551   4.967   4.504   1.228
 9524TIP3    H252552   4.886   4.522   1.358
 9525TIP3   OH252553   4.617   4.173   0.778
 9525TIP3    H152554   4.523   4.171   0.806
 9525TIP3    H252555   4.665   4.151   0.859
 9526TIP3   OH252556   4.098   4.325   0.663
 9526TIP3    H152557   4.011   4.341   0.621
 9526TIP3    H252558   4.128   4.241   0.623
 9527TIP3   OH252559   4.462   4.334   0.431
 9527TIP3    H152560   4.558   4.341   0.443
 9527TIP3    H252561   4.439   4.398   0.361
 9528TIP3   OH252562   5.059   4.101   1.099
 9528TIP3    H152563   4.991   4.095   1.170
 9528TIP3    H252564   5.009   4.065   1.023
 9529TIP3   OH252565   4.328   4.459   0.189
 9529TIP3    H152566   4.284   4.406   0.120
 9529TIP3    H252567   4.413   4.467   0.143
 9530TIP3   OH252568   5.379   5.658   1.733
 9530TIP3    H152569   5.405   5.696   1.647
 9530TIP3    H252570   5.451   5.689   1.789
 9531TIP3   OH252571   4.146   4.906   1.690
 9531TIP3    H152572   4.218   4.930   1.750
 9531TIP3    H252573   4.069   4.912   1.751
 9532TIP3   OH252574   4.750   4.448   0.969
 9532TIP3    H152575   4.803   4.393   0.910
 9532TIP3    H252576   4.727   4.389   1.043
 9533TIP3   OH252577   4.249   4.061   0.614
 9533TIP3    H152578   4.215   3.969   0.608
 9533TIP3    H252579   4.323   4.054   0.552
 9534TIP3   OH252580   4.615   4.285   1.202
 9534TIP3    H152581   4.528   4.328   1.216
 9534TIP3    H252582   4.663   4.312   1.282
 9535TIP3   OH252583   4.669   4.897   0.379
 9535TIP3    H152584   4.588   4.854   0.343
 9535TIP3    H252585   4.644   4.914   0.471
 9536TIP3   OH252586   5.389   4.819   1.255
 9536TIP3    H152587   5.444   4.872   1.194
 9536TIP3    H252588   5.302   4.828   1.211
 9537TIP3   OH252589   5.054   4.190   0.180
 9537TIP3    H152590   4.957   4.193   0.183
 9537TIP3    H252591   5.086   4.266   0.233
 9538TIP3   OH252592   4.818   4.930   1.501
 9538TIP3    H152593   4.783   4.886   1.579
 9538TIP3    H252594   4.791   5.021   1.513
 9539TIP3   OH252595   5.122   4.376   0.362
 9539TIP3    H152596   5.213   4.359   0.395
 9539TIP3    H252597   5.135   4.456   0.309
 9540TIP3   OH252598   4.180   4.842   0.957
 9540TIP3    H152599   4.247   4.833   0.887
 9540TIP3    H252600   4.186   4.756   1.003
 9541TIP3   OH252601   4.879   5.048   0.281
 9541TIP3    H152602   4.843   5.133   0.312
 9541TIP3    H252603   4.805   4.986   0.301
 9542TIP3   OH252604   3.879   4.680   1.484
 9542TIP3    H152605   3.895   4.636   1.569
 9542TIP3    H252606   3.817   4.621   1.439
 9543TIP3   OH252607   4.580   4.638   1.699
 9543TIP3    H152608   4.547   4.605   1.614
 9543TIP3    H252609   4.672   4.604   1.699
 9544TIP3   OH252610   5.050   5.171   1.497
 9544TIP3    H152611   4.957   5.189   1.473
 9544TIP3    H252612   5.046   5.201   1.590
 9545TIP3   OH252613   5.617   4.388   0.335
 9545TIP3    H152614   5.557   4.359   0.263
 9545TIP3    H252615   5.622   4.483   0.309
 9546TIP3   OH252616   5.614   4.975   1.614
 9546TIP3    H152617   5.525   4.998   1.578
 9546TIP3    H252618   5.668   4.969   1.533
 9547TIP3   OH252619   5.449   5.270   0.375
 9547TIP3    H152620   5.408   5.188   0.406
 9547TIP3    H252621   5.473   5.252   0.282
 9548TIP3   OH252622   5.165   4.749   1.090
 9548TIP3    H152623   5.071   4.735   1.070
 9548TIP3    H252624   5.208   4.680   1.036
 9549TIP3   OH252625   4.418   5.187   0.695
 9549TIP3    H152626   4.467   5.268   0.675
 9549TIP3    H252627   4.330   5.210   0.662
 9550TIP3   OH252628   3.991   4.672   0.147
 9550TIP3    H152629   4.052   4.731   0.194
 9550TIP3    H252630   3.904   4.704   0.180
 9551TIP3   OH252631   4.558   4.953   0.647
 9551TIP3    H152632   4.526   5.045   0.654
 9551TIP3    H252633   4.487   4.903   0.691
 9552TIP3   OH252634   4.603   5.372   1.289
 9552TIP3    H152635   4.650   5.451   1.259
 9552TIP3    H252636   4.665   5.337   1.355
 9553TIP3   OH252637   4.425   5.451   0.606
 9553TIP3    H152638   4.329   5.467   0.614
 9553TIP3    H252639   4.462   5.537   0.633
 9554TIP3   OH252640   4.953   4.971   1.249
 9554TIP3    H152641   4.924   4.952   1.341
 9554TIP3    H252642   5.019   4.902   1.232
 9555TIP3   OH252643   5.184   5.075   0.159
 9555TIP3    H152644   5.220   5.032   0.238
 9555TIP3    H252645   5.090   5.058   0.174
 9556TIP3   OH252646   5.239   5.429   1.498
 9556TIP3    H152647   5.169   5.380   1.451
 9556TIP3    H252648   5.256   5.499   1.431
 9557TIP3   OH252649   5.636   5.516   0.184
 9557TIP3    H152650   5.707   5.580   0.166
 9557TIP3    H252651   5.564   5.577   0.211
 9558TIP3   OH252652   4.044   4.156   1.437
 9558TIP3    H152653   3.953   4.189   1.437
 9558TIP3    H252654   4.036   4.071   1.484
 9559TIP3   OH252655   5.267   4.943   0.388
 9559TIP3    H152656   5.243   4.862   0.437
 9559TIP3    H252657   5.364   4.944   0.400
 9560TIP3   OH252658   4.005   5.332   1.280
 9560TIP3    H152659   4.037   5.241   1.281
 9560TIP3    H252660   4.031   5.362   1.367
 9561TIP3   OH252661   4.475   5.138   0.256
 9561TIP3    H152662   4.512   5.090   0.331
 9561TIP3    H252663   4.489   5.233   0.280
 9562TIP3   OH252664   4.130   4.864   0.299
 9562TIP3    H152665   4.062   4.904   0.356
 9562TIP3    H252666   4.186   4.940   0.276
 9563TIP3   OH252667   4.923   4.131   1.333
 9563TIP3    H152668   4.986   4.134   1.405
 9563TIP3    H252669   4.875   4.047   1.355
 9564TIP3   OH252670   4.997   4.084   0.443
 9564TIP3    H152671   5.016   4.135   0.364
 9564TIP3    H252672   5.046   4.135   0.509
 9565TIP3   OH252673   4.760   5.305   0.326
 9565TIP3    H152674   4.678   5.357   0.333
 9565TIP3    H252675   4.812   5.357   0.262
 9566TIP3   OH252676   4.714   4.264   0.525
 9566TIP3    H152677   4.792   4.323   0.529
 9566TIP3    H252678   4.688   4.252   0.619
 9567TIP3   OH252679   4.783   4.374   1.438
 9567TIP3    H152680   4.773   4.419   1.525
 9567TIP3    H252681   4.829   4.291   1.457
 9568TIP3   OH252682   4.799   3.970   0.611
 9568TIP3    H152683   4.766   4.034   0.676
 9568TIP3    H252684   4.869   4.024   0.567
 9569TIP3   OH252685   4.499   5.408   0.334
 9569TIP3    H152686   4.510   5.484   0.273
 9569TIP3    H252687   4.470   5.449   0.417
 9570TIP3   OH252688   4.362   4.086   0.305
 9570TIP3    H152689   4.365   4.180   0.324
 9570TIP3    H252690   4.455   4.057   0.308
 9571TIP3   OH252691   5.386   4.153   1.527
 9571TIP3    H152692   5.293   4.182   1.516
 9571TIP3    H252693   5.419   4.148   1.436
 9572TIP3   OH252694   5.246   4.533   0.935
 9572TIP3    H152695   5.168   4.487   0.898
 9572TIP3    H252696   5.301   4.462   0.974
 9573TIP3   OH252697   4.192   5.120   0.192
 9573TIP3    H152698   4.256   5.188   0.220
 9573TIP3    H252699   4.241   5.081   0.118
 9574TIP3   OH252700   4.025   4.394   0.106
 9574TIP3    H152701   4.028   4.491   0.123
 9574TIP3    H252702   3.940   4.378   0.069
 9575TIP3   OH252703   5.355   5.459   1.095
 9575TIP3    H152704   5.347   5.527   1.025
 9575TIP3    H252705   5.452   5.464   1.113
 9576TIP3   OH252706   4.100   3.871   0.976
 9576TIP3    H152707   4.085   3.871   0.879
 9576TIP3    H252708   4.063   3.784   1.001
 9577TIP3   OH252709   3.999   5.264   0.592
 9577TIP3    H152710   3.913   5.308   0.585
 9577TIP3    H252711   4.046   5.307   0.520
 9578TIP3   OH252712   3.919   5.528   1.719
 9578TIP3    H152713   3.980   5.509   1.793
 9578TIP3    H252714   3.881   5.440   1.701
 9579TIP3   OH252715   4.389   5.420   1.879
 9579TIP3    H152716   4.464   5.370   1.913
 9579TIP3    H252717   4.386   5.391   1.786
 9580TIP3   OH252718   4.818   5.378   0.053
 9580TIP3    H152719   4.734   5.327   0.060
 9580TIP3    H252720   4.877   5.325   0.001
 9581TIP3   OH252721   5.038   5.258   1.756
 9581TIP3    H152722   5.007   5.170   1.783
 9581TIP3    H252723   5.115   5.270   1.814
 9582TIP3   OH252724   5.281   5.339   0.096
 9582TIP3    H152725   5.292   5.243   0.093
 9582TIP3    H252726   5.313   5.369   0.009
 9583TIP3   OH252727   3.910   4.905   1.819
 9583TIP3    H152728   3.927   4.813   1.789
 9583TIP3    H252729   3.837   4.930   1.761
 9584TIP3   OH252730   4.330   4.919   0.022
 9584TIP3    H152731   4.364   4.854   0.085
 9584TIP3    H252732   4.409   4.933  -0.033
 9585TIP3   OH252733   4.583   4.904   1.757
 9585TIP3    H152734   4.549   4.936   1.671
 9585TIP3    H252735   4.589   4.806   1.746
 9586TIP3   OH252736   5.152   4.887   1.494
 9586TIP3    H152737   5.231   4.945   1.491
 9586TIP3    H252738   5.083   4.955   1.500
 9587TIP3   OH252739   4.004   4.628   1.756
 9587TIP3    H152740   4.046   4.542   1.747
 9587TIP3    H252741   3.980   4.630   1.851
 9588TIP3   OH252742   4.468   4.744   0.263
 9588TIP3    H152743   4.418   4.689   0.325
 9588TIP3    H252744   4.500   4.675   0.199
 9589TIP3   OH252745   4.393   4.524   1.491
 9589TIP3    H152746   4.333   4.596   1.516
 9589TIP3    H252747   4.434   4.560   1.411
 9590TIP3   OH252748   4.577   4.566   0.090
 9590TIP3    H152749   4.555   4.552  -0.004
 9590TIP3    H252750   4.675   4.573   0.092
 9591TIP3   OH252751   4.901   4.778   1.825
 9591TIP3    H152752   4.997   4.776   1.812
 9591TIP3    H252753   4.884   4.702   1.883
 9592TIP3   OH252754   5.506   4.793  11.009
 9592TIP3    H152755   5.490   4.755  10.923
 9592TIP3    H252756   5.512   4.888  10.988
 9593TIP3   OH252757   4.434   4.269   1.598
 9593TIP3    H152758   4.445   4.187   1.541
 9593TIP3    H252759   4.429   4.343   1.536
 9594TIP3   OH252760   4.474   4.112   1.346
 9594TIP3    H152761   4.526   4.145   1.272
 9594TIP3    H252762   4.386   4.089   1.312
 9595TIP3   OH252763   4.626   4.649   1.379
 9595TIP3    H152764   4.701   4.632   1.321
 9595TIP3    H252765   4.589   4.732   1.345
 9596TIP3   OH252766   5.068   4.422   1.873
 9596TIP3    H152767   5.093   4.329   1.863
 9596TIP3    H252768   5.154   4.467   1.877
 9597TIP3   OH252769   5.204   4.701   1.690
 9597TIP3    H152770   5.177   4.775   1.630
 9597TIP3    H252771   5.300   4.702   1.674
 9598TIP3   OH252772   4.280   4.384   1.791
 9598TIP3    H152773   4.205   4.325   1.772
 9598TIP3    H252774   4.346   4.348   1.728
 9599TIP3   OH252775   4.569   3.845   1.336
 9599TIP3    H152776   4.545   3.927   1.384
 9599TIP3    H252777   4.482   3.803   1.340
 9600TIP3   OH252778   4.679   4.274   1.755
 9600TIP3    H152779   4.647   4.248   1.843
 9600TIP3    H252780   4.602   4.249   1.700
 9601TIP3   OH252781   4.952   4.187   1.661
 9601TIP3    H152782   4.856   4.193   1.674
 9601TIP3    H252783   4.977   4.126   1.734
 9602TIP3   OH252784   5.108   4.050   1.853
 9602TIP3    H152785   5.106   3.953   1.857
 9602TIP3    H252786   5.086   4.080   1.943
 9603TIP3   OH252787   4.086   4.181   1.767
 9603TIP3    H152788   4.113   4.109   1.707
 9603TIP3    H252789   4.079   4.133   1.851
 9604TIP3   OH252790   4.590   3.714   1.689
 9604TIP3    H152791   4.679   3.685   1.665
 9604TIP3    H252792   4.565   3.768   1.612
 9605TIP3   OH252793   4.610   3.944   1.876
 9605TIP3    H152794   4.592   3.894   1.793
 9605TIP3    H252795   4.551   4.019   1.858
 9606TIP3   OH252796   4.565   5.667   0.216
 9606TIP3    H152797   4.658   5.642   0.198
 9606TIP3    H252798   4.536   5.683   0.125
 9607TIP3   OH252799   3.920   5.090   0.140
 9607TIP3    H152800   4.016   5.101   0.158
 9607TIP3    H252801   3.923   5.032   0.063
 9608TIP3   OH252802   3.791   5.629   0.635
 9608TIP3    H152803   3.719   5.580   0.589
 9608TIP3    H252804   3.819   5.564   0.702
 9609TIP3   OH252805   3.873   5.443   0.823
 9609TIP3    H152806   3.838   5.356   0.843
 9609TIP3    H252807   3.896   5.476   0.912
 9610TIP3   OH252808   5.628   5.523   1.115
 9610TIP3    H152809   5.631   5.538   1.211
 9610TIP3    H252810   5.698   5.581   1.085
 9611TIP3   OH252811   5.584   5.483   1.410
 9611TIP3    H152812   5.538   5.406   1.371
 9611TIP3    H252813   5.632   5.438   1.482
 9612TIP3   OH252814   5.429   5.054   1.878
 9612TIP3    H152815   5.338   5.052   1.914
 9612TIP3    H252816   5.466   5.135   1.918
 9613TIP3   OH252817   5.563   4.886   0.419
 9613TIP3    H152818   5.648   4.927   0.441
 9613TIP3    H252819   5.559   4.816   0.488
 9614TIP3   OH252820   5.596   4.696   0.609
 9614TIP3    H152821   5.521   4.646   0.648
 9614TIP3    H252822   5.656   4.708   0.686
 9615TIP3   OH252823   5.572   4.965   1.108
 9615TIP3    H152824   5.653   4.926   1.069
 9615TIP3    H252825   5.587   5.060   1.090
 9616TIP3   OH252826   5.428   5.255   1.334
 9616TIP3    H152827   5.359   5.290   1.393
 9616TIP3    H252828   5.374   5.216   1.263
 9617TIP3   OH252829   5.626   4.677   0.243
 9617TIP3    H152830   5.565   4.713   0.174
 9617TIP3    H252831   5.614   4.746   0.312
 9618TIP3   OH252832   5.464   4.404   0.098
 9618TIP3    H152833   5.464   4.469   0.028
 9618TIP3    H252834   5.443   4.320   0.055
 9619TIP3   OH252835   5.379   4.542   0.666
 9619TIP3    H152836   5.364   4.447   0.662
 9619TIP3    H252837   5.347   4.565   0.755
 9620TIP3   OH252838   3.879   4.751   1.073
 9620TIP3    H152839   3.896   4.743   0.976
 9620TIP3    H252840   3.969   4.732   1.107
 9621TIP3   OH252841   5.464   4.737   1.634
 9621TIP3    H152842   5.527   4.663   1.650
 9621TIP3    H252843   5.524   4.815   1.635
 9622TIP3   OH252844   5.616   4.527   1.701
 9622TIP3    H152845   5.527   4.487   1.688
 9622TIP3    H252846   5.672   4.448   1.693
 9623TIP3   OH252847   5.368   4.132   0.125
 9623TIP3    H152848   5.453   4.100   0.090
 9623TIP3    H252849   5.311   4.106   0.051
 9624TIP3   OH252850   5.344   4.300   0.512
 9624TIP3    H152851   5.375   4.208   0.520
 9624TIP3    H252852   5.422   4.342   0.473
 9625TIP3   OH252853   5.407   4.356   1.060
 9625TIP3    H152854   5.504   4.377   1.050
 9625TIP3    H252855   5.403   4.371   1.155
 9626TIP3   OH252856   5.412   4.430   1.327
 9626TIP3    H152857   5.341   4.469   1.381
 9626TIP3    H252858   5.468   4.511   1.311
 9627TIP3   OH252859   3.841   4.282   1.688
 9627TIP3    H152860   3.934   4.260   1.707
 9627TIP3    H252861   3.795   4.199   1.713
 9628TIP3   OH252862   5.644   3.834   1.868
 9628TIP3    H152863   5.679   3.768   1.806
 9628TIP3    H252864   5.653   3.915   1.813
 9629TIP3   OH252865   5.417   4.027   0.513
 9629TIP3    H152866   5.431   4.000   0.605
 9629TIP3    H252867   5.347   3.973   0.471
 9630TIP3   OH252868   3.961   4.111   0.973
 9630TIP3    H152869   4.007   4.027   0.997
 9630TIP3    H252870   4.018   4.179   1.011
 9631TIP3   OH252871   3.789   4.411   1.076
 9631TIP3    H152872   3.846   4.385   1.000
 9631TIP3    H252873   3.837   4.491   1.103
 9632TIP3   OH252874   5.595   4.044   1.703
 9632TIP3    H152875   5.502   4.071   1.698
 9632TIP3    H252876   5.598   3.988   1.624
 9633TIP3   OH252877   5.605   4.027   0.174
 9633TIP3    H152878   5.645   3.964   0.113
 9633TIP3    H252879   5.669   4.098   0.182
 9634TIP3   OH252880   3.824   4.036   0.482
 9634TIP3    H152881   3.730   4.055   0.470
 9634TIP3    H252882   3.868   4.085   0.412
 9635TIP3   OH252883   5.300   5.530   0.678
 9635TIP3    H152884   5.367   5.501   0.614
 9635TIP3    H252885   5.351   5.580   0.743
 9636TIP3   OH252886   3.821   3.901   1.312
 9636TIP3    H152887   3.754   3.882   1.381
 9636TIP3    H252888   3.775   3.968   1.258
 9637TIP3   OH252889   4.045   5.220   1.729
 9637TIP3    H152890   3.962   5.243   1.685
 9637TIP3    H252891   4.019   5.213   1.820
 9638TIP3   OH252892   4.334   5.322   1.357
 9638TIP3    H152893   4.303   5.410   1.330
 9638TIP3    H252894   4.427   5.330   1.326
 9639TIP3   OH252895   4.767   5.464   1.646
 9639TIP3    H152896   4.779   5.429   1.737
 9639TIP3    H252897   4.857   5.495   1.623
 9640TIP3   OH252898   4.995   5.591   1.579
 9640TIP3    H152899   5.069   5.533   1.555
 9640TIP3    H252900   5.032   5.636   1.658
 9641TIP3   OH252901   5.499   3.852   1.489
 9641TIP3    H152902   5.415   3.880   1.449
 9641TIP3    H252903   5.515   3.769   1.439
 9642TIP3   OH252904   4.077   5.645   1.355
 9642TIP3    H152905   4.004   5.696   1.316
 9642TIP3    H252906   4.047   5.627   1.445
 9643TIP3   OH252907   4.324   5.603   1.263
 9643TIP3    H152908   4.234   5.619   1.302
 9643TIP3    H252909   4.319   5.662   1.186
 9644TIP3   OH252910   4.795   5.594   1.181
 9644TIP3    H152911   4.749   5.650   1.116
 9644TIP3    H252912   4.808   5.658   1.255
 9645TIP3   OH252913   5.022   5.474   1.285
 9645TIP3    H152914   4.938   5.503   1.246
 9645TIP3    H252915   5.073   5.556   1.275
 9646TIP3   OH252916   5.280   5.631   1.305
 9646TIP3    H152917   5.277   5.727   1.283
 9646TIP3    H252918   5.303   5.594   1.217
 9647TIP3   OH252919   4.024   5.511   1.051
 9647TIP3    H152920   4.015   5.464   1.136
 9647TIP3    H252921   4.106   5.471   1.012
 9648TIP3   OH252922   4.231   5.381   0.916
 9648TIP3    H152923   4.215   5.288   0.940
 9648TIP3    H252924   4.317   5.398   0.960
 9649TIP3   OH252925   4.492   5.430   1.004
 9649TIP3    H152926   4.507   5.338   0.978
 9649TIP3    H252927   4.496   5.425   1.101
 9650TIP3   OH252928   4.836   3.995   0.917
 9650TIP3    H152929   4.768   3.931   0.946
 9650TIP3    H252930   4.890   3.940   0.860
 9651TIP3   OH252931   5.350   3.792   0.909
 9651TIP3    H152932   5.411   3.864   0.880
 9651TIP3    H252933   5.261   3.835   0.904
 9652TIP3   OH252934   5.521   3.931   0.752
 9652TIP3    H152935   5.599   3.877   0.720
 9652TIP3    H252936   5.570   4.016   0.768
 9653TIP3   OH252937   4.074   3.858   0.700
 9653TIP3    H152938   3.995   3.839   0.648
 9653TIP3    H252939   4.120   3.772   0.693
 9654TIP3   OH252940   3.947   3.833   0.276
 9654TIP3    H152941   4.003   3.893   0.224
 9654TIP3    H252942   3.899   3.891   0.337
 9655TIP3   OH252943   4.519   3.849   0.682
 9655TIP3    H152944   4.609   3.885   0.673
 9655TIP3    H252945   4.518   3.828   0.776
 9656TIP3   OH252946   5.098   3.850   0.841
 9656TIP3    H152947   5.081   3.864   0.747
 9656TIP3    H252948   5.053   3.763   0.857
 9657TIP3   OH252949   5.221   3.853   0.420
 9657TIP3    H152950   5.148   3.913   0.395
 9657TIP3    H252951   5.172   3.767   0.427
 9658TIP3   OH252952   3.944   5.429   0.372
 9658TIP3    H152953   3.871   5.430   0.307
 9658TIP3    H252954   3.945   5.524   0.393
 9659TIP3   OH252955   4.112   4.059   0.123
 9659TIP3    H152956   4.162   3.987   0.077
 9659TIP3    H252957   4.186   4.068   0.187
 9660TIP3   OH252958   4.645   4.053   0.360
 9660TIP3    H152959   4.659   3.993   0.436
 9660TIP3    H252960   4.644   4.137   0.411
 9661TIP3   OH252961   4.827   5.572   0.214
 9661TIP3    H152962   4.921   5.580   0.195
 9661TIP3    H252963   4.804   5.513   0.138
 9662TIP3   OH252964   5.499   5.511   0.481
 9662TIP3    H152965   5.478   5.431   0.426
 9662TIP3    H252966   5.490   5.584   0.415
 9663TIP3   OH252967   4.060   3.912   1.648
 9663TIP3    H152968   4.024   3.831   1.687
 9663TIP3    H252969   4.154   3.908   1.679
 9664TIP3   OH252970   4.260   3.850   1.824
 9664TIP3    H152971   4.347   3.825   1.784
 9664TIP3    H252972   4.229   3.764   1.856
 9665TIP3   OH252973   4.116   5.514   0.071
 9665TIP3    H152974   4.096   5.554   0.157
 9665TIP3    H252975   4.204   5.475   0.084
 9666TIP3   OH252976   5.102   3.780   1.827
 9666TIP3    H152977   5.110   3.731   1.911
 9666TIP3    H252978   5.194   3.775   1.793
 9667TIP3   OH252979   5.423   5.384   1.689
 9667TIP3    H152980   5.343   5.371   1.634
 9667TIP3    H252981   5.411   5.479   1.711
 9668TIP3   OH252982   6.869   4.772   0.684
 9668TIP3    H152983   6.866   4.870   0.684
 9668TIP3    H252984   6.794   4.748   0.628
 9669TIP3   OH252985   6.754   4.696   1.037
 9669TIP3    H152986   6.752   4.632   1.109
 9669TIP3    H252987   6.717   4.645   0.963
 9670TIP3   OH252988   5.987   4.665   1.193
 9670TIP3    H152989   5.997   4.596   1.262
 9670TIP3    H252990   6.063   4.721   1.215
 9671TIP3   OH252991   7.121   4.990   0.866
 9671TIP3    H152992   7.080   4.919   0.916
 9671TIP3    H252993   7.125   5.060   0.933
 9672TIP3   OH252994   6.081   5.110   1.042
 9672TIP3    H152995   6.050   5.022   1.011
 9672TIP3    H252996   6.176   5.092   1.046
 9673TIP3   OH252997   5.744   4.464   0.593
 9673TIP3    H152998   5.701   4.551   0.586
 9673TIP3    H252999   5.689   4.410   0.534
 9674TIP3   OH253000   5.816   4.688   0.808
 9674TIP3    H153001   5.844   4.605   0.852
 9674TIP3    H253002   5.884   4.699   0.740
 9675TIP3   OH253003   6.843   5.512   0.899
 9675TIP3    H153004   6.896   5.438   0.858
 9675TIP3    H253005   6.801   5.467   0.973
 9676TIP3   OH253006   6.591   4.936   1.086
 9676TIP3    H153007   6.624   4.874   1.020
 9676TIP3    H253008   6.672   4.953   1.136
 9677TIP3   OH253009   7.450   4.104   1.157
 9677TIP3    H153010   7.467   4.161   1.234
 9677TIP3    H253011   7.510   4.145   1.093
 9678TIP3   OH253012   6.907   4.384   1.117
 9678TIP3    H153013   6.925   4.288   1.118
 9678TIP3    H253014   6.897   4.397   1.021
 9679TIP3   OH253015   6.218   4.193   0.838
 9679TIP3    H153016   6.230   4.276   0.788
 9679TIP3    H253017   6.179   4.135   0.768
 9680TIP3   OH253018   6.992   4.200   0.674
 9680TIP3    H153019   7.057   4.169   0.742
 9680TIP3    H253020   7.049   4.257   0.621
 9681TIP3   OH253021   5.880   4.434   0.911
 9681TIP3    H153022   5.947   4.380   0.957
 9681TIP3    H253023   5.893   4.403   0.820
 9682TIP3   OH253024   6.396   4.590   0.845
 9682TIP3    H153025   6.464   4.531   0.882
 9682TIP3    H253026   6.346   4.525   0.792
 9683TIP3   OH253027   7.492   4.243   1.382
 9683TIP3    H153028   7.432   4.320   1.373
 9683TIP3    H253029   7.503   4.238   1.480
 9684TIP3   OH253030   6.110   4.083   1.242
 9684TIP3    H153031   6.082   4.140   1.167
 9684TIP3    H253032   6.043   4.105   1.310
 9685TIP3   OH253033   6.837   5.031   0.598
 9685TIP3    H153034   6.810   5.002   0.509
 9685TIP3    H253035   6.808   5.125   0.599
 9686TIP3   OH253036   6.360   4.847   1.265
 9686TIP3    H153037   6.291   4.911   1.288
 9686TIP3    H253038   6.431   4.906   1.236
 9687TIP3   OH253039   7.174   4.136   0.874
 9687TIP3    H153040   7.152   4.059   0.928
 9687TIP3    H253041   7.241   4.179   0.930
 9688TIP3   OH253042   6.068   4.268   1.046
 9688TIP3    H153043   6.130   4.337   1.077
 9688TIP3    H253044   6.119   4.228   0.970
 9689TIP3   OH253045   6.206   5.048   1.347
 9689TIP3    H153046   6.201   5.139   1.314
 9689TIP3    H253047   6.118   5.040   1.392
 9690TIP3   OH253048   5.812   5.006   0.425
 9690TIP3    H153049   5.791   5.042   0.336
 9690TIP3    H253050   5.820   5.088   0.478
 9691TIP3   OH253051   7.174   5.176   1.104
 9691TIP3    H153052   7.077   5.185   1.114
 9691TIP3    H253053   7.203   5.265   1.080
 9692TIP3   OH253054   7.205   4.004   1.242
 9692TIP3    H153055   7.134   4.068   1.231
 9692TIP3    H253056   7.278   4.046   1.191
 9693TIP3   OH253057   6.502   3.816   0.988
 9693TIP3    H153058   6.487   3.720   0.980
 9693TIP3    H253059   6.415   3.847   1.019
 9694TIP3   OH253060   7.004   5.355   0.769
 9694TIP3    H153061   7.040   5.282   0.712
 9694TIP3    H253062   7.046   5.431   0.723
 9695TIP3   OH253063   7.122   5.146   0.615
 9695TIP3    H153064   7.093   5.078   0.552
 9695TIP3    H253065   7.125   5.096   0.698
 9696TIP3   OH253066   7.283   5.007   1.463
 9696TIP3    H153067   7.298   4.940   1.393
 9696TIP3    H253068   7.305   5.090   1.417
 9697TIP3   OH253069   6.733   4.692   0.437
 9697TIP3    H153070   6.665   4.754   0.403
 9697TIP3    H253071   6.805   4.705   0.373
 9698TIP3   OH253072   6.741   4.550   0.142
 9698TIP3    H153073   6.813   4.553   0.208
 9698TIP3    H253074   6.770   4.478   0.087
 9699TIP3   OH253075   7.473   4.638   1.267
 9699TIP3    H153076   7.407   4.710   1.271
 9699TIP3    H253077   7.521   4.663   1.186
 9700TIP3   OH253078   7.080   4.715   0.531
 9700TIP3    H153079   7.005   4.740   0.591
 9700TIP3    H253080   7.127   4.648   0.585
 9701TIP3   OH253081   7.072   4.533   1.445
 9701TIP3    H153082   7.072   4.614   1.497
 9701TIP3    H253083   7.009   4.561   1.375
 9702TIP3   OH253084   6.239   4.781   0.723
 9702TIP3    H153085   6.208   4.743   0.638
 9702TIP3    H253086   6.301   4.713   0.756
 9703TIP3   OH253087   6.371   5.120   0.991
 9703TIP3    H153088   6.370   5.068   0.909
 9703TIP3    H253089   6.449   5.084   1.037
 9704TIP3   OH253090   6.271   4.657   1.090
 9704TIP3    H153091   6.326   4.666   1.009
 9704TIP3    H253092   6.312   4.723   1.150
 9705TIP3   OH253093   6.917   5.219   1.162
 9705TIP3    H153094   6.881   5.274   1.232
 9705TIP3    H253095   6.892   5.130   1.198
 9706TIP3   OH253096   6.368   5.100   1.559
 9706TIP3    H153097   6.325   5.173   1.608
 9706TIP3    H253098   6.301   5.079   1.489
 9707TIP3   OH253099   6.965   4.636   0.298
 9707TIP3    H153100   7.020   4.655   0.378
 9707TIP3    H253101   7.010   4.687   0.227
 9708TIP3   OH253102   6.062   4.716   1.473
 9708TIP3    H153103   6.068   4.782   1.544
 9708TIP3    H253104   5.968   4.724   1.454
 9709TIP3   OH253105   6.738   5.310   0.640
 9709TIP3    H153106   6.777   5.338   0.723
 9709TIP3    H253107   6.681   5.384   0.618
 9710TIP3   OH253108   6.193   5.303   1.633
 9710TIP3    H153109   6.186   5.294   1.537
 9710TIP3    H253110   6.100   5.289   1.661
 9711TIP3   OH253111   7.341   3.809   0.287
 9711TIP3    H153112   7.245   3.818   0.309
 9711TIP3    H253113   7.358   3.894   0.242
 9712TIP3   OH253114   6.137   4.683   0.482
 9712TIP3    H153115   6.106   4.762   0.434
 9712TIP3    H253116   6.070   4.617   0.461
 9713TIP3   OH253117   7.452   5.244   0.124
 9713TIP3    H153118   7.465   5.338   0.142
 9713TIP3    H253119   7.544   5.212   0.122
 9714TIP3   OH253120   5.744   4.927   1.376
 9714TIP3    H153121   5.701   4.919   1.289
 9714TIP3    H253122   5.754   4.833   1.397
 9715TIP3   OH253123   5.721   5.201   1.052
 9715TIP3    H153124   5.817   5.189   1.050
 9715TIP3    H253125   5.713   5.283   1.102
 9716TIP3   OH253126   7.545   5.271   1.621
 9716TIP3    H153127   7.534   5.174   1.619
 9716TIP3    H253128   7.459   5.295   1.660
 9717TIP3   OH253129   6.640   5.225   1.508
 9717TIP3    H153130   6.646   5.309   1.558
 9717TIP3    H253131   6.553   5.188   1.533
 9718TIP3   OH253132   6.684   5.600   0.487
 9718TIP3    H153133   6.675   5.594   0.391
 9718TIP3    H253134   6.688   5.696   0.503
 9719TIP3   OH253135   6.049   5.488   0.668
 9719TIP3    H153136   6.064   5.447   0.757
 9719TIP3    H253137   5.964   5.446   0.645
 9720TIP3   OH253138   6.985   5.516   0.193
 9720TIP3    H153139   7.040   5.447   0.149
 9720TIP3    H253140   6.997   5.491   0.286
 9721TIP3   OH253141   6.959   5.514   0.464
 9721TIP3    H153142   6.863   5.522   0.482
 9721TIP3    H253143   6.983   5.440   0.521
 9722TIP3   OH253144   7.254   4.418   1.670
 9722TIP3    H153145   7.210   4.462   1.595
 9722TIP3    H253146   7.261   4.326   1.638
 9723TIP3   OH253147   5.974   5.059   1.469
 9723TIP3    H153148   5.996   5.023   1.557
 9723TIP3    H253149   5.887   5.019   1.448
 9724TIP3   OH253150   6.243   3.907   1.063
 9724TIP3    H153151   6.152   3.893   1.027
 9724TIP3    H253152   6.228   3.989   1.113
 9725TIP3   OH253153   6.707   3.872   1.399
 9725TIP3    H153154   6.746   3.830   1.478
 9725TIP3    H253155   6.610   3.862   1.414
 9726TIP3   OH253156   7.030   4.257   1.486
 9726TIP3    H153157   6.977   4.236   1.567
 9726TIP3    H253158   7.016   4.352   1.468
 9727TIP3   OH253159   7.118   4.723   0.085
 9727TIP3    H153160   7.104   4.735  -0.010
 9727TIP3    H253161   7.195   4.782   0.093
 9728TIP3   OH253162   6.671   4.132   0.134
 9728TIP3    H153163   6.636   4.125   0.224
 9728TIP3    H253164   6.641   4.046   0.101
 9729TIP3   OH253165   6.253   4.405   1.190
 9729TIP3    H153166   6.178   4.404   1.254
 9729TIP3    H253167   6.247   4.495   1.152
 9730TIP3   OH253168   6.248   4.414   0.678
 9730TIP3    H153169   6.154   4.391   0.663
 9730TIP3    H253170   6.285   4.387   0.592
 9731TIP3   OH253171   6.800   4.465   0.550
 9731TIP3    H153172   6.762   4.549   0.515
 9731TIP3    H253173   6.870   4.448   0.484
 9732TIP3   OH253174   6.705   4.487   1.696
 9732TIP3    H153175   6.653   4.409   1.726
 9732TIP3    H253176   6.789   4.476   1.743
 9733TIP3   OH253177   6.904   4.416   0.837
 9733TIP3    H153178   6.875   4.472   0.764
 9733TIP3    H253179   6.913   4.331   0.791
 9734TIP3   OH253180   6.011   4.428   1.356
 9734TIP3    H153181   6.024   4.469   1.443
 9734TIP3    H253182   5.970   4.343   1.378
 9735TIP3   OH253183   6.355   4.078   0.058
 9735TIP3    H153184   6.315   4.100   0.143
 9735TIP3    H253185   6.301   4.143   0.010
 9736TIP3   OH253186   5.680   4.135   0.757
 9736TIP3    H153187   5.749   4.136   0.827
 9736TIP3    H253188   5.728   4.105   0.678
 9737TIP3   OH253189   5.807   4.211   0.291
 9737TIP3    H153190   5.858   4.273   0.235
 9737TIP3    H253191   5.738   4.272   0.325
 9738TIP3   OH253192   6.823   4.573   1.291
 9738TIP3    H153193   6.862   4.504   1.234
 9738TIP3    H253194   6.776   4.520   1.358
 9739TIP3   OH253195   6.504   4.172   0.776
 9739TIP3    H153196   6.411   4.171   0.804
 9739TIP3    H253197   6.552   4.153   0.858
 9740TIP3   OH253198   5.983   4.325   0.664
 9740TIP3    H153199   5.896   4.342   0.623
 9740TIP3    H253200   6.012   4.242   0.622
 9741TIP3   OH253201   6.347   4.333   0.430
 9741TIP3    H153202   6.443   4.341   0.443
 9741TIP3    H253203   6.324   4.398   0.361
 9742TIP3   OH253204   6.945   4.095   1.099
 9742TIP3    H153205   6.877   4.099   1.170
 9742TIP3    H253206   6.893   4.068   1.021
 9743TIP3   OH253207   6.213   4.460   0.189
 9743TIP3    H153208   6.167   4.409   0.119
 9743TIP3    H253209   6.298   4.466   0.143
 9744TIP3   OH253210   7.264   5.659   1.732
 9744TIP3    H153211   7.291   5.696   1.646
 9744TIP3    H253212   7.336   5.690   1.788
 9745TIP3   OH253213   6.031   4.906   1.690
 9745TIP3    H153214   6.104   4.930   1.750
 9745TIP3    H253215   5.954   4.912   1.751
 9746TIP3   OH253216   6.631   4.447   0.965
 9746TIP3    H153217   6.692   4.394   0.912
 9746TIP3    H253218   6.617   4.392   1.043
 9747TIP3   OH253219   6.132   4.060   0.612
 9747TIP3    H153220   6.101   3.968   0.609
 9747TIP3    H253221   6.210   4.053   0.554
 9748TIP3   OH253222   6.495   4.279   1.207
 9748TIP3    H153223   6.413   4.331   1.215
 9748TIP3    H253224   6.551   4.315   1.278
 9749TIP3   OH253225   6.555   4.898   0.378
 9749TIP3    H153226   6.474   4.854   0.343
 9749TIP3    H253227   6.530   4.914   0.471
 9750TIP3   OH253228   7.274   4.823   1.257
 9750TIP3    H153229   7.329   4.871   1.192
 9750TIP3    H253230   7.188   4.826   1.211
 9751TIP3   OH253231   6.939   4.190   0.180
 9751TIP3    H153232   6.842   4.194   0.183
 9751TIP3    H253233   6.972   4.266   0.233
 9752TIP3   OH253234   6.704   4.930   1.501
 9752TIP3    H153235   6.669   4.886   1.579
 9752TIP3    H253236   6.677   5.021   1.513
 9753TIP3   OH253237   7.009   4.376   0.361
 9753TIP3    H153238   7.099   4.359   0.396
 9753TIP3    H253239   7.021   4.457   0.309
 9754TIP3   OH253240   6.066   4.842   0.957
 9754TIP3    H153241   6.133   4.833   0.886
 9754TIP3    H253242   6.071   4.756   1.002
 9755TIP3   OH253243   6.764   5.048   0.281
 9755TIP3    H153244   6.728   5.133   0.313
 9755TIP3    H253245   6.690   4.987   0.301
 9756TIP3   OH253246   5.765   4.682   1.482
 9756TIP3    H153247   5.781   4.637   1.568
 9756TIP3    H253248   5.704   4.621   1.438
 9757TIP3   OH253249   6.466   4.638   1.699
 9757TIP3    H153250   6.433   4.605   1.614
 9757TIP3    H253251   6.558   4.604   1.699
 9758TIP3   OH253252   6.935   5.176   1.494
 9758TIP3    H153253   6.841   5.188   1.474
 9758TIP3    H253254   6.932   5.200   1.589
 9759TIP3   OH253255   7.503   4.387   0.333
 9759TIP3    H153256   7.440   4.359   0.263
 9759TIP3    H253257   7.507   4.483   0.310
 9760TIP3   OH253258   7.500   4.975   1.614
 9760TIP3    H153259   7.410   4.997   1.578
 9760TIP3    H253260   7.554   4.970   1.533
 9761TIP3   OH253261   7.336   5.270   0.376
 9761TIP3    H153262   7.294   5.189   0.406
 9761TIP3    H253263   7.358   5.253   0.282
 9762TIP3   OH253264   7.052   4.753   1.085
 9762TIP3    H153265   6.958   4.732   1.073
 9762TIP3    H253266   7.095   4.678   1.040
 9763TIP3   OH253267   6.302   5.186   0.695
 9763TIP3    H153268   6.352   5.267   0.675
 9763TIP3    H253269   6.215   5.209   0.662
 9764TIP3   OH253270   5.877   4.672   0.145
 9764TIP3    H153271   5.937   4.731   0.195
 9764TIP3    H253272   5.790   4.701   0.179
 9765TIP3   OH253273   6.444   4.953   0.646
 9765TIP3    H153274   6.411   5.045   0.655
 9765TIP3    H253275   6.373   4.903   0.692
 9766TIP3   OH253276   6.489   5.371   1.288
 9766TIP3    H153277   6.534   5.452   1.260
 9766TIP3    H253278   6.549   5.337   1.356
 9767TIP3   OH253279   6.313   5.451   0.602
 9767TIP3    H153280   6.217   5.466   0.613
 9767TIP3    H253281   6.349   5.537   0.632
 9768TIP3   OH253282   6.840   4.971   1.248
 9768TIP3    H153283   6.810   4.952   1.339
 9768TIP3    H253284   6.905   4.900   1.232
 9769TIP3   OH253285   7.069   5.075   0.159
 9769TIP3    H153286   7.106   5.032   0.238
 9769TIP3    H253287   6.975   5.058   0.174
 9770TIP3   OH253288   7.124   5.429   1.498
 9770TIP3    H153289   7.054   5.378   1.453
 9770TIP3    H253290   7.142   5.500   1.433
 9771TIP3   OH253291   7.523   5.515   0.185
 9771TIP3    H153292   7.593   5.579   0.166
 9771TIP3    H253293   7.450   5.576   0.211
 9772TIP3   OH253294   5.929   4.155   1.437
 9772TIP3    H153295   5.839   4.190   1.436
 9772TIP3    H253296   5.919   4.070   1.484
 9773TIP3   OH253297   7.153   4.943   0.388
 9773TIP3    H153298   7.129   4.862   0.438
 9773TIP3    H253299   7.249   4.943   0.399
 9774TIP3   OH253300   5.891   5.332   1.280
 9774TIP3    H153301   5.923   5.241   1.281
 9774TIP3    H253302   5.917   5.362   1.367
 9775TIP3   OH253303   6.363   5.141   0.254
 9775TIP3    H153304   6.397   5.088   0.328
 9775TIP3    H253305   6.375   5.233   0.286
 9776TIP3   OH253306   6.016   4.864   0.299
 9776TIP3    H153307   5.947   4.904   0.356
 9776TIP3    H253308   6.072   4.940   0.276
 9777TIP3   OH253309   6.803   4.132   1.335
 9777TIP3    H153310   6.875   4.139   1.399
 9777TIP3    H253311   6.765   4.045   1.356
 9778TIP3   OH253312   6.876   4.089   0.444
 9778TIP3    H153313   6.902   4.135   0.364
 9778TIP3    H253314   6.934   4.132   0.509
 9779TIP3   OH253315   6.643   5.303   0.320
 9779TIP3    H153316   6.564   5.359   0.336
 9779TIP3    H253317   6.700   5.358   0.265
 9780TIP3   OH253318   6.600   4.264   0.525
 9780TIP3    H153319   6.678   4.323   0.528
 9780TIP3    H253320   6.574   4.252   0.619
 9781TIP3   OH253321   6.656   4.367   1.444
 9781TIP3    H153322   6.663   4.422   1.525
 9781TIP3    H253323   6.722   4.297   1.453
 9782TIP3   OH253324   6.685   3.969   0.611
 9782TIP3    H153325   6.652   4.033   0.676
 9782TIP3    H253326   6.754   4.024   0.567
 9783TIP3   OH253327   6.383   5.410   0.329
 9783TIP3    H153328   6.399   5.492   0.276
 9783TIP3    H253329   6.357   5.445   0.416
 9784TIP3   OH253330   6.247   4.081   0.299
 9784TIP3    H153331   6.247   4.175   0.323
 9784TIP3    H253332   6.341   4.057   0.310
 9785TIP3   OH253333   7.272   4.154   1.529
 9785TIP3    H153334   7.179   4.186   1.515
 9785TIP3    H253335   7.303   4.152   1.437
 9786TIP3   OH253336   7.135   4.532   0.928
 9786TIP3    H153337   7.052   4.487   0.901
 9786TIP3    H253338   7.184   4.464   0.979
 9787TIP3   OH253339   6.077   5.123   0.189
 9787TIP3    H153340   6.143   5.186   0.222
 9787TIP3    H253341   6.126   5.079   0.118
 9788TIP3   OH253342   5.908   4.392   0.104
 9788TIP3    H153343   5.909   4.489   0.122
 9788TIP3    H253344   5.819   4.376   0.071
 9789TIP3   OH253345   7.242   5.464   1.093
 9789TIP3    H153346   7.247   5.527   1.018
 9789TIP3    H253347   7.340   5.460   1.113
 9790TIP3   OH253348   5.990   3.870   0.978
 9790TIP3    H153349   5.972   3.872   0.881
 9790TIP3    H253350   5.949   3.785   1.002
 9791TIP3   OH253351   5.885   5.264   0.592
 9791TIP3    H153352   5.798   5.307   0.586
 9791TIP3    H253353   5.931   5.308   0.519
 9792TIP3   OH253354   5.804   5.528   1.719
 9792TIP3    H153355   5.866   5.509   1.793
 9792TIP3    H253356   5.766   5.440   1.701
 9793TIP3   OH253357   6.275   5.420   1.879
 9793TIP3    H153358   6.350   5.369   1.913
 9793TIP3    H253359   6.272   5.391   1.786
 9794TIP3   OH253360   6.694   5.381   0.047
 9794TIP3    H153361   6.624   5.317   0.064
 9794TIP3    H253362   6.764   5.331   0.004
 9795TIP3   OH253363   6.924   5.258   1.756
 9795TIP3    H153364   6.892   5.170   1.784
 9795TIP3    H253365   7.001   5.270   1.815
 9796TIP3   OH253366   7.166   5.339   0.095
 9796TIP3    H153367   7.178   5.243   0.093
 9796TIP3    H253368   7.198   5.369   0.008
 9797TIP3   OH253369   5.796   4.905   1.819
 9797TIP3    H153370   5.813   4.814   1.790
 9797TIP3    H253371   5.723   4.930   1.761
 9798TIP3   OH253372   6.217   4.922   0.022
 9798TIP3    H153373   6.248   4.855   0.085
 9798TIP3    H253374   6.295   4.929  -0.036
 9799TIP3   OH253375   6.469   4.904   1.757
 9799TIP3    H153376   6.435   4.936   1.671
 9799TIP3    H253377   6.475   4.806   1.746
 9800TIP3   OH253378   7.038   4.889   1.497
 9800TIP3    H153379   7.117   4.947   1.492
 9800TIP3    H253380   6.968   4.957   1.500
 9801TIP3   OH253381   5.888   4.627   1.757
 9801TIP3    H153382   5.932   4.542   1.749
 9801TIP3    H253383   5.867   4.629   1.852
 9802TIP3   OH253384   6.353   4.744   0.263
 9802TIP3    H153385   6.303   4.689   0.325
 9802TIP3    H253386   6.385   4.675   0.199
 9803TIP3   OH253387   6.279   4.521   1.492
 9803TIP3    H153388   6.219   4.594   1.517
 9803TIP3    H253389   6.319   4.559   1.412
 9804TIP3   OH253390   6.463   4.567   0.090
 9804TIP3    H153391   6.441   4.552  -0.004
 9804TIP3    H253392   6.560   4.573   0.092
 9805TIP3   OH253393   6.787   4.779   1.827
 9805TIP3    H153394   6.883   4.776   1.815
 9805TIP3    H253395   6.769   4.702   1.883
 9806TIP3   OH253396   7.395   4.792  11.008
 9806TIP3    H153397   7.371   4.757  10.923
 9806TIP3    H253398   7.398   4.888  10.989
 9807TIP3   OH253399   6.320   4.259   1.597
 9807TIP3    H153400   6.331   4.189   1.530
 9807TIP3    H253401   6.315   4.341   1.543
 9808TIP3   OH253402   6.360   4.098   1.354
 9808TIP3    H153403   6.411   4.144   1.283
 9808TIP3    H253404   6.271   4.090   1.314
 9809TIP3   OH253405   6.514   4.648   1.378
 9809TIP3    H153406   6.589   4.631   1.321
 9809TIP3    H253407   6.477   4.731   1.343
 9810TIP3   OH253408   6.953   4.421   1.873
 9810TIP3    H153409   6.978   4.328   1.864
 9810TIP3    H253410   7.039   4.466   1.877
 9811TIP3   OH253411   7.089   4.702   1.691
 9811TIP3    H153412   7.063   4.773   1.629
 9811TIP3    H253413   7.184   4.699   1.673
 9812TIP3   OH253414   6.166   4.385   1.790
 9812TIP3    H153415   6.089   4.327   1.774
 9812TIP3    H253416   6.231   4.348   1.727
 9813TIP3   OH253417   6.439   3.842   1.391
 9813TIP3    H153418   6.419   3.938   1.382
 9813TIP3    H253419   6.364   3.804   1.341
 9814TIP3   OH253420   6.566   4.274   1.756
 9814TIP3    H153421   6.534   4.251   1.845
 9814TIP3    H253422   6.488   4.254   1.701
 9815TIP3   OH253423   6.838   4.189   1.666
 9815TIP3    H153424   6.742   4.195   1.676
 9815TIP3    H253425   6.864   4.124   1.735
 9816TIP3   OH253426   6.998   4.051   1.854
 9816TIP3    H153427   6.992   3.953   1.857
 9816TIP3    H253428   6.972   4.080   1.943
 9817TIP3   OH253429   5.974   4.179   1.766
 9817TIP3    H153430   5.998   4.105   1.708
 9817TIP3    H253431   5.964   4.135   1.853
 9818TIP3   OH253432   6.460   3.782   1.662
 9818TIP3    H153433   6.528   3.711   1.661
 9818TIP3    H253434   6.449   3.794   1.566
 9819TIP3   OH253435   6.497   3.942   1.875
 9819TIP3    H153436   6.479   3.891   1.792
 9819TIP3    H253437   6.437   4.019   1.865
 9820TIP3   OH253438   6.443   5.638   0.195
 9820TIP3    H153439   6.541   5.644   0.199
 9820TIP3    H253440   6.423   5.699   0.123
 9821TIP3   OH253441   5.806   5.089   0.140
 9821TIP3    H153442   5.902   5.102   0.158
 9821TIP3    H253443   5.808   5.032   0.063
 9822TIP3   OH253444   5.677   5.629   0.635
 9822TIP3    H153445   5.604   5.580   0.589
 9822TIP3    H253446   5.704   5.564   0.702
 9823TIP3   OH253447   5.759   5.443   0.823
 9823TIP3    H153448   5.723   5.356   0.843
 9823TIP3    H253449   5.782   5.476   0.912
 9824TIP3   OH253450   7.502   5.529   1.117
 9824TIP3    H153451   7.520   5.537   1.212
 9824TIP3    H253452   7.581   5.575   1.084
 9825TIP3   OH253453   7.467   5.482   1.409
 9825TIP3    H153454   7.424   5.403   1.372
 9825TIP3    H253455   7.518   5.440   1.480
 9826TIP3   OH253456   7.315   5.055   1.878
 9826TIP3    H153457   7.224   5.052   1.914
 9826TIP3    H253458   7.352   5.134   1.920
 9827TIP3   OH253459   7.449   4.886   0.419
 9827TIP3    H153460   7.534   4.927   0.442
 9827TIP3    H253461   7.444   4.816   0.488
 9828TIP3   OH253462   7.479   4.695   0.608
 9828TIP3    H153463   7.405   4.645   0.648
 9828TIP3    H253464   7.540   4.706   0.684
 9829TIP3   OH253465   7.456   4.964   1.107
 9829TIP3    H153466   7.538   4.925   1.070
 9829TIP3    H253467   7.472   5.059   1.090
 9830TIP3   OH253468   7.313   5.257   1.332
 9830TIP3    H153469   7.246   5.286   1.395
 9830TIP3    H253470   7.260   5.212   1.263
 9831TIP3   OH253471   7.513   4.678   0.241
 9831TIP3    H153472   7.450   4.713   0.175
 9831TIP3    H253473   7.501   4.745   0.311
 9832TIP3   OH253474   7.357   4.404   0.096
 9832TIP3    H153475   7.346   4.470   0.028
 9832TIP3    H253476   7.326   4.321   0.056
 9833TIP3   OH253477   7.264   4.542   0.667
 9833TIP3    H153478   7.250   4.446   0.662
 9833TIP3    H253479   7.232   4.562   0.757
 9834TIP3   OH253480   5.764   4.750   1.073
 9834TIP3    H153481   5.781   4.742   0.977
 9834TIP3    H253482   5.854   4.733   1.107
 9835TIP3   OH253483   7.350   4.740   1.634
 9835TIP3    H153484   7.411   4.664   1.647
 9835TIP3    H253485   7.411   4.817   1.635
 9836TIP3   OH253486   7.500   4.527   1.698
 9836TIP3    H153487   7.413   4.484   1.685
 9836TIP3    H253488   7.563   4.452   1.696
 9837TIP3   OH253489   7.252   4.135   0.123
 9837TIP3    H153490   7.337   4.098   0.092
 9837TIP3    H253491   7.196   4.106   0.050
 9838TIP3   OH253492   7.228   4.301   0.511
 9838TIP3    H153493   7.258   4.207   0.522
 9838TIP3    H253494   7.308   4.340   0.473
 9839TIP3   OH253495   7.295   4.355   1.057
 9839TIP3    H153496   7.391   4.377   1.055
 9839TIP3    H253497   7.277   4.369   1.151
 9840TIP3   OH253498   7.301   4.427   1.334
 9840TIP3    H153499   7.212   4.456   1.364
 9840TIP3    H253500   7.345   4.512   1.312
 9841TIP3   OH253501   5.727   4.282   1.689
 9841TIP3    H153502   5.821   4.260   1.707
 9841TIP3    H253503   5.681   4.199   1.714
 9842TIP3   OH253504   7.532   3.834   1.870
 9842TIP3    H153505   7.564   3.767   1.808
 9842TIP3    H253506   7.538   3.915   1.814
 9843TIP3   OH253507   7.296   4.031   0.517
 9843TIP3    H153508   7.321   3.986   0.601
 9843TIP3    H253509   7.238   3.966   0.473
 9844TIP3   OH253510   5.846   4.111   0.974
 9844TIP3    H153511   5.892   4.027   0.997
 9844TIP3    H253512   5.904   4.179   1.011
 9845TIP3   OH253513   5.673   4.413   1.076
 9845TIP3    H153514   5.731   4.385   1.002
 9845TIP3    H253515   5.724   4.491   1.102
 9846TIP3   OH253516   7.471   4.028   1.711
 9846TIP3    H153517   7.385   4.071   1.695
 9846TIP3    H253518   7.485   3.990   1.623
 9847TIP3   OH253519   7.490   4.031   0.169
 9847TIP3    H153520   7.531   3.961   0.118
 9847TIP3    H253521   7.557   4.098   0.186
 9848TIP3   OH253522   5.706   4.032   0.483
 9848TIP3    H153523   5.615   4.059   0.466
 9848TIP3    H253524   5.754   4.084   0.416
 9849TIP3   OH253525   7.185   5.529   0.681
 9849TIP3    H153526   7.250   5.501   0.613
 9849TIP3    H253527   7.239   5.582   0.740
 9850TIP3   OH253528   5.706   3.902   1.313
 9850TIP3    H153529   5.639   3.882   1.381
 9850TIP3    H253530   5.660   3.969   1.258
 9851TIP3   OH253531   5.931   5.220   1.729
 9851TIP3    H153532   5.847   5.243   1.685
 9851TIP3    H253533   5.904   5.213   1.820
 9852TIP3   OH253534   6.220   5.322   1.358
 9852TIP3    H153535   6.189   5.410   1.330
 9852TIP3    H253536   6.313   5.330   1.327
 9853TIP3   OH253537   6.652   5.465   1.647
 9853TIP3    H153538   6.664   5.429   1.738
 9853TIP3    H253539   6.742   5.495   1.625
 9854TIP3   OH253540   6.882   5.593   1.575
 9854TIP3    H153541   6.955   5.532   1.557
 9854TIP3    H253542   6.916   5.636   1.658
 9855TIP3   OH253543   7.383   3.853   1.490
 9855TIP3    H153544   7.301   3.882   1.449
 9855TIP3    H253545   7.401   3.771   1.439
 9856TIP3   OH253546   5.963   5.645   1.355
 9856TIP3    H153547   5.890   5.696   1.316
 9856TIP3    H253548   5.933   5.627   1.445
 9857TIP3   OH253549   6.209   5.603   1.263
 9857TIP3    H153550   6.120   5.619   1.302
 9857TIP3    H253551   6.205   5.662   1.186
 9858TIP3   OH253552   6.686   5.596   1.177
 9858TIP3    H153553   6.632   5.650   1.116
 9858TIP3    H253554   6.691   5.657   1.254
 9859TIP3   OH253555   6.906   5.475   1.283
 9859TIP3    H153556   6.816   5.501   1.255
 9859TIP3    H253557   6.944   5.563   1.302
 9860TIP3   OH253558   7.153   5.633   1.295
 9860TIP3    H153559   7.166   5.731   1.286
 9860TIP3    H253560   7.210   5.600   1.223
 9861TIP3   OH253561   5.910   5.511   1.050
 9861TIP3    H153562   5.901   5.464   1.136
 9861TIP3    H253563   5.991   5.471   1.012
 9862TIP3   OH253564   6.117   5.381   0.916
 9862TIP3    H153565   6.101   5.288   0.940
 9862TIP3    H253566   6.202   5.398   0.960
 9863TIP3   OH253567   6.377   5.430   1.004
 9863TIP3    H153568   6.392   5.337   0.978
 9863TIP3    H253569   6.382   5.424   1.101
 9864TIP3   OH253570   6.721   3.995   0.915
 9864TIP3    H153571   6.654   3.931   0.946
 9864TIP3    H253572   6.777   3.940   0.859
 9865TIP3   OH253573   7.236   3.799   0.922
 9865TIP3    H153574   7.297   3.859   0.872
 9865TIP3    H253575   7.147   3.835   0.900
 9866TIP3   OH253576   7.402   3.925   0.750
 9866TIP3    H153577   7.471   3.867   0.709
 9866TIP3    H253578   7.454   4.008   0.762
 9867TIP3   OH253579   5.959   3.856   0.705
 9867TIP3    H153580   5.883   3.839   0.648
 9867TIP3    H253581   6.007   3.771   0.697
 9868TIP3   OH253582   5.837   3.833   0.282
 9868TIP3    H153583   5.883   3.897   0.223
 9868TIP3    H253584   5.782   3.892   0.335
 9869TIP3   OH253585   6.405   3.850   0.681
 9869TIP3    H153586   6.495   3.885   0.672
 9869TIP3    H253587   6.403   3.828   0.774
 9870TIP3   OH253588   6.979   3.852   0.843
 9870TIP3    H153589   6.972   3.864   0.747
 9870TIP3    H253590   6.940   3.762   0.856
 9871TIP3   OH253591   7.104   3.854   0.409
 9871TIP3    H153592   7.030   3.914   0.396
 9871TIP3    H253593   7.060   3.769   0.430
 9872TIP3   OH253594   5.829   5.429   0.372
 9872TIP3    H153595   5.756   5.430   0.307
 9872TIP3    H253596   5.830   5.523   0.393
 9873TIP3   OH253597   6.017   4.020   0.131
 9873TIP3    H153598   6.075   3.965   0.077
 9873TIP3    H253599   6.084   4.064   0.187
 9874TIP3   OH253600   6.526   4.051   0.361
 9874TIP3    H153601   6.547   3.994   0.437
 9874TIP3    H253602   6.530   4.137   0.410
 9875TIP3   OH253603   6.712   5.572   0.213
 9875TIP3    H153604   6.807   5.582   0.197
 9875TIP3    H253605   6.693   5.512   0.137
 9876TIP3   OH253606   7.383   5.511   0.481
 9876TIP3    H153607   7.363   5.431   0.426
 9876TIP3    H253608   7.376   5.584   0.415
 9877TIP3   OH253609   5.947   3.912   1.647
 9877TIP3    H153610   5.907   3.832   1.686
 9877TIP3    H253611   6.038   3.907   1.686
 9878TIP3   OH253612   6.147   3.851   1.813
 9878TIP3    H153613   6.236   3.817   1.791
 9878TIP3    H253614   6.110   3.770   1.852
 9879TIP3   OH253615   6.006   5.520   0.070
 9879TIP3    H153616   5.979   5.554   0.156
 9879TIP3    H253617   6.087   5.471   0.089
 9880TIP3   OH253618   6.987   3.778   1.827
 9880TIP3    H153619   6.998   3.732   1.912
 9880TIP3    H253620   7.078   3.776   1.792
 9881TIP3   OH253621   7.309   5.384   1.690
 9881TIP3    H153622   7.229   5.369   1.636
 9881TIP3    H253623   7.296   5.479   1.711
 9882TIP3   OH253624   7.871   4.667   1.194
 9882TIP3    H153625   7.883   4.595   1.260
 9882TIP3    H253626   7.950   4.718   1.214
 9883TIP3   OH253627   7.947   5.096   1.058
 9883TIP3    H153628   7.931   5.013   1.010
 9883TIP3    H253629   8.045   5.099   1.051
 9884TIP3   OH253630   7.627   4.464   0.591
 9884TIP3    H153631   7.586   4.552   0.585
 9884TIP3    H253632   7.569   4.411   0.535
 9885TIP3   OH253633   7.702   4.688   0.807
 9885TIP3    H153634   7.729   4.606   0.852
 9885TIP3    H253635   7.772   4.698   0.741
 9886TIP3   OH253636   7.763   4.431   0.912
 9886TIP3    H153637   7.833   4.381   0.957
 9886TIP3    H253638   7.781   4.403   0.820
 9887TIP3   OH253639   7.974   4.080   1.237
 9887TIP3    H153640   7.963   4.145   1.164
 9887TIP3    H253641   7.917   4.114   1.309
 9888TIP3   OH253642   7.940   4.254   1.035
 9888TIP3    H153643   7.994   4.327   1.077
 9888TIP3    H253644   7.999   4.225   0.964
 9889TIP3   OH253645   8.072   5.083   1.349
 9889TIP3    H153646   8.064   5.169   1.308
 9889TIP3    H253647   7.986   5.063   1.392
 9890TIP3   OH253648   7.704   5.008   0.426
 9890TIP3    H153649   7.677   5.041   0.338
 9890TIP3    H253650   7.704   5.090   0.479
 9891TIP3   OH253651   7.937   4.718   1.472
 9891TIP3    H153652   7.945   4.777   1.548
 9891TIP3    H253653   7.842   4.722   1.455
 9892TIP3   OH253654   8.077   5.302   1.636
 9892TIP3    H153655   8.072   5.288   1.541
 9892TIP3    H253656   7.983   5.289   1.661
 9893TIP3   OH253657   8.019   4.687   0.480
 9893TIP3    H153658   7.991   4.767   0.431
 9893TIP3    H253659   7.950   4.623   0.462
 9894TIP3   OH253660   7.628   4.927   1.376
 9894TIP3    H153661   7.587   4.919   1.289
 9894TIP3    H253662   7.642   4.833   1.397
 9895TIP3   OH253663   7.607   5.202   1.054
 9895TIP3    H153664   7.703   5.190   1.050
 9895TIP3    H253665   7.601   5.285   1.102
 9896TIP3   OH253666   7.922   5.479   0.671
 9896TIP3    H153667   7.939   5.440   0.759
 9896TIP3    H253668   7.836   5.438   0.650
 9897TIP3   OH253669   7.848   5.064   1.475
 9897TIP3    H153670   7.878   5.018   1.558
 9897TIP3    H253671   7.767   5.016   1.448
 9898TIP3   OH253672   7.899   4.431   1.358
 9898TIP3    H153673   7.903   4.468   1.447
 9898TIP3    H253674   7.861   4.344   1.378
 9899TIP3   OH253675   7.563   4.137   0.756
 9899TIP3    H153676   7.631   4.135   0.827
 9899TIP3    H253677   7.611   4.104   0.678
 9900TIP3   OH253678   7.689   4.212   0.285
 9900TIP3    H153679   7.745   4.276   0.239
 9900TIP3    H253680   7.621   4.272   0.324
 9901TIP3   OH253681   7.866   4.331   0.660
 9901TIP3    H153682   7.777   4.339   0.623
 9901TIP3    H253683   7.899   4.243   0.632
 9902TIP3   OH253684   7.916   4.919   1.687
 9902TIP3    H153685   7.985   4.928   1.751
 9902TIP3    H253686   7.837   4.915   1.746
 9903TIP3   OH253687   7.968   4.056   0.589
 9903TIP3    H153688   7.964   3.962   0.617
 9903TIP3    H253689   8.065   4.064   0.582
 9904TIP3   OH253690   7.946   4.841   0.949
 9904TIP3    H153691   8.023   4.836   0.890
 9904TIP3    H253692   7.956   4.760   1.002
 9905TIP3   OH253693   7.651   4.681   1.484
 9905TIP3    H153694   7.667   4.636   1.569
 9905TIP3    H253695   7.589   4.619   1.441
 9906TIP3   OH253696   7.767   4.672   0.149
 9906TIP3    H153697   7.822   4.736   0.198
 9906TIP3    H253698   7.677   4.700   0.180
 9907TIP3   OH253699   7.813   4.154   1.441
 9907TIP3    H153700   7.723   4.189   1.434
 9907TIP3    H253701   7.800   4.068   1.486
 9908TIP3   OH253702   7.783   5.333   1.277
 9908TIP3    H153703   7.799   5.238   1.284
 9908TIP3    H253704   7.800   5.364   1.367
 9909TIP3   OH253705   7.906   4.866   0.294
 9909TIP3    H153706   7.836   4.901   0.353
 9909TIP3    H253707   7.958   4.947   0.278
 9910TIP3   OH253708   7.958   5.123   0.190
 9910TIP3    H153709   8.021   5.189   0.222
 9910TIP3    H253710   8.013   5.086   0.119
 9911TIP3   OH253711   7.795   4.392   0.100
 9911TIP3    H153712   7.796   4.487   0.128
 9911TIP3    H253713   7.701   4.371   0.098
 9912TIP3   OH253714   7.873   3.871   0.978
 9912TIP3    H153715   7.862   3.874   0.881
 9912TIP3    H253716   7.836   3.785   1.003
 9913TIP3   OH253717   7.765   5.263   0.591
 9913TIP3    H153718   7.681   5.310   0.585
 9913TIP3    H253719   7.817   5.307   0.522
 9914TIP3   OH253720   7.689   5.528   1.717
 9914TIP3    H153721   7.749   5.509   1.792
 9914TIP3    H253722   7.650   5.441   1.701
 9915TIP3   OH253723   7.683   4.907   1.818
 9915TIP3    H153724   7.699   4.813   1.792
 9915TIP3    H253725   7.607   4.928   1.761
 9916TIP3   OH253726   7.775   4.658   1.758
 9916TIP3    H153727   7.804   4.566   1.736
 9916TIP3    H253728   7.753   4.635   1.850
 9917TIP3   OH253729   8.076   4.403   1.815
 9917TIP3    H153730   7.987   4.361   1.798
 9917TIP3    H253731   8.118   4.367   1.735
 9918TIP3   OH253732   7.926   4.116   1.774
 9918TIP3    H153733   7.877   4.080   1.697
 9918TIP3    H253734   7.854   4.133   1.838
 9919TIP3   OH253735   7.687   5.088   0.143
 9919TIP3    H153736   7.782   5.102   0.159
 9919TIP3    H253737   7.688   5.031   0.065
 9920TIP3   OH253738   7.561   5.628   0.635
 9920TIP3    H153739   7.488   5.579   0.590
 9920TIP3    H253740   7.591   5.565   0.702
 9921TIP3   OH253741   7.643   5.442   0.823
 9921TIP3    H153742   7.608   5.354   0.843
 9921TIP3    H253743   7.670   5.474   0.911
 9922TIP3   OH253744   7.652   4.757   1.071
 9922TIP3    H153745   7.673   4.741   0.976
 9922TIP3    H253746   7.740   4.733   1.109
 9923TIP3   OH253747   7.585   4.251   1.644
 9923TIP3    H153748   7.674   4.272   1.683
 9923TIP3    H253749   7.553   4.192   1.715
 9924TIP3   OH253750   7.729   4.109   0.973
 9924TIP3    H153751   7.780   4.028   0.993
 9924TIP3    H253752   7.790   4.178   1.006
 9925TIP3   OH253753   7.556   4.412   1.072
 9925TIP3    H153754   7.617   4.385   1.000
 9925TIP3    H253755   7.605   4.489   1.105
 9926TIP3   OH253756   7.595   4.034   0.481
 9926TIP3    H153757   7.501   4.054   0.468
 9926TIP3    H253758   7.636   4.087   0.411
 9927TIP3   OH253759   7.591   3.902   1.315
 9927TIP3    H153760   7.521   3.881   1.380
 9927TIP3    H253761   7.546   3.968   1.258
 9928TIP3   OH253762   7.813   5.223   1.729
 9928TIP3    H153763   7.730   5.243   1.684
 9928TIP3    H253764   7.784   5.211   1.820
 9929TIP3   OH253765   7.848   5.647   1.359
 9929TIP3    H153766   7.775   5.695   1.315
 9929TIP3    H253767   7.811   5.629   1.446
 9930TIP3   OH253768   8.073   5.569   1.233
 9930TIP3    H153769   8.008   5.606   1.297
 9930TIP3    H253770   8.096   5.652   1.189
 9931TIP3   OH253771   7.783   5.510   1.053
 9931TIP3    H153772   7.789   5.465   1.140
 9931TIP3    H253773   7.867   5.477   1.013
 9932TIP3   OH253774   7.983   5.381   0.933
 9932TIP3    H153775   7.977   5.284   0.945
 9932TIP3    H253776   8.073   5.394   0.966
 9933TIP3   OH253777   7.838   3.852   0.704
 9933TIP3    H153778   7.759   3.834   0.650
 9933TIP3    H253779   7.891   3.770   0.701
 9934TIP3   OH253780   7.723   3.832   0.279
 9934TIP3    H153781   7.769   3.898   0.224
 9934TIP3    H253782   7.667   3.888   0.336
 9935TIP3   OH253783   7.715   5.430   0.371
 9935TIP3    H153784   7.641   5.430   0.307
 9935TIP3    H253785   7.717   5.524   0.393
 9936TIP3   OH253786   7.904   4.018   0.130
 9936TIP3    H153787   7.963   3.965   0.075
 9936TIP3    H253788   7.968   4.062   0.188
 9937TIP3   OH253789   7.839   3.907   1.638
 9937TIP3    H153790   7.799   3.834   1.687
 9937TIP3    H253791   7.927   3.910   1.682
 9938TIP3   OH253792   8.033   3.842   1.811
 9938TIP3    H153793   8.121   3.813   1.786
 9938TIP3    H253794   7.995   3.763   1.854
 9939TIP3   OH253795   7.893   5.527   0.070
 9939TIP3    H153796   7.866   5.557   0.159
 9939TIP3    H253797   7.971   5.474   0.086
 9940TIP3   OH253798   1.213   6.658   0.684
 9940TIP3    H153799   1.209   6.756   0.684
 9940TIP3    H253800   1.138   6.634   0.628
 9941TIP3   OH253801   1.097   6.582   1.036
 9941TIP3    H153802   1.095   6.518   1.110
 9941TIP3    H253803   1.060   6.530   0.963
 9942TIP3   OH253804   0.346   6.541   1.183
 9942TIP3    H153805   0.338   6.481   1.261
 9942TIP3    H253806   0.407   6.609   1.217
 9943TIP3   OH253807   1.464   6.877   0.867
 9943TIP3    H153808   1.423   6.806   0.916
 9943TIP3    H253809   1.467   6.948   0.934
 9944TIP3   OH253810   0.422   6.995   1.039
 9944TIP3    H153811   0.392   6.906   1.013
 9944TIP3    H253812   0.517   6.978   1.045
 9945TIP3   OH253813   0.093   6.352   0.583
 9945TIP3    H153814   0.049   6.439   0.588
 9945TIP3    H253815   0.028   6.297   0.541
 9946TIP3   OH253816   0.159   6.570   0.806
 9946TIP3    H153817   0.185   6.488   0.852
 9946TIP3    H253818   0.228   6.581   0.739
 9947TIP3   OH253819   1.176   7.393   0.890
 9947TIP3    H153820   1.242   7.325   0.862
 9947TIP3    H253821   1.154   7.359   0.976
 9948TIP3   OH253822   0.932   6.819   1.091
 9948TIP3    H153823   0.965   6.761   1.021
 9948TIP3    H253824   1.017   6.839   1.135
 9949TIP3   OH253825   1.793   5.989   1.156
 9949TIP3    H153826   1.811   6.047   1.233
 9949TIP3    H253827   1.851   6.030   1.091
 9950TIP3   OH253828   1.251   6.269   1.117
 9950TIP3    H153829   1.268   6.173   1.118
 9950TIP3    H253830   1.240   6.283   1.021
 9951TIP3   OH253831   0.562   6.079   0.838
 9951TIP3    H153832   0.572   6.163   0.789
 9951TIP3    H253833   0.524   6.021   0.768
 9952TIP3   OH253834   1.335   6.085   0.674
 9952TIP3    H153835   1.400   6.055   0.742
 9952TIP3    H253836   1.392   6.143   0.621
 9953TIP3   OH253837   0.235   6.320   0.910
 9953TIP3    H153838   0.297   6.260   0.956
 9953TIP3    H253839   0.237   6.286   0.819
 9954TIP3   OH253840   0.738   6.475   0.844
 9954TIP3    H153841   0.807   6.417   0.882
 9954TIP3    H253842   0.688   6.409   0.792
 9955TIP3   OH253843   1.837   6.128   1.385
 9955TIP3    H153844   1.777   6.206   1.373
 9955TIP3    H253845   1.840   6.122   1.481
 9956TIP3   OH253846   0.456   5.968   1.240
 9956TIP3    H153847   0.426   6.026   1.167
 9956TIP3    H253848   0.389   5.989   1.309
 9957TIP3   OH253849   1.180   6.915   0.597
 9957TIP3    H153850   1.153   6.888   0.508
 9957TIP3    H253851   1.150   7.008   0.601
 9958TIP3   OH253852   0.709   6.734   1.275
 9958TIP3    H153853   0.634   6.798   1.283
 9958TIP3    H253854   0.776   6.790   1.232
 9959TIP3   OH253855   1.518   6.021   0.874
 9959TIP3    H153856   1.495   5.944   0.927
 9959TIP3    H253857   1.584   6.064   0.930
 9960TIP3   OH253858   0.414   6.150   1.047
 9960TIP3    H153859   0.473   6.222   1.077
 9960TIP3    H253860   0.465   6.114   0.970
 9961TIP3   OH253861   0.551   6.933   1.350
 9961TIP3    H153862   0.544   7.023   1.312
 9961TIP3    H253863   0.460   6.926   1.387
 9962TIP3   OH253864   0.147   6.895   0.424
 9962TIP3    H153865   0.131   6.928   0.336
 9962TIP3    H253866   0.167   6.974   0.478
 9963TIP3   OH253867   1.518   7.062   1.103
 9963TIP3    H153868   1.421   7.073   1.114
 9963TIP3    H253869   1.545   7.153   1.082
 9964TIP3   OH253870   1.550   5.889   1.241
 9964TIP3    H153871   1.478   5.953   1.231
 9964TIP3    H253872   1.622   5.931   1.190
 9965TIP3   OH253873   0.846   5.702   0.988
 9965TIP3    H153874   0.830   5.606   0.980
 9965TIP3    H253875   0.758   5.733   1.019
 9966TIP3   OH253876   1.345   7.239   0.764
 9966TIP3    H153877   1.386   7.167   0.712
 9966TIP3    H253878   1.389   7.317   0.725
 9967TIP3   OH253879   1.465   7.031   0.615
 9967TIP3    H153880   1.437   6.963   0.552
 9967TIP3    H253881   1.468   6.981   0.699
 9968TIP3   OH253882   1.625   6.893   1.463
 9968TIP3    H153883   1.641   6.827   1.392
 9968TIP3    H253884   1.647   6.976   1.417
 9969TIP3   OH253885   1.076   6.577   0.437
 9969TIP3    H153886   1.009   6.639   0.403
 9969TIP3    H253887   1.148   6.590   0.373
 9970TIP3   OH253888   1.085   6.436   0.142
 9970TIP3    H153889   1.156   6.439   0.208
 9970TIP3    H253890   1.113   6.363   0.087
 9971TIP3   OH253891   1.815   6.524   1.267
 9971TIP3    H153892   1.750   6.596   1.270
 9971TIP3    H253893   1.866   6.547   1.187
 9972TIP3   OH253894   1.423   6.601   0.532
 9972TIP3    H153895   1.348   6.626   0.591
 9972TIP3    H253896   1.470   6.534   0.585
 9973TIP3   OH253897   1.415   6.418   1.444
 9973TIP3    H153898   1.415   6.501   1.496
 9973TIP3    H253899   1.352   6.447   1.375
 9974TIP3   OH253900   0.584   6.668   0.725
 9974TIP3    H153901   0.550   6.628   0.641
 9974TIP3    H253902   0.645   6.598   0.757
 9975TIP3   OH253903   0.713   7.005   0.991
 9975TIP3    H153904   0.714   6.954   0.909
 9975TIP3    H253905   0.792   6.970   1.036
 9976TIP3   OH253906   0.618   6.541   1.092
 9976TIP3    H153907   0.669   6.551   1.010
 9976TIP3    H253908   0.655   6.611   1.150
 9977TIP3   OH253909   1.257   7.100   1.160
 9977TIP3    H153910   1.229   7.164   1.226
 9977TIP3    H253911   1.231   7.015   1.202
 9978TIP3   OH253912   0.702   6.977   1.564
 9978TIP3    H153913   0.671   7.060   1.607
 9978TIP3    H253914   0.645   6.978   1.483
 9979TIP3   OH253915   1.308   6.522   0.298
 9979TIP3    H153916   1.363   6.541   0.378
 9979TIP3    H253917   1.354   6.573   0.227
 9980TIP3   OH253918   0.409   6.604   1.477
 9980TIP3    H153919   0.400   6.671   1.546
 9980TIP3    H253920   0.314   6.606   1.451
 9981TIP3   OH253921   1.078   7.193   0.646
 9981TIP3    H153922   1.125   7.226   0.724
 9981TIP3    H253923   1.024   7.268   0.620
 9982TIP3   OH253924   0.537   7.182   1.635
 9982TIP3    H153925   0.527   7.183   1.538
 9982TIP3    H253926   0.443   7.177   1.662
 9983TIP3   OH253927   1.684   5.694   0.288
 9983TIP3    H153928   1.589   5.703   0.309
 9983TIP3    H253929   1.701   5.778   0.242
 9984TIP3   OH253930   0.484   6.568   0.480
 9984TIP3    H153931   0.450   6.648   0.434
 9984TIP3    H253932   0.416   6.503   0.463
 9985TIP3   OH253933   1.796   7.128   0.125
 9985TIP3    H153934   1.809   7.223   0.142
 9985TIP3    H253935   1.888   7.096   0.120
 9986TIP3   OH253936   0.143   6.770   1.352
 9986TIP3    H153937   0.067   6.806   1.303
 9986TIP3    H253938   0.096   6.701   1.402
 9987TIP3   OH253939   0.089   7.109   1.036
 9987TIP3    H153940   0.179   7.078   1.055
 9987TIP3    H253941   0.070   7.167   1.111
 9988TIP3   OH253942   1.889   7.156   1.624
 9988TIP3    H153943   1.876   7.060   1.619
 9988TIP3    H253944   1.801   7.182   1.660
 9989TIP3   OH253945   0.984   7.109   1.509
 9989TIP3    H153946   0.991   7.195   1.557
 9989TIP3    H253947   0.895   7.079   1.531
 9990TIP3   OH253948   1.031   7.486   0.488
 9990TIP3    H153949   1.018   7.480   0.392
 9990TIP3    H253950   1.029   7.582   0.505
 9991TIP3   OH253951   0.398   7.369   0.667
 9991TIP3    H153952   0.406   7.334   0.758
 9991TIP3    H253953   0.311   7.332   0.644
 9992TIP3   OH253954   1.340   7.410   0.192
 9992TIP3    H153955   1.384   7.334   0.146
 9992TIP3    H253956   1.338   7.375   0.283
 9993TIP3   OH253957   1.300   7.393   0.460
 9993TIP3    H153958   1.206   7.407   0.485
 9993TIP3    H253959   1.327   7.325   0.524
 9994TIP3   OH253960   1.603   6.303   1.668
 9994TIP3    H153961   1.554   6.348   1.596
 9994TIP3    H253962   1.601   6.211   1.638
 9995TIP3   OH253963   0.321   6.947   1.472
 9995TIP3    H153964   0.329   6.909   1.561
 9995TIP3    H253965   0.237   6.907   1.442
 9996TIP3   OH253966   0.586   5.794   1.061
 9996TIP3    H153967   0.495   5.780   1.027
 9996TIP3    H253968   0.572   5.875   1.113
 9997TIP3   OH253969   1.050   5.758   1.399
 9997TIP3    H153970   1.089   5.715   1.478
 9997TIP3    H253971   0.953   5.748   1.414
 9998TIP3   OH253972   1.378   6.144   1.490
 9998TIP3    H153973   1.321   6.122   1.568
 9998TIP3    H253974   1.359   6.237   1.467
 9999TIP3   OH253975   1.465   6.607   0.084
 9999TIP3    H153976   1.444   6.622  -0.009
 9999TIP3    H253977   1.537   6.670   0.091
10000TIP3   OH253978   1.015   6.018   0.134
10000TIP3    H153979   0.979   6.010   0.224
10000TIP3    H253980   0.984   5.932   0.101
10001TIP3   OH253981   0.596   6.290   1.191
10001TIP3    H153982   0.521   6.289   1.252
10001TIP3    H253983   0.590   6.379   1.150
10002TIP3   OH253984   0.592   6.301   0.677
10002TIP3    H153985   0.498   6.278   0.663
10002TIP3    H253986   0.629   6.273   0.591
10003TIP3   OH253987   1.143   6.351   0.550
10003TIP3    H153988   1.105   6.435   0.515
10003TIP3    H253989   1.212   6.334   0.484
10004TIP3   OH253990   1.045   6.375   1.697
10004TIP3    H153991   0.997   6.293   1.726
10004TIP3    H253992   1.130   6.363   1.741
10005TIP3   OH253993   1.247   6.301   0.837
10005TIP3    H153994   1.218   6.357   0.764
10005TIP3    H253995   1.256   6.216   0.791
10006TIP3   OH253996   0.360   6.317   1.358
10006TIP3    H153997   0.359   6.356   1.446
10006TIP3    H253998   0.313   6.234   1.375
10007TIP3   OH253999   0.698   5.963   0.058
10007TIP3    H154000   0.658   5.986   0.143
10007TIP3    H254001   0.645   6.029   0.010
10008TIP3   OH254002   0.053   6.057   0.763
10008TIP3    H154003   0.104   6.021   0.839
10008TIP3    H254004   0.064   5.990   0.698
10009TIP3   OH254005   0.149   6.108   0.290
10009TIP3    H154006   0.204   6.164   0.232
10009TIP3    H254007   0.082   6.167   0.323
10010TIP3   OH254008   1.166   6.458   1.291
10010TIP3    H154009   1.205   6.389   1.233
10010TIP3    H254010   1.119   6.406   1.358
10011TIP3   OH254011   0.847   6.058   0.776
10011TIP3    H154012   0.754   6.057   0.804
10011TIP3    H254013   0.895   6.038   0.858
10012TIP3   OH254014   0.332   6.210   0.663
10012TIP3    H154015   0.243   6.229   0.626
10012TIP3    H254016   0.353   6.124   0.622
10013TIP3   OH254017   0.690   6.219   0.430
10013TIP3    H154018   0.787   6.227   0.443
10013TIP3    H254019   0.667   6.283   0.361
10014TIP3   OH254020   1.288   5.978   1.100
10014TIP3    H154021   1.220   5.984   1.170
10014TIP3    H254022   1.237   5.954   1.021
10015TIP3   OH254023   0.556   6.345   0.189
10015TIP3    H154024   0.511   6.295   0.119
10015TIP3    H254025   0.642   6.351   0.144
10016TIP3   OH254026   1.606   7.544   1.733
10016TIP3    H154027   1.632   7.581   1.647
10016TIP3    H254028   1.680   7.576   1.787
10017TIP3   OH254029   0.386   6.786   1.692
10017TIP3    H154030   0.448   6.817   1.760
10017TIP3    H254031   0.303   6.795   1.745
10018TIP3   OH254032   0.975   6.332   0.965
10018TIP3    H154033   1.035   6.280   0.912
10018TIP3    H254034   0.960   6.277   1.043
10019TIP3   OH254035   0.479   5.946   0.612
10019TIP3    H154036   0.443   5.856   0.609
10019TIP3    H254037   0.557   5.938   0.555
10020TIP3   OH254038   0.839   6.165   1.207
10020TIP3    H154039   0.756   6.217   1.215
10020TIP3    H254040   0.895   6.201   1.278
10021TIP3   OH254041   0.896   6.787   0.377
10021TIP3    H154042   0.818   6.737   0.344
10021TIP3    H254043   0.875   6.798   0.472
10022TIP3   OH254044   1.618   6.708   1.257
10022TIP3    H154045   1.673   6.757   1.193
10022TIP3    H254046   1.531   6.711   1.211
10023TIP3   OH254047   1.282   6.075   0.180
10023TIP3    H154048   1.185   6.079   0.183
10023TIP3    H254049   1.315   6.151   0.233
10024TIP3   OH254050   1.033   6.814   1.499
10024TIP3    H154051   1.020   6.772   1.584
10024TIP3    H254052   1.027   6.909   1.514
10025TIP3   OH254053   1.349   6.261   0.362
10025TIP3    H154054   1.439   6.245   0.398
10025TIP3    H254055   1.361   6.342   0.310
10026TIP3   OH254056   0.409   6.728   0.957
10026TIP3    H154057   0.475   6.720   0.886
10026TIP3    H254058   0.415   6.642   1.001
10027TIP3   OH254059   1.105   6.935   0.278
10027TIP3    H154060   1.072   7.019   0.315
10027TIP3    H254061   1.035   6.871   0.302
10028TIP3   OH254062   0.120   6.549   1.479
10028TIP3    H154063   0.125   6.517   1.570
10028TIP3    H254064   0.042   6.506   1.442
10029TIP3   OH254065   0.809   6.533   1.691
10029TIP3    H154066   0.778   6.483   1.615
10029TIP3    H254067   0.898   6.490   1.702
10030TIP3   OH254068   1.277   7.055   1.497
10030TIP3    H154069   1.185   7.075   1.473
10030TIP3    H254070   1.274   7.087   1.590
10031TIP3   OH254071   1.850   6.275   0.329
10031TIP3    H154072   1.773   6.243   0.276
10031TIP3    H254073   1.842   6.372   0.322
10032TIP3   OH254074   1.843   6.861   1.614
10032TIP3    H154075   1.754   6.883   1.578
10032TIP3    H254076   1.897   6.855   1.533
10033TIP3   OH254077   1.677   7.156   0.375
10033TIP3    H154078   1.636   7.074   0.406
10033TIP3    H254079   1.701   7.140   0.282
10034TIP3   OH254080   1.394   6.639   1.085
10034TIP3    H154081   1.300   6.618   1.073
10034TIP3    H254082   1.438   6.564   1.040
10035TIP3   OH254083   0.648   7.071   0.690
10035TIP3    H154084   0.696   7.154   0.677
10035TIP3    H254085   0.558   7.096   0.665
10036TIP3   OH254086   0.217   6.557   0.149
10036TIP3    H154087   0.281   6.617   0.192
10036TIP3    H254088   0.133   6.591   0.181
10037TIP3   OH254089   0.788   6.839   0.647
10037TIP3    H154090   0.755   6.931   0.654
10037TIP3    H254091   0.716   6.789   0.690
10038TIP3   OH254092   0.833   7.259   1.288
10038TIP3    H154093   0.879   7.338   1.258
10038TIP3    H254094   0.898   7.225   1.352
10039TIP3   OH254095   0.655   7.336   0.597
10039TIP3    H154096   0.559   7.351   0.615
10039TIP3    H254097   0.692   7.420   0.631
10040TIP3   OH254098   1.184   6.856   1.247
10040TIP3    H154099   1.154   6.838   1.339
10040TIP3    H254100   1.248   6.785   1.231
10041TIP3   OH254101   1.413   6.961   0.158
10041TIP3    H154102   1.449   6.918   0.238
10041TIP3    H254103   1.319   6.944   0.174
10042TIP3   OH254104   1.467   7.315   1.497
10042TIP3    H154105   1.397   7.266   1.450
10042TIP3    H254106   1.485   7.385   1.431
10043TIP3   OH254107   1.864   7.398   0.182
10043TIP3    H154108   1.938   7.458   0.163
10043TIP3    H254109   1.795   7.461   0.211
10044TIP3   OH254110   0.273   6.039   1.435
10044TIP3    H154111   0.183   6.075   1.440
10044TIP3    H254112   0.259   5.955   1.481
10045TIP3   OH254113   1.495   6.828   0.388
10045TIP3    H154114   1.472   6.747   0.438
10045TIP3    H254115   1.591   6.830   0.400
10046TIP3   OH254116   0.236   7.217   1.276
10046TIP3    H154117   0.266   7.125   1.281
10046TIP3    H254118   0.257   7.248   1.364
10047TIP3   OH254119   0.709   7.027   0.262
10047TIP3    H154120   0.744   6.968   0.332
10047TIP3    H254121   0.727   7.115   0.303
10048TIP3   OH254122   0.358   6.751   0.298
10048TIP3    H154123   0.290   6.786   0.359
10048TIP3    H254124   0.411   6.828   0.276
10049TIP3   OH254125   1.146   6.018   1.335
10049TIP3    H154126   1.218   6.024   1.399
10049TIP3    H254127   1.108   5.930   1.356
10050TIP3   OH254128   1.219   5.974   0.444
10050TIP3    H154129   1.245   6.021   0.364
10050TIP3    H254130   1.275   6.019   0.510
10051TIP3   OH254131   0.980   7.187   0.314
10051TIP3    H154132   0.910   7.249   0.340
10051TIP3    H254133   1.045   7.243   0.268
10052TIP3   OH254134   0.943   6.150   0.525
10052TIP3    H154135   1.021   6.209   0.528
10052TIP3    H254136   0.917   6.137   0.618
10053TIP3   OH254137   1.000   6.252   1.444
10053TIP3    H154138   1.008   6.306   1.525
10053TIP3    H254139   1.066   6.182   1.452
10054TIP3   OH254140   1.030   5.853   0.612
10054TIP3    H154141   0.996   5.918   0.676
10054TIP3    H254142   1.098   5.909   0.567
10055TIP3   OH254143   0.719   7.295   0.324
10055TIP3    H154144   0.743   7.380   0.278
10055TIP3    H254145   0.701   7.329   0.416
10056TIP3   OH254146   0.591   5.966   0.299
10056TIP3    H154147   0.590   6.060   0.322
10056TIP3    H254148   0.685   5.942   0.310
10057TIP3   OH254149   1.616   6.039   1.528
10057TIP3    H154150   1.523   6.071   1.515
10057TIP3    H254151   1.646   6.037   1.436
10058TIP3   OH254152   1.479   6.417   0.927
10058TIP3    H154153   1.396   6.373   0.901
10058TIP3    H254154   1.526   6.349   0.980
10059TIP3   OH254155   0.420   7.018   0.180
10059TIP3    H154156   0.481   7.065   0.237
10059TIP3    H254157   0.469   6.955   0.123
10060TIP3   OH254158   0.251   6.279   0.101
10060TIP3    H154159   0.249   6.375   0.122
10060TIP3    H254160   0.164   6.257   0.067
10061TIP3   OH254161   1.586   7.346   1.096
10061TIP3    H154162   1.576   7.413   1.025
10061TIP3    H254163   1.682   7.351   1.112
10062TIP3   OH254164   0.330   5.760   0.972
10062TIP3    H154165   0.311   5.755   0.876
10062TIP3    H254166   0.295   5.673   1.001
10063TIP3   OH254167   0.226   7.143   0.588
10063TIP3    H154168   0.146   7.195   0.589
10063TIP3    H254169   0.277   7.194   0.524
10064TIP3   OH254170   0.151   7.411   1.719
10064TIP3    H154171   0.211   7.386   1.792
10064TIP3    H254172   0.106   7.327   1.697
10065TIP3   OH254173   0.618   7.307   1.880
10065TIP3    H154174   0.693   7.257   1.914
10065TIP3    H254175   0.616   7.279   1.786
10066TIP3   OH254176   1.036   7.268   0.046
10066TIP3    H154177   0.971   7.200   0.065
10066TIP3    H254178   1.109   7.220   0.005
10067TIP3   OH254179   1.267   7.144   1.756
10067TIP3    H154180   1.235   7.055   1.783
10067TIP3    H254181   1.344   7.156   1.814
10068TIP3   OH254182   1.512   7.226   0.096
10068TIP3    H154183   1.520   7.129   0.093
10068TIP3    H254184   1.542   7.253   0.008
10069TIP3   OH254185   0.147   6.795   1.817
10069TIP3    H154186   0.155   6.701   1.791
10069TIP3    H254187   0.073   6.820   1.762
10070TIP3   OH254188   0.562   6.813   0.027
10070TIP3    H154189   0.589   6.738   0.083
10070TIP3    H254190   0.636   6.810  -0.037
10071TIP3   OH254191   0.813   6.790   1.771
10071TIP3    H154192   0.815   6.835   1.687
10071TIP3    H254193   0.830   6.693   1.755
10072TIP3   OH254194   1.381   6.775   1.497
10072TIP3    H154195   1.460   6.832   1.492
10072TIP3    H254196   1.312   6.843   1.500
10073TIP3   OH254197   0.221   6.513   1.758
10073TIP3    H154198   0.273   6.431   1.750
10073TIP3    H254199   0.203   6.513   1.853
10074TIP3   OH254200   0.696   6.631   0.262
10074TIP3    H154201   0.648   6.574   0.325
10074TIP3    H254202   0.729   6.561   0.200
10075TIP3   OH254203   0.627   6.414   1.497
10075TIP3    H154204   0.554   6.476   1.514
10075TIP3    H254205   0.660   6.442   1.410
10076TIP3   OH254206   0.805   6.452   0.090
10076TIP3    H154207   0.785   6.437  -0.004
10076TIP3    H254208   0.902   6.458   0.093
10077TIP3   OH254209   1.128   6.665   1.825
10077TIP3    H154210   1.224   6.663   1.813
10077TIP3    H254211   1.113   6.588   1.883
10078TIP3   OH254212   1.737   6.677  11.009
10078TIP3    H154213   1.716   6.644  10.922
10078TIP3    H254214   1.740   6.774  10.990
10079TIP3   OH254215   0.667   6.144   1.597
10079TIP3    H154216   0.675   6.073   1.531
10079TIP3    H254217   0.656   6.224   1.542
10080TIP3   OH254218   0.704   5.984   1.354
10080TIP3    H154219   0.754   6.030   1.283
10080TIP3    H254220   0.614   5.976   1.314
10081TIP3   OH254221   0.858   6.538   1.379
10081TIP3    H154222   0.932   6.515   1.322
10081TIP3    H254223   0.822   6.617   1.337
10082TIP3   OH254224   1.296   6.307   1.873
10082TIP3    H154225   1.320   6.214   1.865
10082TIP3    H254226   1.383   6.352   1.877
10083TIP3   OH254227   1.431   6.587   1.691
10083TIP3    H154228   1.406   6.659   1.629
10083TIP3    H254229   1.527   6.584   1.672
10084TIP3   OH254230   0.508   6.273   1.787
10084TIP3    H154231   0.432   6.213   1.775
10084TIP3    H254232   0.574   6.232   1.728
10085TIP3   OH254233   0.782   5.727   1.391
10085TIP3    H154234   0.764   5.824   1.383
10085TIP3    H254235   0.708   5.690   1.341
10086TIP3   OH254236   0.910   6.160   1.756
10086TIP3    H154237   0.877   6.136   1.845
10086TIP3    H254238   0.832   6.140   1.701
10087TIP3   OH254239   1.181   6.075   1.666
10087TIP3    H154240   1.085   6.080   1.676
10087TIP3    H254241   1.207   6.010   1.735
10088TIP3   OH254242   1.338   5.936   1.853
10088TIP3    H154243   1.335   5.839   1.857
10088TIP3    H254244   1.315   5.966   1.944
10089TIP3   OH254245   0.323   6.064   1.768
10089TIP3    H154246   0.345   5.991   1.707
10089TIP3    H254247   0.311   6.017   1.853
10090TIP3   OH254248   0.804   5.667   1.662
10090TIP3    H154249   0.871   5.597   1.661
10090TIP3    H254250   0.792   5.680   1.566
10091TIP3   OH254251   0.840   5.828   1.875
10091TIP3    H154252   0.822   5.777   1.792
10091TIP3    H254253   0.780   5.904   1.865
10092TIP3   OH254254   0.786   7.517   0.190
10092TIP3    H154255   0.882   7.533   0.201
10092TIP3    H254256   0.765   7.585   0.124
10093TIP3   OH254257   0.151   6.976   0.138
10093TIP3    H154258   0.247   6.989   0.155
10093TIP3    H254259   0.152   6.914   0.064
10094TIP3   OH254260   0.035   7.522   0.622
10094TIP3    H154261  -0.047   7.478   0.595
10094TIP3    H254262   0.054   7.463   0.697
10095TIP3   OH254263   0.123   7.331   0.816
10095TIP3    H154264   0.075   7.248   0.832
10095TIP3    H254265   0.135   7.367   0.906
10096TIP3   OH254266   1.860   7.403   1.116
10096TIP3    H154267   1.858   7.426   1.210
10096TIP3    H254268   1.922   7.469   1.084
10097TIP3   OH254269   1.813   7.366   1.413
10097TIP3    H154270   1.767   7.290   1.373
10097TIP3    H254271   1.862   7.320   1.484
10098TIP3   OH254272   1.658   6.939   1.878
10098TIP3    H154273   1.567   6.937   1.914
10098TIP3    H254274   1.695   7.020   1.918
10099TIP3   OH254275   1.793   6.768   0.416
10099TIP3    H154276   1.875   6.813   0.441
10099TIP3    H254277   1.787   6.703   0.490
10100TIP3   OH254278   1.826   6.578   0.608
10100TIP3    H154279   1.749   6.533   0.650
10100TIP3    H254280   1.885   6.594   0.684
10101TIP3   OH254281   1.801   6.850   1.108
10101TIP3    H154282   1.882   6.812   1.069
10101TIP3    H254283   1.816   6.945   1.090
10102TIP3   OH254284   1.656   7.140   1.334
10102TIP3    H154285   1.588   7.175   1.392
10102TIP3    H254286   1.602   7.101   1.262
10103TIP3   OH254287   1.852   6.557   0.241
10103TIP3    H154288   1.793   6.602   0.175
10103TIP3    H254289   1.845   6.627   0.311
10104TIP3   OH254290   1.697   6.290   0.092
10104TIP3    H154291   1.673   6.356   0.026
10104TIP3    H254292   1.662   6.206   0.056
10105TIP3   OH254293   1.608   6.428   0.667
10105TIP3    H154294   1.593   6.332   0.662
10105TIP3    H254295   1.575   6.448   0.756
10106TIP3   OH254296   0.108   6.634   1.072
10106TIP3    H154297   0.127   6.627   0.977
10106TIP3    H254298   0.197   6.621   1.110
10107TIP3   OH254299   1.694   6.625   1.636
10107TIP3    H154300   1.755   6.549   1.648
10107TIP3    H254301   1.755   6.702   1.635
10108TIP3   OH254302   1.844   6.412   1.700
10108TIP3    H154303   1.755   6.372   1.685
10108TIP3    H254304   1.901   6.333   1.693
10109TIP3   OH254305   1.597   6.023   0.122
10109TIP3    H154306   1.680   5.982   0.090
10109TIP3    H254307   1.538   5.991   0.053
10110TIP3   OH254308   1.572   6.186   0.508
10110TIP3    H154309   1.601   6.094   0.523
10110TIP3    H254310   1.653   6.226   0.476
10111TIP3   OH254311   1.638   6.241   1.057
10111TIP3    H154312   1.734   6.263   1.055
10111TIP3    H254313   1.620   6.254   1.151
10112TIP3   OH254314   1.645   6.312   1.335
10112TIP3    H154315   1.556   6.341   1.365
10112TIP3    H254316   1.688   6.398   1.312
10113TIP3   OH254317   0.090   6.126   1.651
10113TIP3    H154318   0.173   6.138   1.702
10113TIP3    H254319   0.031   6.083   1.714
10114TIP3   OH254320   1.873   5.720   1.868
10114TIP3    H154321   1.908   5.654   1.806
10114TIP3    H254322   1.882   5.801   1.813
10115TIP3   OH254323   1.642   5.915   0.517
10115TIP3    H154324   1.664   5.871   0.602
10115TIP3    H254325   1.581   5.852   0.473
10116TIP3   OH254326   0.190   5.995   0.978
10116TIP3    H154327   0.239   5.913   0.999
10116TIP3    H254328   0.245   6.064   1.017
10117TIP3   OH254329   0.040   6.304   1.085
10117TIP3    H154330   0.086   6.280   1.002
10117TIP3    H254331   0.074   6.392   1.102
10118TIP3   OH254332   1.824   5.929   1.703
10118TIP3    H154333   1.730   5.957   1.699
10118TIP3    H254334   1.826   5.874   1.624
10119TIP3   OH254335   1.833   5.918   0.169
10119TIP3    H154336   1.872   5.846   0.118
10119TIP3    H254337   1.905   5.981   0.185
10120TIP3   OH254338   0.076   5.903   0.437
10120TIP3    H154339  -0.018   5.927   0.449
10120TIP3    H254340   0.112   5.983   0.393
10121TIP3   OH254341   1.527   7.413   0.672
10121TIP3    H154342   1.600   7.384   0.616
10121TIP3    H254343   1.574   7.464   0.743
10122TIP3   OH254344   0.067   5.800   1.327
10122TIP3    H154345  -0.007   5.772   1.382
10122TIP3    H254346   0.013   5.862   1.271
10123TIP3   OH254347   0.275   7.110   1.731
10123TIP3    H154348   0.192   7.130   1.686
10123TIP3    H254349   0.246   7.102   1.823
10124TIP3   OH254350   0.564   7.207   1.359
10124TIP3    H154351   0.529   7.293   1.330
10124TIP3    H254352   0.655   7.218   1.325
10125TIP3   OH254353   0.996   7.348   1.646
10125TIP3    H154354   1.009   7.314   1.738
10125TIP3    H254355   1.086   7.381   1.623
10126TIP3   OH254356   1.223   7.476   1.578
10126TIP3    H154357   1.297   7.420   1.554
10126TIP3    H254358   1.260   7.521   1.658
10127TIP3   OH254359   1.727   5.737   1.489
10127TIP3    H154360   1.644   5.768   1.448
10127TIP3    H254361   1.743   5.655   1.438
10128TIP3   OH254362   0.302   7.526   1.357
10128TIP3    H154363   0.230   7.582   1.320
10128TIP3    H254364   0.271   7.515   1.448
10129TIP3   OH254365   0.555   7.487   1.265
10129TIP3    H154366   0.466   7.505   1.304
10129TIP3    H254367   0.549   7.545   1.187
10130TIP3   OH254368   1.024   7.480   1.181
10130TIP3    H154369   0.978   7.535   1.116
10130TIP3    H254370   1.037   7.544   1.255
10131TIP3   OH254371   1.252   7.360   1.285
10131TIP3    H154372   1.167   7.389   1.246
10131TIP3    H254373   1.302   7.443   1.275
10132TIP3   OH254374   1.505   7.516   1.303
10132TIP3    H154375   1.503   7.613   1.286
10132TIP3    H254376   1.533   7.481   1.216
10133TIP3   OH254377   0.255   7.400   1.047
10133TIP3    H154378   0.241   7.354   1.133
10133TIP3    H254379   0.335   7.357   1.010
10134TIP3   OH254380   0.459   7.266   0.915
10134TIP3    H154381   0.444   7.172   0.940
10134TIP3    H254382   0.545   7.283   0.961
10135TIP3   OH254383   0.718   7.314   1.005
10135TIP3    H154384   0.735   7.222   0.979
10135TIP3    H254385   0.726   7.310   1.102
10136TIP3   OH254386   1.064   5.881   0.915
10136TIP3    H154387   0.998   5.817   0.946
10136TIP3    H254388   1.121   5.826   0.859
10137TIP3   OH254389   1.580   5.681   0.920
10137TIP3    H154390   1.640   5.744   0.872
10137TIP3    H254391   1.491   5.720   0.901
10138TIP3   OH254392   1.745   5.811   0.749
10138TIP3    H154393   1.813   5.751   0.709
10138TIP3    H254394   1.797   5.893   0.762
10139TIP3   OH254395   0.307   5.742   0.702
10139TIP3    H154396   0.226   5.723   0.649
10139TIP3    H254397   0.351   5.655   0.695
10140TIP3   OH254398   0.183   5.715   0.279
10140TIP3    H154399   0.226   5.782   0.222
10140TIP3    H254400   0.128   5.774   0.335
10141TIP3   OH254401   0.748   5.735   0.681
10141TIP3    H154402   0.838   5.771   0.672
10141TIP3    H254403   0.745   5.713   0.774
10142TIP3   OH254404   1.322   5.737   0.843
10142TIP3    H154405   1.315   5.749   0.747
10142TIP3    H254406   1.283   5.647   0.856
10143TIP3   OH254407   1.447   5.740   0.409
10143TIP3    H154408   1.373   5.800   0.397
10143TIP3    H254409   1.403   5.654   0.430
10144TIP3   OH254410   0.171   7.318   0.373
10144TIP3    H154411   0.106   7.320   0.303
10144TIP3    H254412   0.173   7.413   0.393
10145TIP3   OH254413   0.362   5.909   0.128
10145TIP3    H154414   0.418   5.851   0.075
10145TIP3    H254415   0.431   5.948   0.185
10146TIP3   OH254416   0.869   5.937   0.361
10146TIP3    H154417   0.890   5.880   0.437
10146TIP3    H254418   0.873   6.022   0.410
10147TIP3   OH254419   1.056   7.457   0.214
10147TIP3    H154420   1.150   7.468   0.196
10147TIP3    H254421   1.038   7.399   0.136
10148TIP3   OH254422   1.724   7.397   0.481
10148TIP3    H154423   1.708   7.315   0.428
10148TIP3    H254424   1.726   7.468   0.414
10149TIP3   OH254425   0.288   5.802   1.655
10149TIP3    H154426   0.250   5.717   1.685
10149TIP3    H254427   0.381   5.792   1.686
10150TIP3   OH254428   0.494   5.735   1.812
10150TIP3    H154429   0.582   5.700   1.791
10150TIP3    H254430   0.452   5.656   1.851
10151TIP3   OH254431   0.348   7.400   0.072
10151TIP3    H154432   0.323   7.443   0.155
10151TIP3    H254433   0.434   7.363   0.091
10152TIP3   OH254434   1.331   5.664   1.827
10152TIP3    H154435   1.340   5.617   1.912
10152TIP3    H254436   1.422   5.660   1.793
10153TIP3   OH254437   1.652   7.270   1.689
10153TIP3    H154438   1.572   7.256   1.634
10153TIP3    H254439   1.640   7.364   1.711
10154TIP3   OH254440   3.099   6.658   0.686
10154TIP3    H154441   3.093   6.756   0.683
10154TIP3    H254442   3.024   6.633   0.629
10155TIP3   OH254443   2.982   6.582   1.037
10155TIP3    H154444   2.981   6.518   1.110
10155TIP3    H254445   2.946   6.531   0.963
10156TIP3   OH254446   2.217   6.551   1.193
10156TIP3    H154447   2.225   6.481   1.261
10156TIP3    H254448   2.292   6.607   1.215
10157TIP3   OH254449   3.350   6.877   0.867
10157TIP3    H154450   3.309   6.805   0.916
10157TIP3    H254451   3.353   6.948   0.934
10158TIP3   OH254452   2.309   6.995   1.042
10158TIP3    H154453   2.279   6.908   1.011
10158TIP3    H254454   2.405   6.978   1.046
10159TIP3   OH254455   1.976   6.350   0.586
10159TIP3    H154456   1.932   6.437   0.588
10159TIP3    H254457   1.912   6.295   0.539
10160TIP3   OH254458   2.046   6.573   0.807
10160TIP3    H154459   2.074   6.491   0.852
10160TIP3    H254460   2.114   6.584   0.740
10161TIP3   OH254461   3.062   7.394   0.891
10161TIP3    H154462   3.127   7.325   0.861
10161TIP3    H254463   3.040   7.358   0.977
10162TIP3   OH254464   2.819   6.821   1.087
10162TIP3    H154465   2.853   6.760   1.020
10162TIP3    H254466   2.901   6.838   1.137
10163TIP3   OH254467   3.678   5.989   1.156
10163TIP3    H154468   3.697   6.047   1.234
10163TIP3    H254469   3.736   6.030   1.091
10164TIP3   OH254470   3.136   6.269   1.117
10164TIP3    H154471   3.153   6.173   1.118
10164TIP3    H254472   3.126   6.283   1.021
10165TIP3   OH254473   2.447   6.079   0.837
10165TIP3    H154474   2.460   6.162   0.786
10165TIP3    H254475   2.408   6.021   0.768
10166TIP3   OH254476   3.221   6.085   0.674
10166TIP3    H154477   3.286   6.055   0.743
10166TIP3    H254478   3.278   6.143   0.621
10167TIP3   OH254479   2.109   6.320   0.911
10167TIP3    H154480   2.176   6.266   0.957
10167TIP3    H254481   2.121   6.288   0.821
10168TIP3   OH254482   2.622   6.474   0.851
10168TIP3    H154483   2.695   6.416   0.880
10168TIP3    H254484   2.575   6.412   0.791
10169TIP3   OH254485   3.722   6.128   1.385
10169TIP3    H154486   3.663   6.206   1.373
10169TIP3    H254487   3.726   6.122   1.481
10170TIP3   OH254488   2.339   5.968   1.242
10170TIP3    H154489   2.311   6.026   1.167
10170TIP3    H254490   2.272   5.992   1.310
10171TIP3   OH254491   3.067   6.917   0.598
10171TIP3    H154492   3.039   6.887   0.510
10171TIP3    H254493   3.036   7.011   0.600
10172TIP3   OH254494   2.589   6.732   1.265
10172TIP3    H154495   2.519   6.797   1.288
10172TIP3    H254496   2.660   6.792   1.236
10173TIP3   OH254497   3.403   6.021   0.874
10173TIP3    H154498   3.380   5.944   0.927
10173TIP3    H254499   3.470   6.064   0.930
10174TIP3   OH254500   2.296   6.153   1.046
10174TIP3    H154501   2.359   6.223   1.076
10174TIP3    H254502   2.347   6.113   0.971
10175TIP3   OH254503   2.435   6.934   1.347
10175TIP3    H154504   2.430   7.025   1.314
10175TIP3    H254505   2.347   6.925   1.392
10176TIP3   OH254506   2.041   6.892   0.425
10176TIP3    H154507   2.020   6.927   0.336
10176TIP3    H254508   2.049   6.974   0.478
10177TIP3   OH254509   3.403   7.061   1.103
10177TIP3    H154510   3.306   7.073   1.115
10177TIP3    H254511   3.430   7.153   1.082
10178TIP3   OH254512   3.435   5.889   1.241
10178TIP3    H154513   3.363   5.953   1.231
10178TIP3    H254514   3.507   5.931   1.190
10179TIP3   OH254515   2.731   5.702   0.988
10179TIP3    H154516   2.717   5.606   0.980
10179TIP3    H254517   2.643   5.732   1.019
10180TIP3   OH254518   3.230   7.239   0.765
10180TIP3    H154519   3.271   7.167   0.712
10180TIP3    H254520   3.275   7.317   0.725
10181TIP3   OH254521   3.351   7.032   0.615
10181TIP3    H154522   3.322   6.964   0.552
10181TIP3    H254523   3.354   6.981   0.698
10182TIP3   OH254524   3.511   6.893   1.463
10182TIP3    H154525   3.526   6.827   1.392
10182TIP3    H254526   3.533   6.976   1.417
10183TIP3   OH254527   2.971   6.587   0.442
10183TIP3    H154528   2.889   6.628   0.407
10183TIP3    H254529   3.032   6.591   0.368
10184TIP3   OH254530   2.973   6.436   0.137
10184TIP3    H154531   3.038   6.440   0.209
10184TIP3    H254532   3.003   6.361   0.088
10185TIP3   OH254533   3.701   6.524   1.266
10185TIP3    H154534   3.636   6.596   1.270
10185TIP3    H254535   3.751   6.547   1.187
10186TIP3   OH254536   3.308   6.602   0.533
10186TIP3    H154537   3.232   6.626   0.592
10186TIP3    H254538   3.355   6.535   0.585
10187TIP3   OH254539   3.300   6.418   1.444
10187TIP3    H154540   3.300   6.501   1.496
10187TIP3    H254541   3.237   6.447   1.375
10188TIP3   OH254542   2.466   6.667   0.725
10188TIP3    H154543   2.439   6.630   0.637
10188TIP3    H254544   2.531   6.599   0.754
10189TIP3   OH254545   2.599   7.005   0.991
10189TIP3    H154546   2.600   6.954   0.909
10189TIP3    H254547   2.678   6.970   1.036
10190TIP3   OH254548   2.500   6.543   1.090
10190TIP3    H154549   2.554   6.551   1.008
10190TIP3    H254550   2.541   6.609   1.149
10191TIP3   OH254551   3.144   7.100   1.161
10191TIP3    H154552   3.115   7.164   1.227
10191TIP3    H254553   3.118   7.015   1.202
10192TIP3   OH254554   2.596   6.986   1.559
10192TIP3    H154555   2.554   7.059   1.608
10192TIP3    H254556   2.529   6.965   1.489
10193TIP3   OH254557   3.197   6.518   0.295
10193TIP3    H154558   3.246   6.541   0.378
10193TIP3    H254559   3.241   6.574   0.227
10194TIP3   OH254560   2.291   6.602   1.473
10194TIP3    H154561   2.297   6.668   1.544
10194TIP3    H254562   2.196   6.609   1.453
10195TIP3   OH254563   2.967   7.195   0.641
10195TIP3    H154564   3.008   7.224   0.723
10195TIP3    H254565   2.910   7.269   0.619
10196TIP3   OH254566   2.421   7.188   1.633
10196TIP3    H154567   2.414   7.179   1.537
10196TIP3    H254568   2.328   7.175   1.660
10197TIP3   OH254569   3.570   5.695   0.287
10197TIP3    H154570   3.474   5.704   0.308
10197TIP3    H254571   3.587   5.779   0.242
10198TIP3   OH254572   2.348   6.576   0.499
10198TIP3    H154573   2.337   6.646   0.432
10198TIP3    H254574   2.305   6.501   0.459
10199TIP3   OH254575   3.682   7.129   0.124
10199TIP3    H154576   3.694   7.223   0.142
10199TIP3    H254577   3.773   7.097   0.121
10200TIP3   OH254578   1.973   6.813   1.376
10200TIP3    H154579   1.930   6.805   1.289
10200TIP3    H254580   1.983   6.718   1.397
10201TIP3   OH254581   1.950   7.087   1.051
10201TIP3    H154582   2.045   7.075   1.050
10201TIP3    H254583   1.942   7.169   1.102
10202TIP3   OH254584   3.773   7.155   1.620
10202TIP3    H154585   3.760   7.059   1.619
10202TIP3    H254586   3.687   7.182   1.660
10203TIP3   OH254587   2.869   7.111   1.507
10203TIP3    H154588   2.875   7.195   1.558
10203TIP3    H254589   2.781   7.076   1.531
10204TIP3   OH254590   2.914   7.486   0.488
10204TIP3    H154591   2.905   7.480   0.392
10204TIP3    H254592   2.916   7.582   0.504
10205TIP3   OH254593   2.278   7.373   0.668
10205TIP3    H154594   2.293   7.333   0.757
10205TIP3    H254595   2.193   7.332   0.646
10206TIP3   OH254596   3.213   7.401   0.192
10206TIP3    H154597   3.269   7.332   0.148
10206TIP3    H254598   3.225   7.376   0.285
10207TIP3   OH254599   3.187   7.400   0.464
10207TIP3    H154600   3.092   7.408   0.482
10207TIP3    H254601   3.212   7.326   0.521
10208TIP3   OH254602   3.489   6.303   1.668
10208TIP3    H154603   3.440   6.348   1.596
10208TIP3    H254604   3.486   6.211   1.638
10209TIP3   OH254605   2.203   6.944   1.469
10209TIP3    H154606   2.225   6.908   1.558
10209TIP3    H254607   2.116   6.905   1.448
10210TIP3   OH254608   2.471   5.793   1.063
10210TIP3    H154609   2.381   5.779   1.027
10210TIP3    H254610   2.457   5.875   1.113
10211TIP3   OH254611   2.936   5.758   1.399
10211TIP3    H154612   2.975   5.716   1.478
10211TIP3    H254613   2.838   5.748   1.414
10212TIP3   OH254614   3.264   6.144   1.490
10212TIP3    H154615   3.207   6.122   1.567
10212TIP3    H254616   3.245   6.237   1.467
10213TIP3   OH254617   3.348   6.609   0.085
10213TIP3    H154618   3.332   6.620  -0.009
10213TIP3    H254619   3.425   6.667   0.092
10214TIP3   OH254620   2.902   6.018   0.127
10214TIP3    H154621   2.866   6.015   0.220
10214TIP3    H254622   2.869   5.930   0.104
10215TIP3   OH254623   2.482   6.290   1.191
10215TIP3    H154624   2.407   6.290   1.253
10215TIP3    H254625   2.476   6.380   1.152
10216TIP3   OH254626   2.476   6.295   0.679
10216TIP3    H154627   2.382   6.275   0.661
10216TIP3    H254628   2.516   6.280   0.592
10217TIP3   OH254629   3.032   6.352   0.552
10217TIP3    H154630   2.987   6.433   0.516
10217TIP3    H254631   3.096   6.336   0.482
10218TIP3   OH254632   2.934   6.373   1.695
10218TIP3    H154633   2.882   6.294   1.726
10218TIP3    H254634   3.018   6.361   1.743
10219TIP3   OH254635   3.132   6.302   0.837
10219TIP3    H154636   3.102   6.357   0.762
10219TIP3    H254637   3.142   6.216   0.790
10220TIP3   OH254638   2.243   6.313   1.356
10220TIP3    H154639   2.253   6.354   1.443
10220TIP3    H254640   2.199   6.229   1.378
10221TIP3   OH254641   2.585   5.966   0.059
10221TIP3    H154642   2.543   5.987   0.144
10221TIP3    H254643   2.528   6.029   0.011
10222TIP3   OH254644   1.909   6.024   0.756
10222TIP3    H154645   1.978   6.020   0.826
10222TIP3    H254646   1.954   5.988   0.678
10223TIP3   OH254647   2.030   6.095   0.281
10223TIP3    H154648   2.094   6.158   0.241
10223TIP3    H254649   1.971   6.155   0.331
10224TIP3   OH254650   3.051   6.458   1.291
10224TIP3    H154651   3.090   6.389   1.234
10224TIP3    H254652   3.004   6.406   1.358
10225TIP3   OH254653   2.733   6.054   0.777
10225TIP3    H154654   2.640   6.058   0.804
10225TIP3    H254655   2.780   6.037   0.860
10226TIP3   OH254656   2.209   6.207   0.669
10226TIP3    H154657   2.124   6.227   0.625
10226TIP3    H254658   2.242   6.129   0.621
10227TIP3   OH254659   2.578   6.206   0.417
10227TIP3    H154660   2.668   6.232   0.445
10227TIP3    H254661   2.553   6.287   0.368
10228TIP3   OH254662   3.173   5.981   1.099
10228TIP3    H154663   3.105   5.984   1.170
10228TIP3    H254664   3.122   5.954   1.022
10229TIP3   OH254665   2.433   6.345   0.185
10229TIP3    H154666   2.398   6.291   0.114
10229TIP3    H254667   2.524   6.354   0.150
10230TIP3   OH254668   3.491   7.543   1.733
10230TIP3    H154669   3.518   7.581   1.647
10230TIP3    H254670   3.564   7.575   1.788
10231TIP3   OH254671   2.260   6.792   1.690
10231TIP3    H154672   2.333   6.816   1.750
10231TIP3    H254673   2.183   6.798   1.751
10232TIP3   OH254674   2.862   6.333   0.967
10232TIP3    H154675   2.920   6.280   0.912
10232TIP3    H254676   2.846   6.276   1.044
10233TIP3   OH254677   2.361   5.946   0.611
10233TIP3    H154678   2.330   5.854   0.609
10233TIP3    H254679   2.439   5.939   0.554
10234TIP3   OH254680   2.724   6.164   1.208
10234TIP3    H154681   2.642   6.217   1.215
10234TIP3    H254682   2.780   6.201   1.279
10235TIP3   OH254683   2.781   6.796   0.374
10235TIP3    H154684   2.709   6.735   0.347
10235TIP3    H254685   2.763   6.795   0.470
10236TIP3   OH254686   3.503   6.708   1.257
10236TIP3    H154687   3.558   6.757   1.193
10236TIP3    H254688   3.417   6.711   1.211
10237TIP3   OH254689   3.164   6.090   0.162
10237TIP3    H154690   3.072   6.077   0.191
10237TIP3    H254691   3.203   6.148   0.233
10238TIP3   OH254692   2.933   6.815   1.501
10238TIP3    H154693   2.898   6.771   1.579
10238TIP3    H254694   2.906   6.907   1.513
10239TIP3   OH254695   3.238   6.258   0.357
10239TIP3    H154696   3.327   6.244   0.397
10239TIP3    H254697   3.252   6.344   0.313
10240TIP3   OH254698   2.296   6.727   0.956
10240TIP3    H154699   2.362   6.717   0.885
10240TIP3    H254700   2.301   6.642   1.003
10241TIP3   OH254701   2.994   6.934   0.280
10241TIP3    H154702   2.958   7.019   0.313
10241TIP3    H254703   2.920   6.872   0.301
10242TIP3   OH254704   1.993   6.567   1.482
10242TIP3    H154705   2.009   6.522   1.568
10242TIP3    H254706   1.931   6.506   1.438
10243TIP3   OH254707   2.695   6.523   1.700
10243TIP3    H154708   2.662   6.491   1.614
10243TIP3    H254709   2.786   6.490   1.699
10244TIP3   OH254710   3.164   7.057   1.496
10244TIP3    H154711   3.071   7.074   1.473
10244TIP3    H254712   3.160   7.086   1.590
10245TIP3   OH254713   3.731   6.273   0.335
10245TIP3    H154714   3.671   6.245   0.263
10245TIP3    H254715   3.736   6.368   0.310
10246TIP3   OH254716   3.729   6.861   1.614
10246TIP3    H154717   3.639   6.883   1.578
10246TIP3    H254718   3.783   6.855   1.533
10247TIP3   OH254719   3.563   7.155   0.375
10247TIP3    H154720   3.522   7.074   0.406
10247TIP3    H254721   3.587   7.138   0.282
10248TIP3   OH254722   3.280   6.639   1.085
10248TIP3    H154723   3.186   6.619   1.073
10248TIP3    H254724   3.323   6.564   1.040
10249TIP3   OH254725   2.532   7.073   0.695
10249TIP3    H154726   2.581   7.153   0.675
10249TIP3    H254727   2.444   7.096   0.662
10250TIP3   OH254728   2.104   6.554   0.149
10250TIP3    H154729   2.169   6.614   0.193
10250TIP3    H254730   2.021   6.594   0.180
10251TIP3   OH254731   2.676   6.841   0.652
10251TIP3    H154732   2.638   6.931   0.654
10251TIP3    H254733   2.603   6.787   0.689
10252TIP3   OH254734   2.718   7.258   1.289
10252TIP3    H154735   2.765   7.337   1.260
10252TIP3    H254736   2.780   7.222   1.355
10253TIP3   OH254737   2.540   7.337   0.601
10253TIP3    H154738   2.444   7.352   0.614
10253TIP3    H254739   2.577   7.422   0.633
10254TIP3   OH254740   3.068   6.856   1.249
10254TIP3    H154741   3.038   6.837   1.340
10254TIP3    H254742   3.134   6.785   1.232
10255TIP3   OH254743   3.298   6.961   0.159
10255TIP3    H154744   3.335   6.918   0.238
10255TIP3    H254745   3.204   6.944   0.174
10256TIP3   OH254746   3.353   7.315   1.497
10256TIP3    H154747   3.283   7.266   1.451
10256TIP3    H254748   3.370   7.385   1.431
10257TIP3   OH254749   3.749   7.398   0.182
10257TIP3    H154750   3.821   7.461   0.165
10257TIP3    H254751   3.678   7.461   0.210
10258TIP3   OH254752   2.158   6.040   1.437
10258TIP3    H154753   2.068   6.076   1.436
10258TIP3    H254754   2.147   5.956   1.484
10259TIP3   OH254755   3.381   6.828   0.388
10259TIP3    H154756   3.358   6.747   0.438
10259TIP3    H254757   3.477   6.830   0.400
10260TIP3   OH254758   2.119   7.218   1.280
10260TIP3    H154759   2.152   7.127   1.280
10260TIP3    H254760   2.146   7.248   1.367
10261TIP3   OH254761   2.591   7.029   0.254
10261TIP3    H154762   2.626   6.973   0.325
10261TIP3    H254763   2.604   7.120   0.288
10262TIP3   OH254764   2.238   6.749   0.293
10262TIP3    H154765   2.177   6.790   0.358
10262TIP3    H254766   2.302   6.821   0.276
10263TIP3   OH254767   3.032   6.018   1.335
10263TIP3    H154768   3.104   6.024   1.399
10263TIP3    H254769   2.993   5.930   1.356
10264TIP3   OH254770   3.105   5.975   0.442
10264TIP3    H154771   3.133   6.022   0.365
10264TIP3    H254772   3.161   6.016   0.509
10265TIP3   OH254773   2.871   7.189   0.321
10265TIP3    H154774   2.793   7.245   0.336
10265TIP3    H254775   2.929   7.244   0.265
10266TIP3   OH254776   2.833   6.144   0.526
10266TIP3    H154777   2.905   6.211   0.528
10266TIP3    H254778   2.800   6.142   0.617
10267TIP3   OH254779   2.885   6.252   1.444
10267TIP3    H154780   2.892   6.308   1.525
10267TIP3    H254781   2.951   6.183   1.453
10268TIP3   OH254782   2.914   5.854   0.611
10268TIP3    H154783   2.880   5.918   0.676
10268TIP3    H254784   2.983   5.910   0.567
10269TIP3   OH254785   2.612   7.296   0.329
10269TIP3    H154786   2.628   7.378   0.276
10269TIP3    H254787   2.585   7.331   0.416
10270TIP3   OH254788   2.475   5.965   0.299
10270TIP3    H154789   2.476   6.060   0.323
10270TIP3    H254790   2.570   5.943   0.310
10271TIP3   OH254791   3.501   6.039   1.528
10271TIP3    H154792   3.409   6.071   1.515
10271TIP3    H254793   3.532   6.037   1.436
10272TIP3   OH254794   3.364   6.418   0.928
10272TIP3    H154795   3.281   6.373   0.901
10272TIP3    H254796   3.412   6.349   0.979
10273TIP3   OH254797   2.307   7.009   0.189
10273TIP3    H154798   2.373   7.072   0.222
10273TIP3    H254799   2.355   6.964   0.119
10274TIP3   OH254800   2.138   6.278   0.115
10274TIP3    H154801   2.146   6.376   0.118
10274TIP3    H254802   2.072   6.250   0.052
10275TIP3   OH254803   3.471   7.342   1.095
10275TIP3    H154804   3.461   7.412   1.027
10275TIP3    H254805   3.567   7.349   1.113
10276TIP3   OH254806   2.219   5.755   0.978
10276TIP3    H154807   2.200   5.757   0.881
10276TIP3    H254808   2.177   5.670   1.002
10277TIP3   OH254809   2.112   7.150   0.592
10277TIP3    H154810   2.027   7.194   0.585
10277TIP3    H254811   2.160   7.193   0.520
10278TIP3   OH254812   2.034   7.413   1.718
10278TIP3    H154813   2.095   7.394   1.793
10278TIP3    H254814   1.995   7.326   1.701
10279TIP3   OH254815   2.505   7.306   1.878
10279TIP3    H154816   2.579   7.255   1.913
10279TIP3    H254817   2.501   7.277   1.785
10280TIP3   OH254818   2.923   7.267   0.047
10280TIP3    H154819   2.852   7.203   0.065
10280TIP3    H254820   2.993   7.216   0.006
10281TIP3   OH254821   3.152   7.144   1.756
10281TIP3    H154822   3.121   7.055   1.783
10281TIP3    H254823   3.230   7.156   1.814
10282TIP3   OH254824   3.395   7.225   0.096
10282TIP3    H154825   3.407   7.129   0.093
10282TIP3    H254826   3.428   7.255   0.009
10283TIP3   OH254827   2.024   6.790   1.819
10283TIP3    H154828   2.041   6.699   1.790
10283TIP3    H254829   1.951   6.816   1.761
10284TIP3   OH254830   2.445   6.810   0.019
10284TIP3    H154831   2.475   6.743   0.086
10284TIP3    H254832   2.526   6.814  -0.035
10285TIP3   OH254833   2.697   6.790   1.757
10285TIP3    H154834   2.664   6.822   1.671
10285TIP3    H254835   2.703   6.692   1.746
10286TIP3   OH254836   3.266   6.775   1.497
10286TIP3    H154837   3.346   6.832   1.492
10286TIP3    H254838   3.197   6.843   1.500
10287TIP3   OH254839   2.118   6.513   1.757
10287TIP3    H154840   2.161   6.427   1.749
10287TIP3    H254841   2.095   6.514   1.852
10288TIP3   OH254842   2.543   6.641   0.208
10288TIP3    H154843   2.524   6.605   0.297
10288TIP3    H254844   2.610   6.570   0.190
10289TIP3   OH254845   2.507   6.407   1.492
10289TIP3    H154846   2.448   6.479   1.517
10289TIP3    H254847   2.548   6.444   1.412
10290TIP3   OH254848   2.692   6.447   0.086
10290TIP3    H154849   2.670   6.440  -0.008
10290TIP3    H254850   2.788   6.462   0.094
10291TIP3   OH254851   3.016   6.665   1.827
10291TIP3    H154852   3.111   6.662   1.812
10291TIP3    H254853   2.998   6.588   1.883
10292TIP3   OH254854   3.619   6.678  11.009
10292TIP3    H154855   3.604   6.641  10.922
10292TIP3    H254856   3.626   6.773  10.988
10293TIP3   OH254857   2.549   6.145   1.597
10293TIP3    H154858   2.560   6.074   1.531
10293TIP3    H254859   2.544   6.226   1.543
10294TIP3   OH254860   2.589   5.983   1.354
10294TIP3    H154861   2.640   6.030   1.283
10294TIP3    H254862   2.500   5.976   1.314
10295TIP3   OH254863   2.742   6.534   1.378
10295TIP3    H154864   2.818   6.517   1.321
10295TIP3    H254865   2.705   6.617   1.343
10296TIP3   OH254866   3.182   6.307   1.873
10296TIP3    H154867   3.206   6.214   1.864
10296TIP3    H254868   3.268   6.352   1.877
10297TIP3   OH254869   3.317   6.587   1.691
10297TIP3    H154870   3.291   6.659   1.629
10297TIP3    H254871   3.413   6.584   1.672
10298TIP3   OH254872   2.395   6.270   1.790
10298TIP3    H154873   2.318   6.212   1.774
10298TIP3    H254874   2.460   6.233   1.727
10299TIP3   OH254875   2.668   5.727   1.391
10299TIP3    H154876   2.648   5.823   1.382
10299TIP3    H254877   2.593   5.690   1.341
10300TIP3   OH254878   2.795   6.160   1.756
10300TIP3    H154879   2.762   6.136   1.845
10300TIP3    H254880   2.717   6.139   1.701
10301TIP3   OH254881   3.067   6.075   1.666
10301TIP3    H154882   2.971   6.080   1.676
10301TIP3    H254883   3.093   6.010   1.735
10302TIP3   OH254884   3.224   5.936   1.853
10302TIP3    H154885   3.221   5.838   1.857
10302TIP3    H254886   3.201   5.965   1.944
10303TIP3   OH254887   2.202   6.065   1.766
10303TIP3    H154888   2.226   5.991   1.708
10303TIP3    H254889   2.192   6.020   1.853
10304TIP3   OH254890   2.689   5.668   1.662
10304TIP3    H154891   2.757   5.597   1.661
10304TIP3    H254892   2.677   5.680   1.566
10305TIP3   OH254893   2.725   5.828   1.875
10305TIP3    H154894   2.708   5.777   1.792
10305TIP3    H254895   2.666   5.904   1.865
10306TIP3   OH254896   2.672   7.522   0.194
10306TIP3    H154897   2.769   7.531   0.200
10306TIP3    H254898   2.651   7.584   0.122
10307TIP3   OH254899   2.035   6.975   0.139
10307TIP3    H154900   2.130   6.988   0.158
10307TIP3    H254901   2.038   6.916   0.064
10308TIP3   OH254902   1.909   7.512   0.629
10308TIP3    H154903   1.834   7.463   0.590
10308TIP3    H254904   1.932   7.452   0.703
10309TIP3   OH254905   1.991   7.326   0.822
10309TIP3    H154906   1.953   7.240   0.843
10309TIP3    H254907   2.008   7.363   0.911
10310TIP3   OH254908   3.742   7.409   1.116
10310TIP3    H154909   3.745   7.426   1.211
10310TIP3    H254910   3.812   7.467   1.085
10311TIP3   OH254911   3.700   7.367   1.411
10311TIP3    H154912   3.652   7.291   1.372
10311TIP3    H254913   3.748   7.321   1.482
10312TIP3   OH254914   3.543   6.939   1.878
10312TIP3    H154915   3.453   6.937   1.914
10312TIP3    H254916   3.580   7.020   1.918
10313TIP3   OH254917   3.677   6.771   0.419
10313TIP3    H154918   3.763   6.812   0.441
10313TIP3    H254919   3.673   6.702   0.488
10314TIP3   OH254920   3.710   6.581   0.609
10314TIP3    H154921   3.635   6.531   0.648
10314TIP3    H254922   3.770   6.593   0.686
10315TIP3   OH254923   3.686   6.850   1.108
10315TIP3    H154924   3.767   6.812   1.069
10315TIP3    H254925   3.701   6.945   1.090
10316TIP3   OH254926   3.543   7.142   1.334
10316TIP3    H154927   3.474   7.175   1.393
10316TIP3    H254928   3.488   7.101   1.263
10317TIP3   OH254929   3.741   6.564   0.242
10317TIP3    H154930   3.679   6.598   0.174
10317TIP3    H254931   3.729   6.632   0.312
10318TIP3   OH254932   3.579   6.290   0.099
10318TIP3    H154933   3.578   6.355   0.028
10318TIP3    H254934   3.560   6.205   0.056
10319TIP3   OH254935   3.493   6.428   0.666
10319TIP3    H154936   3.478   6.332   0.661
10319TIP3    H254937   3.460   6.449   0.755
10320TIP3   OH254938   1.994   6.637   1.072
10320TIP3    H154939   2.012   6.628   0.975
10320TIP3    H254940   2.083   6.618   1.107
10321TIP3   OH254941   3.580   6.625   1.636
10321TIP3    H154942   3.641   6.549   1.648
10321TIP3    H254943   3.640   6.702   1.635
10322TIP3   OH254944   3.730   6.412   1.700
10322TIP3    H154945   3.641   6.372   1.685
10322TIP3    H254946   3.786   6.333   1.693
10323TIP3   OH254947   3.480   6.019   0.122
10323TIP3    H154948   3.567   5.986   0.092
10323TIP3    H254949   3.427   5.987   0.048
10324TIP3   OH254950   3.457   6.186   0.511
10324TIP3    H154951   3.488   6.093   0.522
10324TIP3    H254952   3.537   6.226   0.474
10325TIP3   OH254953   3.524   6.241   1.057
10325TIP3    H154954   3.620   6.263   1.055
10325TIP3    H254955   3.506   6.254   1.151
10326TIP3   OH254956   3.531   6.312   1.335
10326TIP3    H154957   3.442   6.341   1.365
10326TIP3    H254958   3.574   6.398   1.312
10327TIP3   OH254959   1.956   6.167   1.689
10327TIP3    H154960   2.050   6.145   1.707
10327TIP3    H254961   1.910   6.084   1.714
10328TIP3   OH254962   3.758   5.720   1.868
10328TIP3    H154963   3.793   5.654   1.806
10328TIP3    H254964   3.767   5.801   1.813
10329TIP3   OH254965   3.527   5.915   0.517
10329TIP3    H154966   3.550   5.871   0.602
10329TIP3    H254967   3.467   5.851   0.473
10330TIP3   OH254968   2.076   5.996   0.973
10330TIP3    H154969   2.121   5.913   0.997
10330TIP3    H254970   2.132   6.064   1.011
10331TIP3   OH254971   1.903   6.297   1.076
10331TIP3    H154972   1.960   6.270   1.000
10331TIP3    H254973   1.951   6.376   1.103
10332TIP3   OH254974   3.710   5.929   1.703
10332TIP3    H154975   3.616   5.957   1.698
10332TIP3    H254976   3.712   5.874   1.624
10333TIP3   OH254977   3.718   5.916   0.171
10333TIP3    H154978   3.759   5.848   0.116
10333TIP3    H254979   3.785   5.984   0.183
10334TIP3   OH254980   1.938   5.924   0.485
10334TIP3    H154981   1.844   5.938   0.469
10334TIP3    H254982   1.981   5.970   0.412
10335TIP3   OH254983   3.413   7.414   0.679
10335TIP3    H154984   3.481   7.386   0.615
10335TIP3    H254985   3.465   7.466   0.743
10336TIP3   OH254986   1.935   5.787   1.313
10336TIP3    H154987   1.868   5.767   1.381
10336TIP3    H254988   1.889   5.854   1.259
10337TIP3   OH254989   2.160   7.106   1.728
10337TIP3    H154990   2.076   7.129   1.684
10337TIP3    H254991   2.133   7.099   1.820
10338TIP3   OH254992   2.449   7.208   1.357
10338TIP3    H154993   2.417   7.295   1.330
10338TIP3    H254994   2.542   7.215   1.327
10339TIP3   OH254995   2.881   7.350   1.646
10339TIP3    H154996   2.894   7.315   1.737
10339TIP3    H254997   2.971   7.382   1.623
10340TIP3   OH254998   3.109   7.477   1.578
10340TIP3    H154999   3.183   7.420   1.554
10340TIP3    H255000   3.145   7.522   1.658
10341TIP3   OH255001   3.612   5.738   1.490
10341TIP3    H155002   3.529   5.768   1.448
10341TIP3    H255003   3.628   5.655   1.439
10342TIP3   OH255004   2.188   7.526   1.355
10342TIP3    H155005   2.119   7.583   1.317
10342TIP3    H255006   2.158   7.514   1.447
10343TIP3   OH255007   2.437   7.486   1.264
10343TIP3    H155008   2.349   7.507   1.303
10343TIP3    H255009   2.435   7.546   1.187
10344TIP3   OH255010   2.910   7.480   1.181
10344TIP3    H155011   2.864   7.535   1.116
10344TIP3    H255012   2.923   7.544   1.255
10345TIP3   OH255013   3.136   7.359   1.285
10345TIP3    H155014   3.053   7.389   1.246
10345TIP3    H255015   3.187   7.442   1.275
10346TIP3   OH255016   3.393   7.516   1.304
10346TIP3    H155017   3.389   7.612   1.283
10346TIP3    H255018   3.417   7.479   1.217
10347TIP3   OH255019   2.137   7.395   1.049
10347TIP3    H155020   2.128   7.351   1.137
10347TIP3    H255021   2.219   7.357   1.012
10348TIP3   OH255022   2.345   7.267   0.916
10348TIP3    H155023   2.329   7.174   0.940
10348TIP3    H255024   2.431   7.283   0.961
10349TIP3   OH255025   2.607   7.316   1.004
10349TIP3    H155026   2.621   7.223   0.978
10349TIP3    H255027   2.610   7.310   1.101
10350TIP3   OH255028   2.950   5.880   0.915
10350TIP3    H155029   2.883   5.817   0.946
10350TIP3    H255030   3.006   5.826   0.859
10351TIP3   OH255031   3.464   5.685   0.922
10351TIP3    H155032   3.525   5.744   0.872
10351TIP3    H255033   3.376   5.721   0.900
10352TIP3   OH255034   3.631   5.811   0.750
10352TIP3    H155035   3.699   5.753   0.709
10352TIP3    H255036   3.682   5.894   0.762
10353TIP3   OH255037   2.188   5.743   0.703
10353TIP3    H155038   2.108   5.725   0.650
10353TIP3    H255039   2.233   5.657   0.696
10354TIP3   OH255040   2.068   5.717   0.280
10354TIP3    H155041   2.113   5.782   0.223
10354TIP3    H255042   2.011   5.773   0.336
10355TIP3   OH255043   2.634   5.735   0.681
10355TIP3    H155044   2.724   5.771   0.672
10355TIP3    H255045   2.631   5.714   0.774
10356TIP3   OH255046   3.207   5.737   0.843
10356TIP3    H155047   3.201   5.749   0.747
10356TIP3    H255048   3.168   5.648   0.856
10357TIP3   OH255049   3.333   5.740   0.409
10357TIP3    H155050   3.258   5.800   0.396
10357TIP3    H255051   3.289   5.654   0.430
10358TIP3   OH255052   2.057   7.315   0.372
10358TIP3    H155053   1.984   7.315   0.308
10358TIP3    H255054   2.058   7.410   0.394
10359TIP3   OH255055   2.245   5.910   0.130
10359TIP3    H155056   2.301   5.852   0.077
10359TIP3    H255057   2.314   5.948   0.188
10360TIP3   OH255058   2.759   5.936   0.358
10360TIP3    H155059   2.776   5.880   0.436
10360TIP3    H255060   2.756   6.022   0.408
10361TIP3   OH255061   2.940   7.458   0.213
10361TIP3    H155062   3.036   7.468   0.197
10361TIP3    H255063   2.922   7.398   0.137
10362TIP3   OH255064   3.613   7.397   0.480
10362TIP3    H155065   3.592   7.317   0.425
10362TIP3    H255066   3.605   7.470   0.415
10363TIP3   OH255067   2.176   5.798   1.647
10363TIP3    H155068   2.136   5.718   1.686
10363TIP3    H255069   2.266   5.793   1.686
10364TIP3   OH255070   2.376   5.736   1.813
10364TIP3    H155071   2.465   5.703   1.791
10364TIP3    H255072   2.339   5.655   1.852
10365TIP3   OH255073   2.235   7.406   0.070
10365TIP3    H155074   2.207   7.439   0.156
10365TIP3    H255075   2.315   7.357   0.089
10366TIP3   OH255076   3.216   5.664   1.827
10366TIP3    H155077   3.226   5.617   1.912
10366TIP3    H255078   3.308   5.660   1.793
10367TIP3   OH255079   3.538   7.270   1.689
10367TIP3    H155080   3.457   7.256   1.634
10367TIP3    H255081   3.525   7.364   1.711
10368TIP3   OH255082   4.983   6.657   0.685
10368TIP3    H155083   4.980   6.756   0.684
10368TIP3    H255084   4.908   6.634   0.627
10369TIP3   OH255085   4.868   6.582   1.037
10369TIP3    H155086   4.866   6.518   1.109
10369TIP3    H255087   4.831   6.530   0.963
10370TIP3   OH255088   4.103   6.551   1.193
10370TIP3    H155089   4.111   6.481   1.261
10370TIP3    H255090   4.178   6.607   1.216
10371TIP3   OH255091   5.235   6.877   0.867
10371TIP3    H155092   5.195   6.806   0.916
10371TIP3    H255093   5.239   6.948   0.934
10372TIP3   OH255094   4.195   6.996   1.042
10372TIP3    H155095   4.164   6.908   1.011
10372TIP3    H255096   4.291   6.978   1.046
10373TIP3   OH255097   3.859   6.350   0.593
10373TIP3    H155098   3.815   6.437   0.586
10373TIP3    H255099   3.803   6.296   0.535
10374TIP3   OH255100   3.931   6.573   0.808
10374TIP3    H155101   3.959   6.490   0.852
10374TIP3    H255102   3.999   6.585   0.740
10375TIP3   OH255103   4.948   7.394   0.891
10375TIP3    H155104   5.013   7.325   0.861
10375TIP3    H255105   4.925   7.358   0.977
10376TIP3   OH255106   4.705   6.822   1.087
10376TIP3    H155107   4.738   6.760   1.020
10376TIP3    H255108   4.787   6.838   1.137
10377TIP3   OH255109   5.563   5.989   1.156
10377TIP3    H155110   5.582   6.047   1.233
10377TIP3    H255111   5.622   6.030   1.091
10378TIP3   OH255112   5.022   6.268   1.120
10378TIP3    H155113   5.039   6.173   1.117
10378TIP3    H255114   5.011   6.284   1.024
10379TIP3   OH255115   4.333   6.078   0.838
10379TIP3    H155116   4.344   6.161   0.788
10379TIP3    H255117   4.293   6.021   0.768
10380TIP3   OH255118   5.107   6.085   0.674
10380TIP3    H155119   5.171   6.055   0.742
10380TIP3    H255120   5.164   6.143   0.621
10381TIP3   OH255121   3.995   6.320   0.911
10381TIP3    H155122   4.062   6.266   0.957
10381TIP3    H255123   4.007   6.288   0.820
10382TIP3   OH255124   4.511   6.475   0.845
10382TIP3    H155125   4.579   6.417   0.882
10382TIP3    H255126   4.460   6.410   0.792
10383TIP3   OH255127   5.608   6.128   1.385
10383TIP3    H155128   5.550   6.206   1.372
10383TIP3    H255129   5.611   6.122   1.481
10384TIP3   OH255130   4.225   5.968   1.241
10384TIP3    H155131   4.196   6.026   1.167
10384TIP3    H255132   4.157   5.991   1.310
10385TIP3   OH255133   4.951   6.916   0.597
10385TIP3    H155134   4.925   6.888   0.509
10385TIP3    H255135   4.923   7.010   0.600
10386TIP3   OH255136   4.475   6.732   1.265
10386TIP3    H155137   4.405   6.797   1.288
10386TIP3    H255138   4.546   6.792   1.236
10387TIP3   OH255139   5.288   6.022   0.875
10387TIP3    H155140   5.266   5.944   0.927
10387TIP3    H255141   5.357   6.064   0.928
10388TIP3   OH255142   4.182   6.153   1.046
10388TIP3    H155143   4.244   6.223   1.077
10388TIP3    H255144   4.233   6.114   0.971
10389TIP3   OH255145   4.321   6.933   1.348
10389TIP3    H155146   4.315   7.025   1.314
10389TIP3    H255147   4.232   6.925   1.392
10390TIP3   OH255148   3.927   6.892   0.425
10390TIP3    H155149   3.905   6.927   0.336
10390TIP3    H255150   3.935   6.974   0.478
10391TIP3   OH255151   5.289   7.061   1.103
10391TIP3    H155152   5.192   7.073   1.115
10391TIP3    H255153   5.315   7.153   1.082
10392TIP3   OH255154   5.321   5.889   1.241
10392TIP3    H155155   5.249   5.951   1.229
10392TIP3    H255156   5.393   5.931   1.190
10393TIP3   OH255157   4.617   5.702   0.988
10393TIP3    H155158   4.602   5.606   0.980
10393TIP3    H255159   4.529   5.733   1.019
10394TIP3   OH255160   5.116   7.239   0.765
10394TIP3    H155161   5.157   7.167   0.712
10394TIP3    H255162   5.160   7.317   0.725
10395TIP3   OH255163   5.237   7.032   0.615
10395TIP3    H155164   5.208   6.964   0.552
10395TIP3    H255165   5.239   6.981   0.698
10396TIP3   OH255166   5.396   6.893   1.463
10396TIP3    H155167   5.412   6.827   1.392
10396TIP3    H255168   5.419   6.976   1.417
10397TIP3   OH255169   4.847   6.577   0.437
10397TIP3    H155170   4.780   6.639   0.403
10397TIP3    H255171   4.919   6.590   0.373
10398TIP3   OH255172   4.856   6.436   0.142
10398TIP3    H155173   4.927   6.439   0.208
10398TIP3    H255174   4.885   6.363   0.087
10399TIP3   OH255175   5.586   6.524   1.265
10399TIP3    H155176   5.521   6.596   1.270
10399TIP3    H255177   5.637   6.548   1.186
10400TIP3   OH255178   5.194   6.602   0.533
10400TIP3    H155179   5.119   6.626   0.592
10400TIP3    H255180   5.241   6.534   0.585
10401TIP3   OH255181   5.176   6.415   1.454
10401TIP3    H155182   5.189   6.504   1.493
10401TIP3    H255183   5.126   6.446   1.375
10402TIP3   OH255184   4.353   6.667   0.723
10402TIP3    H155185   4.322   6.628   0.638
10402TIP3    H255186   4.415   6.598   0.756
10403TIP3   OH255187   4.485   7.005   0.991
10403TIP3    H155188   4.485   6.954   0.909
10403TIP3    H255189   4.564   6.970   1.036
10404TIP3   OH255190   4.386   6.542   1.090
10404TIP3    H155191   4.440   6.551   1.009
10404TIP3    H255192   4.426   6.609   1.150
10405TIP3   OH255193   5.030   7.100   1.161
10405TIP3    H155194   5.001   7.164   1.227
10405TIP3    H255195   5.004   7.015   1.202
10406TIP3   OH255196   4.482   6.986   1.559
10406TIP3    H155197   4.439   7.059   1.608
10406TIP3    H255198   4.415   6.965   1.489
10407TIP3   OH255199   5.079   6.522   0.298
10407TIP3    H155200   5.134   6.541   0.378
10407TIP3    H255201   5.125   6.573   0.227
10408TIP3   OH255202   4.177   6.601   1.473
10408TIP3    H155203   4.182   6.668   1.544
10408TIP3    H255204   4.082   6.609   1.454
10409TIP3   OH255205   4.853   7.196   0.642
10409TIP3    H155206   4.894   7.225   0.724
10409TIP3    H255207   4.795   7.269   0.619
10410TIP3   OH255208   4.307   7.188   1.633
10410TIP3    H155209   4.300   7.180   1.537
10410TIP3    H255210   4.214   7.175   1.661
10411TIP3   OH255211   5.455   5.695   0.286
10411TIP3    H155212   5.360   5.704   0.308
10411TIP3    H255213   5.472   5.780   0.242
10412TIP3   OH255214   4.251   6.569   0.482
10412TIP3    H155215   4.221   6.648   0.434
10412TIP3    H255216   4.185   6.503   0.461
10413TIP3   OH255217   5.567   7.129   0.124
10413TIP3    H155218   5.580   7.223   0.142
10413TIP3    H255219   5.659   7.097   0.121
10414TIP3   OH255220   3.859   6.813   1.376
10414TIP3    H155221   3.815   6.805   1.289
10414TIP3    H255222   3.869   6.718   1.397
10415TIP3   OH255223   3.835   7.086   1.052
10415TIP3    H155224   3.931   7.075   1.050
10415TIP3    H255225   3.827   7.169   1.102
10416TIP3   OH255226   5.660   7.157   1.622
10416TIP3    H155227   5.647   7.061   1.618
10416TIP3    H255228   5.572   7.182   1.660
10417TIP3   OH255229   4.755   7.111   1.507
10417TIP3    H155230   4.761   7.195   1.558
10417TIP3    H255231   4.668   7.074   1.532
10418TIP3   OH255232   4.800   7.486   0.488
10418TIP3    H155233   4.790   7.480   0.392
10418TIP3    H255234   4.802   7.582   0.504
10419TIP3   OH255235   4.163   7.373   0.668
10419TIP3    H155236   4.178   7.333   0.757
10419TIP3    H255237   4.078   7.332   0.645
10420TIP3   OH255238   5.099   7.401   0.192
10420TIP3    H155239   5.154   7.332   0.148
10420TIP3    H255240   5.111   7.376   0.285
10421TIP3   OH255241   5.073   7.400   0.464
10421TIP3    H155242   4.977   7.407   0.482
10421TIP3    H255243   5.098   7.326   0.521
10422TIP3   OH255244   5.362   6.301   1.673
10422TIP3    H155245   5.334   6.351   1.594
10422TIP3    H255246   5.377   6.212   1.638
10423TIP3   OH255247   4.089   6.944   1.469
10423TIP3    H155248   4.110   6.908   1.557
10423TIP3    H255249   4.001   6.905   1.448
10424TIP3   OH255250   4.357   5.793   1.063
10424TIP3    H155251   4.267   5.779   1.027
10424TIP3    H255252   4.342   5.875   1.113
10425TIP3   OH255253   4.822   5.759   1.400
10425TIP3    H155254   4.860   5.715   1.478
10425TIP3    H255255   4.724   5.748   1.414
10426TIP3   OH255256   5.153   6.143   1.488
10426TIP3    H155257   5.094   6.108   1.559
10426TIP3    H255258   5.132   6.234   1.458
10427TIP3   OH255259   5.233   6.608   0.085
10427TIP3    H155260   5.217   6.620  -0.010
10427TIP3    H255261   5.310   6.667   0.092
10428TIP3   OH255262   4.786   6.016   0.133
10428TIP3    H155263   4.750   6.010   0.224
10428TIP3    H255264   4.754   5.930   0.101
10429TIP3   OH255265   4.367   6.291   1.191
10429TIP3    H155266   4.292   6.289   1.254
10429TIP3    H255267   4.359   6.380   1.151
10430TIP3   OH255268   4.362   6.300   0.677
10430TIP3    H155269   4.268   6.276   0.662
10430TIP3    H255270   4.400   6.273   0.591
10431TIP3   OH255271   4.914   6.351   0.550
10431TIP3    H155272   4.876   6.435   0.515
10431TIP3    H255273   4.984   6.334   0.484
10432TIP3   OH255274   4.829   6.365   1.690
10432TIP3    H155275   4.764   6.299   1.726
10432TIP3    H255276   4.892   6.373   1.764
10433TIP3   OH255277   5.019   6.301   0.838
10433TIP3    H155278   4.989   6.357   0.764
10433TIP3    H255279   5.027   6.216   0.791
10434TIP3   OH255280   4.128   6.313   1.356
10434TIP3    H155281   4.138   6.354   1.443
10434TIP3    H255282   4.085   6.229   1.378
10435TIP3   OH255283   4.471   5.967   0.058
10435TIP3    H155284   4.429   5.983   0.143
10435TIP3    H255285   4.416   6.031   0.011
10436TIP3   OH255286   3.795   6.024   0.757
10436TIP3    H155287   3.864   6.020   0.826
10436TIP3    H255288   3.839   5.988   0.678
10437TIP3   OH255289   3.921   6.096   0.290
10437TIP3    H155290   3.972   6.158   0.235
10437TIP3    H255291   3.853   6.158   0.325
10438TIP3   OH255292   4.943   6.458   1.295
10438TIP3    H155293   4.975   6.390   1.231
10438TIP3    H255294   4.886   6.406   1.354
10439TIP3   OH255295   4.619   6.058   0.776
10439TIP3    H155296   4.525   6.057   0.804
10439TIP3    H255297   4.666   6.038   0.858
10440TIP3   OH255298   4.098   6.211   0.663
10440TIP3    H155299   4.010   6.228   0.623
10440TIP3    H255300   4.127   6.128   0.622
10441TIP3   OH255301   4.462   6.219   0.430
10441TIP3    H155302   4.558   6.227   0.443
10441TIP3    H255303   4.438   6.283   0.361
10442TIP3   OH255304   5.059   5.981   1.099
10442TIP3    H155305   4.990   5.983   1.168
10442TIP3    H255306   5.008   5.954   1.021
10443TIP3   OH255307   4.327   6.345   0.189
10443TIP3    H155308   4.282   6.295   0.119
10443TIP3    H255309   4.413   6.352   0.143
10444TIP3   OH255310   5.377   7.543   1.733
10444TIP3    H155311   5.404   7.581   1.647
10444TIP3    H255312   5.451   7.575   1.787
10445TIP3   OH255313   4.146   6.790   1.690
10445TIP3    H155314   4.218   6.816   1.750
10445TIP3    H255315   4.069   6.797   1.750
10446TIP3   OH255316   4.746   6.333   0.965
10446TIP3    H155317   4.806   6.280   0.912
10446TIP3    H255318   4.731   6.277   1.043
10447TIP3   OH255319   4.246   5.947   0.613
10447TIP3    H155320   4.215   5.855   0.610
10447TIP3    H255321   4.324   5.940   0.555
10448TIP3   OH255322   4.609   6.164   1.206
10448TIP3    H155323   4.527   6.217   1.214
10448TIP3    H255324   4.665   6.200   1.277
10449TIP3   OH255325   4.669   6.784   0.378
10449TIP3    H155326   4.589   6.740   0.343
10449TIP3    H255327   4.644   6.800   0.471
10450TIP3   OH255328   5.389   6.708   1.257
10450TIP3    H155329   5.444   6.757   1.193
10450TIP3    H255330   5.302   6.711   1.211
10451TIP3   OH255331   5.053   6.075   0.180
10451TIP3    H155332   4.956   6.079   0.183
10451TIP3    H255333   5.086   6.151   0.233
10452TIP3   OH255334   4.819   6.814   1.502
10452TIP3    H155335   4.781   6.773   1.580
10452TIP3    H255336   4.792   6.907   1.511
10453TIP3   OH255337   5.123   6.261   0.361
10453TIP3    H155338   5.213   6.245   0.396
10453TIP3    H255339   5.135   6.342   0.309
10454TIP3   OH255340   4.180   6.728   0.957
10454TIP3    H155341   4.247   6.718   0.887
10454TIP3    H255342   4.186   6.642   1.002
10455TIP3   OH255343   4.879   6.934   0.281
10455TIP3    H155344   4.843   7.019   0.313
10455TIP3    H255345   4.805   6.872   0.301
10456TIP3   OH255346   3.879   6.567   1.482
10456TIP3    H155347   3.895   6.522   1.568
10456TIP3    H255348   3.816   6.506   1.438
10457TIP3   OH255349   4.580   6.522   1.700
10457TIP3    H155350   4.545   6.492   1.614
10457TIP3    H255351   4.672   6.492   1.697
10458TIP3   OH255352   5.050   7.057   1.496
10458TIP3    H155353   4.957   7.074   1.473
10458TIP3    H255354   5.046   7.086   1.590
10459TIP3   OH255355   5.616   6.273   0.335
10459TIP3    H155356   5.557   6.244   0.263
10459TIP3    H255357   5.622   6.368   0.310
10460TIP3   OH255358   5.614   6.860   1.614
10460TIP3    H155359   5.525   6.883   1.578
10460TIP3    H255360   5.669   6.855   1.533
10461TIP3   OH255361   5.449   7.155   0.375
10461TIP3    H155362   5.408   7.074   0.406
10461TIP3    H255363   5.473   7.138   0.282
10462TIP3   OH255364   5.165   6.639   1.085
10462TIP3    H155365   5.071   6.618   1.073
10462TIP3    H255366   5.209   6.564   1.040
10463TIP3   OH255367   4.417   7.072   0.695
10463TIP3    H155368   4.467   7.153   0.675
10463TIP3    H255369   4.330   7.095   0.662
10464TIP3   OH255370   3.992   6.558   0.145
10464TIP3    H155371   4.051   6.617   0.195
10464TIP3    H255372   3.905   6.587   0.179
10465TIP3   OH255373   4.558   6.839   0.647
10465TIP3    H155374   4.526   6.930   0.655
10465TIP3    H255375   4.487   6.789   0.691
10466TIP3   OH255376   4.603   7.258   1.289
10466TIP3    H155377   4.650   7.337   1.259
10466TIP3    H255378   4.665   7.223   1.355
10467TIP3   OH255379   4.426   7.337   0.601
10467TIP3    H155380   4.329   7.352   0.613
10467TIP3    H255381   4.463   7.421   0.632
10468TIP3   OH255382   4.954   6.856   1.248
10468TIP3    H155383   4.924   6.837   1.340
10468TIP3    H255384   5.019   6.786   1.232
10469TIP3   OH255385   5.184   6.961   0.159
10469TIP3    H155386   5.220   6.918   0.238
10469TIP3    H255387   5.090   6.944   0.174
10470TIP3   OH255388   5.239   7.315   1.497
10470TIP3    H155389   5.169   7.266   1.451
10470TIP3    H255390   5.256   7.385   1.431
10471TIP3   OH255391   5.635   7.398   0.182
10471TIP3    H155392   5.706   7.461   0.165
10471TIP3    H255393   5.564   7.461   0.210
10472TIP3   OH255394   4.044   6.040   1.437
10472TIP3    H155395   3.953   6.076   1.436
10472TIP3    H255396   4.033   5.956   1.484
10473TIP3   OH255397   5.267   6.828   0.388
10473TIP3    H155398   5.243   6.748   0.438
10473TIP3    H255399   5.364   6.830   0.400
10474TIP3   OH255400   4.005   7.218   1.280
10474TIP3    H155401   4.037   7.126   1.280
10474TIP3    H255402   4.031   7.247   1.367
10475TIP3   OH255403   4.477   7.026   0.254
10475TIP3    H155404   4.511   6.974   0.328
10475TIP3    H255405   4.489   7.119   0.286
10476TIP3   OH255406   4.131   6.749   0.299
10476TIP3    H155407   4.062   6.789   0.356
10476TIP3    H255408   4.186   6.826   0.276
10477TIP3   OH255409   4.915   6.020   1.339
10477TIP3    H155410   4.993   6.018   1.394
10477TIP3    H255411   4.878   5.931   1.353
10478TIP3   OH255412   4.992   5.975   0.445
10478TIP3    H155413   5.016   6.020   0.364
10478TIP3    H255414   5.049   6.020   0.509
10479TIP3   OH255415   4.757   7.188   0.320
10479TIP3    H155416   4.678   7.245   0.336
10479TIP3    H255417   4.814   7.244   0.265
10480TIP3   OH255418   4.714   6.151   0.526
10480TIP3    H155419   4.793   6.209   0.529
10480TIP3    H255420   4.689   6.139   0.620
10481TIP3   OH255421   4.773   6.254   1.441
10481TIP3    H155422   4.772   6.306   1.524
10481TIP3    H255423   4.832   6.178   1.451
10482TIP3   OH255424   4.799   5.854   0.610
10482TIP3    H155425   4.765   5.920   0.673
10482TIP3    H255426   4.869   5.909   0.567
10483TIP3   OH255427   4.498   7.296   0.329
10483TIP3    H155428   4.514   7.378   0.276
10483TIP3    H255429   4.471   7.331   0.417
10484TIP3   OH255430   4.361   5.966   0.299
10484TIP3    H155431   4.362   6.060   0.323
10484TIP3    H255432   4.455   5.939   0.308
10485TIP3   OH255433   5.387   6.038   1.529
10485TIP3    H155434   5.296   6.069   1.513
10485TIP3    H255435   5.420   6.035   1.437
10486TIP3   OH255436   5.249   6.418   0.928
10486TIP3    H155437   5.167   6.373   0.901
10486TIP3    H255438   5.298   6.349   0.979
10487TIP3   OH255439   4.192   7.009   0.189
10487TIP3    H155440   4.257   7.072   0.222
10487TIP3    H255441   4.241   6.965   0.118
10488TIP3   OH255442   4.022   6.278   0.104
10488TIP3    H155443   4.023   6.374   0.122
10488TIP3    H255444   3.934   6.261   0.071
10489TIP3   OH255445   5.356   7.342   1.095
10489TIP3    H155446   5.346   7.412   1.027
10489TIP3    H255447   5.452   7.349   1.113
10490TIP3   OH255448   4.104   5.756   0.978
10490TIP3    H155449   4.086   5.757   0.881
10490TIP3    H255450   4.064   5.670   1.002
10491TIP3   OH255451   3.999   7.150   0.592
10491TIP3    H155452   3.913   7.193   0.586
10491TIP3    H255453   4.046   7.193   0.520
10492TIP3   OH255454   3.921   7.414   1.719
10492TIP3    H155455   3.980   7.392   1.794
10492TIP3    H255456   3.879   7.328   1.701
10493TIP3   OH255457   4.390   7.305   1.879
10493TIP3    H155458   4.465   7.254   1.913
10493TIP3    H255459   4.386   7.277   1.786
10494TIP3   OH255460   4.808   7.267   0.048
10494TIP3    H155461   4.738   7.202   0.064
10494TIP3    H255462   4.878   7.217   0.005
10495TIP3   OH255463   5.038   7.144   1.756
10495TIP3    H155464   5.007   7.055   1.783
10495TIP3    H255465   5.115   7.156   1.814
10496TIP3   OH255466   5.281   7.225   0.096
10496TIP3    H155467   5.292   7.129   0.093
10496TIP3    H255468   5.313   7.255   0.009
10497TIP3   OH255469   3.910   6.790   1.819
10497TIP3    H155470   3.927   6.699   1.790
10497TIP3    H255471   3.837   6.816   1.761
10498TIP3   OH255472   4.332   6.808   0.022
10498TIP3    H155473   4.363   6.741   0.085
10498TIP3    H255474   4.409   6.814  -0.036
10499TIP3   OH255475   4.583   6.790   1.757
10499TIP3    H155476   4.550   6.822   1.671
10499TIP3    H255477   4.589   6.692   1.746
10500TIP3   OH255478   5.151   6.774   1.497
10500TIP3    H155479   5.231   6.831   1.492
10500TIP3    H255480   5.083   6.843   1.499
10501TIP3   OH255481   4.004   6.513   1.757
10501TIP3    H155482   4.046   6.427   1.749
10501TIP3    H255483   3.981   6.514   1.852
10502TIP3   OH255484   4.467   6.630   0.262
10502TIP3    H155485   4.418   6.574   0.325
10502TIP3    H255486   4.500   6.561   0.199
10503TIP3   OH255487   4.393   6.407   1.492
10503TIP3    H155488   4.333   6.479   1.517
10503TIP3    H255489   4.434   6.444   1.411
10504TIP3   OH255490   4.577   6.452   0.090
10504TIP3    H155491   4.555   6.437  -0.004
10504TIP3    H255492   4.674   6.458   0.092
10505TIP3   OH255493   4.903   6.659   1.821
10505TIP3    H155494   4.999   6.666   1.819
10505TIP3    H255495   4.886   6.589   1.886
10506TIP3   OH255496   5.505   6.679  11.009
10506TIP3    H155497   5.490   6.641  10.923
10506TIP3    H255498   5.512   6.774  10.988
10507TIP3   OH255499   4.435   6.145   1.597
10507TIP3    H155500   4.446   6.075   1.531
10507TIP3    H255501   4.429   6.226   1.543
10508TIP3   OH255502   4.474   5.983   1.353
10508TIP3    H155503   4.525   6.030   1.283
10508TIP3    H255504   4.385   5.976   1.313
10509TIP3   OH255505   4.631   6.534   1.380
10509TIP3    H155506   4.703   6.517   1.318
10509TIP3    H255507   4.591   6.615   1.345
10510TIP3   OH255508   5.072   6.303   1.860
10510TIP3    H155509   5.096   6.211   1.883
10510TIP3    H255510   5.153   6.352   1.884
10511TIP3   OH255511   5.202   6.585   1.690
10511TIP3    H155512   5.178   6.660   1.631
10511TIP3    H255513   5.299   6.586   1.674
10512TIP3   OH255514   4.281   6.271   1.789
10512TIP3    H155515   4.204   6.213   1.774
10512TIP3    H255516   4.345   6.233   1.727
10513TIP3   OH255517   4.554   5.727   1.391
10513TIP3    H155518   4.534   5.823   1.382
10513TIP3    H255519   4.479   5.690   1.341
10514TIP3   OH255520   4.681   6.160   1.756
10514TIP3    H155521   4.647   6.136   1.845
10514TIP3    H255522   4.602   6.139   1.702
10515TIP3   OH255523   4.950   6.071   1.667
10515TIP3    H155524   4.852   6.070   1.677
10515TIP3    H255525   4.976   6.004   1.734
10516TIP3   OH255526   5.106   5.938   1.851
10516TIP3    H155527   5.107   5.839   1.856
10516TIP3    H255528   5.088   5.964   1.944
10517TIP3   OH255529   4.088   6.065   1.766
10517TIP3    H155530   4.112   5.991   1.708
10517TIP3    H255531   4.078   6.020   1.853
10518TIP3   OH255532   4.575   5.668   1.662
10518TIP3    H155533   4.642   5.597   1.661
10518TIP3    H255534   4.563   5.680   1.566
10519TIP3   OH255535   4.611   5.828   1.875
10519TIP3    H155536   4.593   5.777   1.792
10519TIP3    H255537   4.551   5.904   1.865
10520TIP3   OH255538   4.557   7.522   0.194
10520TIP3    H155539   4.654   7.531   0.200
10520TIP3    H255540   4.537   7.584   0.123
10521TIP3   OH255541   3.920   6.975   0.140
10521TIP3    H155542   4.016   6.987   0.158
10521TIP3    H255543   3.922   6.918   0.063
10522TIP3   OH255544   3.794   7.513   0.632
10522TIP3    H155545   3.719   7.465   0.588
10522TIP3    H255546   3.819   7.449   0.702
10523TIP3   OH255547   3.873   7.329   0.823
10523TIP3    H155548   3.838   7.241   0.843
10523TIP3    H255549   3.896   7.362   0.912
10524TIP3   OH255550   5.627   7.409   1.115
10524TIP3    H155551   5.630   7.425   1.211
10524TIP3    H255552   5.698   7.467   1.085
10525TIP3   OH255553   5.585   7.367   1.411
10525TIP3    H155554   5.537   7.291   1.372
10525TIP3    H255555   5.633   7.321   1.482
10526TIP3   OH255556   5.429   6.939   1.878
10526TIP3    H155557   5.338   6.937   1.914
10526TIP3    H255558   5.466   7.020   1.918
10527TIP3   OH255559   5.563   6.771   0.419
10527TIP3    H155560   5.648   6.812   0.441
10527TIP3    H255561   5.559   6.702   0.488
10528TIP3   OH255562   5.596   6.581   0.609
10528TIP3    H155563   5.521   6.531   0.648
10528TIP3    H255564   5.656   6.593   0.686
10529TIP3   OH255565   5.572   6.850   1.108
10529TIP3    H155566   5.653   6.812   1.069
10529TIP3    H255567   5.587   6.945   1.091
10530TIP3   OH255568   5.428   7.141   1.334
10530TIP3    H155569   5.359   7.175   1.392
10530TIP3    H255570   5.373   7.101   1.263
10531TIP3   OH255571   5.626   6.564   0.242
10531TIP3    H155572   5.565   6.598   0.174
10531TIP3    H255573   5.614   6.632   0.312
10532TIP3   OH255574   5.464   6.290   0.098
10532TIP3    H155575   5.464   6.355   0.028
10532TIP3    H255576   5.443   6.205   0.055
10533TIP3   OH255577   5.379   6.428   0.666
10533TIP3    H155578   5.364   6.332   0.661
10533TIP3    H255579   5.347   6.448   0.756
10534TIP3   OH255580   3.880   6.637   1.073
10534TIP3    H155581   3.897   6.628   0.976
10534TIP3    H255582   3.969   6.618   1.107
10535TIP3   OH255583   5.464   6.623   1.636
10535TIP3    H155584   5.528   6.549   1.648
10535TIP3    H255585   5.524   6.701   1.635
10536TIP3   OH255586   5.614   6.411   1.700
10536TIP3    H155587   5.527   6.372   1.685
10536TIP3    H255588   5.672   6.333   1.693
10537TIP3   OH255589   5.367   6.019   0.124
10537TIP3    H155590   5.453   5.986   0.090
10537TIP3    H255591   5.311   5.992   0.051
10538TIP3   OH255592   5.343   6.186   0.511
10538TIP3    H155593   5.373   6.093   0.522
10538TIP3    H255594   5.423   6.226   0.473
10539TIP3   OH255595   5.409   6.241   1.056
10539TIP3    H155596   5.506   6.263   1.054
10539TIP3    H255597   5.391   6.254   1.151
10540TIP3   OH255598   5.415   6.313   1.339
10540TIP3    H155599   5.326   6.342   1.364
10540TIP3    H255600   5.460   6.397   1.311
10541TIP3   OH255601   3.842   6.167   1.689
10541TIP3    H155602   3.935   6.145   1.707
10541TIP3    H255603   3.795   6.084   1.714
10542TIP3   OH255604   5.644   5.720   1.868
10542TIP3    H155605   5.679   5.653   1.806
10542TIP3    H255606   5.653   5.800   1.813
10543TIP3   OH255607   5.413   5.915   0.517
10543TIP3    H155608   5.436   5.871   0.602
10543TIP3    H255609   5.353   5.852   0.473
10544TIP3   OH255610   3.961   5.996   0.973
10544TIP3    H155611   4.007   5.913   0.997
10544TIP3    H255612   4.018   6.065   1.011
10545TIP3   OH255613   3.789   6.296   1.076
10545TIP3    H155614   3.846   6.270   1.000
10545TIP3    H255615   3.837   6.376   1.103
10546TIP3   OH255616   5.596   5.929   1.703
10546TIP3    H155617   5.503   5.956   1.699
10546TIP3    H255618   5.598   5.874   1.623
10547TIP3   OH255619   5.605   5.915   0.172
10547TIP3    H155620   5.645   5.848   0.115
10547TIP3    H255621   5.671   5.984   0.182
10548TIP3   OH255622   3.824   5.922   0.484
10548TIP3    H155623   3.730   5.940   0.469
10548TIP3    H255624   3.867   5.972   0.413
10549TIP3   OH255625   5.300   7.415   0.678
10549TIP3    H155626   5.367   7.386   0.614
10549TIP3    H255627   5.351   7.466   0.743
10550TIP3   OH255628   3.820   5.786   1.312
10550TIP3    H155629   3.754   5.767   1.381
10550TIP3    H255630   3.775   5.854   1.259
10551TIP3   OH255631   4.045   7.106   1.729
10551TIP3    H155632   3.962   7.129   1.684
10551TIP3    H255633   4.018   7.100   1.820
10552TIP3   OH255634   4.334   7.208   1.358
10552TIP3    H155635   4.303   7.296   1.330
10552TIP3    H255636   4.427   7.216   1.327
10553TIP3   OH255637   4.767   7.350   1.646
10553TIP3    H155638   4.780   7.315   1.737
10553TIP3    H255639   4.857   7.382   1.623
10554TIP3   OH255640   4.995   7.477   1.578
10554TIP3    H155641   5.069   7.420   1.554
10554TIP3    H255642   5.031   7.522   1.658
10555TIP3   OH255643   5.497   5.738   1.490
10555TIP3    H155644   5.415   5.768   1.448
10555TIP3    H255645   5.514   5.655   1.439
10556TIP3   OH255646   4.077   7.534   1.360
10556TIP3    H155647   4.003   7.577   1.315
10556TIP3    H255648   4.042   7.510   1.447
10557TIP3   OH255649   4.324   7.489   1.266
10557TIP3    H155650   4.234   7.506   1.302
10557TIP3    H255651   4.320   7.545   1.186
10558TIP3   OH255652   4.796   7.480   1.181
10558TIP3    H155653   4.750   7.535   1.116
10558TIP3    H255654   4.809   7.544   1.255
10559TIP3   OH255655   5.022   7.359   1.285
10559TIP3    H155656   4.938   7.389   1.246
10559TIP3    H255657   5.073   7.442   1.275
10560TIP3   OH255658   5.279   7.516   1.304
10560TIP3    H155659   5.274   7.612   1.283
10560TIP3    H255660   5.303   7.479   1.217
10561TIP3   OH255661   4.023   7.396   1.051
10561TIP3    H155662   4.015   7.350   1.138
10561TIP3    H255663   4.105   7.357   1.012
10562TIP3   OH255664   4.231   7.267   0.916
10562TIP3    H155665   4.215   7.174   0.940
10562TIP3    H255666   4.317   7.283   0.960
10563TIP3   OH255667   4.492   7.316   1.004
10563TIP3    H155668   4.507   7.223   0.978
10563TIP3    H255669   4.496   7.310   1.101
10564TIP3   OH255670   4.836   5.880   0.915
10564TIP3    H155671   4.769   5.817   0.946
10564TIP3    H255672   4.892   5.826   0.859
10565TIP3   OH255673   5.350   5.684   0.922
10565TIP3    H155674   5.411   5.744   0.872
10565TIP3    H255675   5.262   5.721   0.900
10566TIP3   OH255676   5.516   5.811   0.750
10566TIP3    H155677   5.585   5.753   0.709
10566TIP3    H255678   5.568   5.894   0.762
10567TIP3   OH255679   4.074   5.742   0.704
10567TIP3    H155680   3.994   5.725   0.650
10567TIP3    H255681   4.119   5.656   0.695
10568TIP3   OH255682   3.953   5.718   0.280
10568TIP3    H155683   3.998   5.784   0.223
10568TIP3    H255684   3.896   5.775   0.335
10569TIP3   OH255685   4.519   5.735   0.681
10569TIP3    H155686   4.609   5.771   0.672
10569TIP3    H255687   4.517   5.713   0.774
10570TIP3   OH255688   5.093   5.737   0.843
10570TIP3    H155689   5.086   5.749   0.747
10570TIP3    H255690   5.054   5.648   0.856
10571TIP3   OH255691   5.218   5.740   0.409
10571TIP3    H155692   5.144   5.800   0.397
10571TIP3    H255693   5.174   5.654   0.430
10572TIP3   OH255694   3.944   7.315   0.372
10572TIP3    H155695   3.871   7.315   0.307
10572TIP3    H255696   3.945   7.409   0.393
10573TIP3   OH255697   4.132   5.906   0.130
10573TIP3    H155698   4.189   5.850   0.077
10573TIP3    H255699   4.198   5.949   0.187
10574TIP3   OH255700   4.641   5.939   0.361
10574TIP3    H155701   4.661   5.879   0.436
10574TIP3    H255702   4.644   6.023   0.411
10575TIP3   OH255703   4.826   7.458   0.213
10575TIP3    H155704   4.922   7.468   0.196
10575TIP3    H255705   4.808   7.398   0.137
10576TIP3   OH255706   5.499   7.397   0.480
10576TIP3    H155707   5.478   7.317   0.425
10576TIP3    H255708   5.491   7.470   0.415
10577TIP3   OH255709   4.062   5.798   1.647
10577TIP3    H155710   4.021   5.718   1.686
10577TIP3    H255711   4.152   5.793   1.686
10578TIP3   OH255712   4.261   5.737   1.813
10578TIP3    H155713   4.351   5.703   1.791
10578TIP3    H255714   4.224   5.655   1.852
10579TIP3   OH255715   4.120   7.406   0.070
10579TIP3    H155716   4.093   7.440   0.156
10579TIP3    H255717   4.201   7.357   0.089
10580TIP3   OH255718   5.103   5.665   1.828
10580TIP3    H155719   5.112   5.616   1.912
10580TIP3    H255720   5.194   5.661   1.793
10581TIP3   OH255721   5.423   7.270   1.689
10581TIP3    H155722   5.343   7.256   1.634
10581TIP3    H255723   5.411   7.364   1.711
10582TIP3   OH255724   6.869   6.658   0.685
10582TIP3    H155725   6.865   6.756   0.684
10582TIP3    H255726   6.794   6.634   0.627
10583TIP3   OH255727   6.754   6.582   1.037
10583TIP3    H155728   6.752   6.518   1.109
10583TIP3    H255729   6.717   6.530   0.963
10584TIP3   OH255730   5.988   6.551   1.193
10584TIP3    H155731   5.997   6.481   1.261
10584TIP3    H255732   6.063   6.607   1.215
10585TIP3   OH255733   7.121   6.877   0.867
10585TIP3    H155734   7.080   6.805   0.916
10585TIP3    H255735   7.124   6.948   0.934
10586TIP3   OH255736   6.081   6.996   1.042
10586TIP3    H155737   6.050   6.908   1.011
10586TIP3    H255738   6.176   6.978   1.046
10587TIP3   OH255739   5.744   6.350   0.592
10587TIP3    H155740   5.701   6.437   0.586
10587TIP3    H255741   5.689   6.296   0.535
10588TIP3   OH255742   5.816   6.573   0.808
10588TIP3    H155743   5.844   6.490   0.852
10588TIP3    H255744   5.884   6.585   0.740
10589TIP3   OH255745   6.833   7.394   0.891
10589TIP3    H155746   6.899   7.325   0.861
10589TIP3    H255747   6.811   7.358   0.977
10590TIP3   OH255748   6.591   6.821   1.087
10590TIP3    H155749   6.624   6.760   1.019
10590TIP3    H255750   6.672   6.838   1.136
10591TIP3   OH255751   7.450   5.990   1.157
10591TIP3    H155752   7.468   6.047   1.234
10591TIP3    H255753   7.509   6.030   1.091
10592TIP3   OH255754   6.907   6.269   1.117
10592TIP3    H155755   6.925   6.173   1.118
10592TIP3    H255756   6.897   6.283   1.021
10593TIP3   OH255757   6.218   6.078   0.838
10593TIP3    H155758   6.230   6.161   0.788
10593TIP3    H255759   6.179   6.021   0.768
10594TIP3   OH255760   6.992   6.085   0.674
10594TIP3    H155761   7.057   6.054   0.742
10594TIP3    H255762   7.049   6.143   0.620
10595TIP3   OH255763   5.880   6.320   0.911
10595TIP3    H155764   5.947   6.266   0.957
10595TIP3    H255765   5.892   6.288   0.820
10596TIP3   OH255766   6.396   6.475   0.845
10596TIP3    H155767   6.464   6.417   0.882
10596TIP3    H255768   6.346   6.410   0.792
10597TIP3   OH255769   7.495   6.129   1.385
10597TIP3    H155770   7.434   6.206   1.373
10597TIP3    H255771   7.498   6.122   1.481
10598TIP3   OH255772   6.110   5.968   1.241
10598TIP3    H155773   6.082   6.026   1.167
10598TIP3    H255774   6.043   5.991   1.310
10599TIP3   OH255775   6.837   6.916   0.597
10599TIP3    H155776   6.810   6.888   0.509
10599TIP3    H255777   6.808   7.010   0.600
10600TIP3   OH255778   6.360   6.732   1.265
10600TIP3    H155779   6.291   6.797   1.288
10600TIP3    H255780   6.431   6.792   1.236
10601TIP3   OH255781   7.174   6.020   0.874
10601TIP3    H155782   7.152   5.945   0.929
10601TIP3    H255783   7.241   6.065   0.928
10602TIP3   OH255784   6.068   6.153   1.046
10602TIP3    H155785   6.130   6.223   1.077
10602TIP3    H255786   6.118   6.114   0.971
10603TIP3   OH255787   6.206   6.934   1.347
10603TIP3    H155788   6.201   7.025   1.314
10603TIP3    H255789   6.118   6.925   1.392
10604TIP3   OH255790   5.812   6.892   0.425
10604TIP3    H155791   5.791   6.927   0.336
10604TIP3    H255792   5.820   6.974   0.478
10605TIP3   OH255793   7.174   7.061   1.103
10605TIP3    H155794   7.077   7.073   1.115
10605TIP3    H255795   7.201   7.153   1.082
10606TIP3   OH255796   7.206   5.887   1.239
10606TIP3    H155797   7.136   5.954   1.233
10606TIP3    H255798   7.279   5.932   1.191
10607TIP3   OH255799   6.505   5.701   0.990
10607TIP3    H155800   6.485   5.606   0.979
10607TIP3    H255801   6.417   5.733   1.019
10608TIP3   OH255802   7.002   7.239   0.765
10608TIP3    H155803   7.042   7.167   0.712
10608TIP3    H255804   7.046   7.317   0.725
10609TIP3   OH255805   7.124   7.031   0.615
10609TIP3    H155806   7.094   6.964   0.552
10609TIP3    H255807   7.125   6.981   0.698
10610TIP3   OH255808   7.283   6.893   1.463
10610TIP3    H155809   7.297   6.826   1.392
10610TIP3    H255810   7.305   6.976   1.417
10611TIP3   OH255811   6.733   6.577   0.437
10611TIP3    H155812   6.666   6.640   0.403
10611TIP3    H255813   6.805   6.590   0.373
10612TIP3   OH255814   6.741   6.436   0.142
10612TIP3    H155815   6.813   6.439   0.208
10612TIP3    H255816   6.770   6.363   0.087
10613TIP3   OH255817   7.472   6.524   1.267
10613TIP3    H155818   7.406   6.596   1.270
10613TIP3    H255819   7.521   6.549   1.186
10614TIP3   OH255820   7.080   6.602   0.533
10614TIP3    H155821   7.004   6.626   0.592
10614TIP3    H255822   7.126   6.534   0.585
10615TIP3   OH255823   7.072   6.418   1.444
10615TIP3    H155824   7.072   6.501   1.496
10615TIP3    H255825   7.009   6.447   1.375
10616TIP3   OH255826   6.239   6.667   0.723
10616TIP3    H155827   6.208   6.628   0.638
10616TIP3    H255828   6.301   6.598   0.756
10617TIP3   OH255829   6.370   7.005   0.991
10617TIP3    H155830   6.371   6.954   0.909
10617TIP3    H255831   6.449   6.970   1.036
10618TIP3   OH255832   6.271   6.542   1.090
10618TIP3    H155833   6.326   6.551   1.009
10618TIP3    H255834   6.312   6.609   1.150
10619TIP3   OH255835   6.915   7.100   1.161
10619TIP3    H155836   6.886   7.164   1.227
10619TIP3    H255837   6.889   7.015   1.202
10620TIP3   OH255838   6.368   6.986   1.559
10620TIP3    H155839   6.325   7.059   1.608
10620TIP3    H255840   6.301   6.965   1.489
10621TIP3   OH255841   6.965   6.522   0.298
10621TIP3    H155842   7.020   6.541   0.378
10621TIP3    H255843   7.010   6.573   0.227
10622TIP3   OH255844   6.062   6.601   1.473
10622TIP3    H155845   6.068   6.668   1.544
10622TIP3    H255846   5.968   6.609   1.453
10623TIP3   OH255847   6.739   7.196   0.642
10623TIP3    H155848   6.779   7.225   0.724
10623TIP3    H255849   6.681   7.269   0.619
10624TIP3   OH255850   6.193   7.188   1.633
10624TIP3    H155851   6.186   7.179   1.537
10624TIP3    H255852   6.100   7.175   1.661
10625TIP3   OH255853   7.341   5.694   0.287
10625TIP3    H155854   7.245   5.703   0.308
10625TIP3    H255855   7.358   5.779   0.242
10626TIP3   OH255856   6.137   6.569   0.482
10626TIP3    H155857   6.106   6.648   0.434
10626TIP3    H255858   6.070   6.503   0.461
10627TIP3   OH255859   7.453   7.128   0.128
10627TIP3    H155860   7.463   7.225   0.139
10627TIP3    H255861   7.544   7.099   0.117
10628TIP3   OH255862   5.745   6.813   1.376
10628TIP3    H155863   5.701   6.805   1.289
10628TIP3    H255864   5.754   6.718   1.397
10629TIP3   OH255865   5.721   7.087   1.052
10629TIP3    H155866   5.817   7.075   1.050
10629TIP3    H255867   5.713   7.169   1.102
10630TIP3   OH255868   7.545   7.157   1.622
10630TIP3    H155869   7.533   7.061   1.618
10630TIP3    H255870   7.458   7.182   1.660
10631TIP3   OH255871   6.640   7.111   1.507
10631TIP3    H155872   6.646   7.195   1.558
10631TIP3    H255873   6.552   7.076   1.531
10632TIP3   OH255874   6.685   7.486   0.488
10632TIP3    H155875   6.676   7.480   0.392
10632TIP3    H255876   6.687   7.582   0.504
10633TIP3   OH255877   6.049   7.373   0.668
10633TIP3    H155878   6.064   7.333   0.757
10633TIP3    H255879   5.964   7.332   0.645
10634TIP3   OH255880   6.984   7.401   0.192
10634TIP3    H155881   7.040   7.332   0.148
10634TIP3    H255882   6.997   7.376   0.285
10635TIP3   OH255883   6.959   7.400   0.464
10635TIP3    H155884   6.863   7.407   0.482
10635TIP3    H255885   6.983   7.326   0.521
10636TIP3   OH255886   7.260   6.303   1.667
10636TIP3    H155887   7.211   6.348   1.596
10636TIP3    H255888   7.258   6.211   1.637
10637TIP3   OH255889   5.974   6.944   1.469
10637TIP3    H155890   5.996   6.908   1.558
10637TIP3    H255891   5.887   6.905   1.448
10638TIP3   OH255892   6.242   5.793   1.063
10638TIP3    H155893   6.152   5.779   1.027
10638TIP3    H255894   6.228   5.875   1.113
10639TIP3   OH255895   6.708   5.753   1.397
10639TIP3    H155896   6.744   5.717   1.480
10639TIP3    H255897   6.610   5.749   1.414
10640TIP3   OH255898   7.035   6.144   1.490
10640TIP3    H155899   6.978   6.122   1.567
10640TIP3    H255900   7.016   6.237   1.467
10641TIP3   OH255901   7.118   6.608   0.085
10641TIP3    H155902   7.103   6.620  -0.010
10641TIP3    H255903   7.195   6.667   0.092
10642TIP3   OH255904   6.671   6.018   0.134
10642TIP3    H155905   6.636   6.010   0.224
10642TIP3    H255906   6.641   5.932   0.101
10643TIP3   OH255907   6.253   6.290   1.191
10643TIP3    H155908   6.178   6.290   1.254
10643TIP3    H255909   6.247   6.380   1.152
10644TIP3   OH255910   6.248   6.300   0.677
10644TIP3    H155911   6.154   6.276   0.663
10644TIP3    H255912   6.285   6.273   0.592
10645TIP3   OH255913   6.800   6.350   0.550
10645TIP3    H155914   6.762   6.434   0.515
10645TIP3    H255915   6.870   6.334   0.485
10646TIP3   OH255916   6.705   6.372   1.695
10646TIP3    H155917   6.653   6.294   1.727
10646TIP3    H255918   6.789   6.361   1.743
10647TIP3   OH255919   6.904   6.301   0.837
10647TIP3    H155920   6.875   6.357   0.764
10647TIP3    H255921   6.913   6.216   0.790
10648TIP3   OH255922   6.014   6.313   1.356
10648TIP3    H155923   6.024   6.354   1.443
10648TIP3    H255924   5.970   6.229   1.378
10649TIP3   OH255925   6.355   5.963   0.058
10649TIP3    H155926   6.315   5.986   0.143
10649TIP3    H255927   6.301   6.029   0.010
10650TIP3   OH255928   5.680   6.024   0.757
10650TIP3    H155929   5.749   6.020   0.827
10650TIP3    H255930   5.725   5.988   0.678
10651TIP3   OH255931   5.807   6.097   0.290
10651TIP3    H155932   5.858   6.159   0.235
10651TIP3    H255933   5.738   6.158   0.325
10652TIP3   OH255934   6.823   6.458   1.291
10652TIP3    H155935   6.862   6.389   1.233
10652TIP3    H255936   6.776   6.406   1.358
10653TIP3   OH255937   6.505   6.057   0.776
10653TIP3    H155938   6.411   6.057   0.804
10653TIP3    H255939   6.552   6.038   0.858
10654TIP3   OH255940   5.984   6.211   0.663
10654TIP3    H155941   5.896   6.228   0.623
10654TIP3    H255942   6.012   6.128   0.621
10655TIP3   OH255943   6.347   6.218   0.430
10655TIP3    H155944   6.443   6.227   0.443
10655TIP3    H255945   6.324   6.283   0.361
10656TIP3   OH255946   6.944   5.974   1.100
10656TIP3    H155947   6.876   5.986   1.171
10656TIP3    H255948   6.891   5.957   1.021
10657TIP3   OH255949   6.213   6.345   0.189
10657TIP3    H155950   6.167   6.295   0.119
10657TIP3    H255951   6.298   6.352   0.143
10658TIP3   OH255952   7.263   7.543   1.733
10658TIP3    H155953   7.290   7.581   1.647
10658TIP3    H255954   7.337   7.575   1.787
10659TIP3   OH255955   6.031   6.791   1.690
10659TIP3    H155956   6.104   6.816   1.750
10659TIP3    H255957   5.954   6.798   1.751
10660TIP3   OH255958   6.631   6.332   0.965
10660TIP3    H155959   6.692   6.280   0.912
10660TIP3    H255960   6.617   6.277   1.043
10661TIP3   OH255961   6.133   5.946   0.612
10661TIP3    H155962   6.101   5.854   0.609
10661TIP3    H255963   6.210   5.939   0.554
10662TIP3   OH255964   6.496   6.164   1.207
10662TIP3    H155965   6.413   6.217   1.215
10662TIP3    H255966   6.551   6.200   1.278
10663TIP3   OH255967   6.555   6.784   0.378
10663TIP3    H155968   6.474   6.740   0.343
10663TIP3    H255969   6.530   6.800   0.471
10664TIP3   OH255970   7.274   6.708   1.257
10664TIP3    H155971   7.329   6.757   1.192
10664TIP3    H255972   7.188   6.711   1.211
10665TIP3   OH255973   6.939   6.075   0.180
10665TIP3    H155974   6.842   6.079   0.183
10665TIP3    H255975   6.972   6.151   0.233
10666TIP3   OH255976   6.704   6.815   1.501
10666TIP3    H155977   6.669   6.771   1.579
10666TIP3    H255978   6.677   6.907   1.513
10667TIP3   OH255979   7.008   6.261   0.361
10667TIP3    H155980   7.099   6.245   0.396
10667TIP3    H255981   7.021   6.342   0.309
10668TIP3   OH255982   6.066   6.728   0.957
10668TIP3    H155983   6.133   6.718   0.887
10668TIP3    H255984   6.071   6.642   1.002
10669TIP3   OH255985   6.765   6.934   0.281
10669TIP3    H155986   6.729   7.019   0.313
10669TIP3    H255987   6.690   6.872   0.301
10670TIP3   OH255988   5.762   6.567   1.483
10670TIP3    H155989   5.781   6.522   1.568
10670TIP3    H255990   5.701   6.505   1.438
10671TIP3   OH255991   6.466   6.523   1.699
10671TIP3    H155992   6.433   6.491   1.614
10671TIP3    H255993   6.558   6.490   1.699
10672TIP3   OH255994   6.935   7.057   1.496
10672TIP3    H155995   6.843   7.074   1.473
10672TIP3    H255996   6.931   7.086   1.590
10673TIP3   OH255997   7.500   6.273   0.336
10673TIP3    H155998   7.442   6.244   0.262
10673TIP3    H255999   7.508   6.367   0.310
10674TIP3   OH256000   7.500   6.861   1.614
10674TIP3    H156001   7.410   6.883   1.578
10674TIP3    H256002   7.554   6.855   1.533
10675TIP3   OH256003   7.342   7.151   0.377
10675TIP3    H156004   7.290   7.075   0.406
10675TIP3    H256005   7.355   7.138   0.281
10676TIP3   OH256006   7.052   6.639   1.085
10676TIP3    H156007   6.958   6.619   1.073
10676TIP3    H256008   7.095   6.563   1.040
10677TIP3   OH256009   6.303   7.072   0.695
10677TIP3    H156010   6.352   7.153   0.675
10677TIP3    H256011   6.215   7.095   0.662
10678TIP3   OH256012   5.877   6.558   0.145
10678TIP3    H156013   5.937   6.617   0.195
10678TIP3    H256014   5.790   6.587   0.179
10679TIP3   OH256015   6.444   6.839   0.647
10679TIP3    H156016   6.411   6.930   0.655
10679TIP3    H256017   6.373   6.789   0.691
10680TIP3   OH256018   6.489   7.258   1.289
10680TIP3    H156019   6.536   7.337   1.260
10680TIP3    H256020   6.551   7.223   1.355
10681TIP3   OH256021   6.311   7.337   0.601
10681TIP3    H156022   6.215   7.352   0.613
10681TIP3    H256023   6.348   7.421   0.632
10682TIP3   OH256024   6.840   6.856   1.249
10682TIP3    H156025   6.809   6.837   1.340
10682TIP3    H256026   6.905   6.785   1.232
10683TIP3   OH256027   7.069   6.961   0.159
10683TIP3    H156028   7.106   6.918   0.238
10683TIP3    H256029   6.975   6.944   0.174
10684TIP3   OH256030   7.124   7.315   1.498
10684TIP3    H156031   7.054   7.266   1.451
10684TIP3    H256032   7.142   7.385   1.431
10685TIP3   OH256033   7.524   7.398   0.186
10685TIP3    H156034   7.591   7.464   0.163
10685TIP3    H256035   7.450   7.459   0.209
10686TIP3   OH256036   5.930   6.040   1.437
10686TIP3    H156037   5.840   6.075   1.435
10686TIP3    H256038   5.919   5.956   1.484
10687TIP3   OH256039   7.153   6.828   0.388
10687TIP3    H156040   7.128   6.747   0.438
10687TIP3    H256041   7.249   6.830   0.400
10688TIP3   OH256042   5.890   7.218   1.280
10688TIP3    H156043   5.923   7.126   1.281
10688TIP3    H256044   5.917   7.248   1.367
10689TIP3   OH256045   6.363   7.026   0.254
10689TIP3    H156046   6.397   6.974   0.328
10689TIP3    H256047   6.375   7.119   0.286
10690TIP3   OH256048   6.016   6.749   0.299
10690TIP3    H156049   5.947   6.789   0.356
10690TIP3    H256050   6.072   6.826   0.276
10691TIP3   OH256051   6.806   6.016   1.332
10691TIP3    H156052   6.874   6.026   1.400
10691TIP3    H256053   6.764   5.932   1.356
10692TIP3   OH256054   6.876   5.975   0.444
10692TIP3    H156055   6.903   6.021   0.364
10692TIP3    H256056   6.933   6.018   0.509
10693TIP3   OH256057   6.643   7.188   0.320
10693TIP3    H156058   6.564   7.245   0.336
10693TIP3    H256059   6.700   7.244   0.265
10694TIP3   OH256060   6.600   6.149   0.525
10694TIP3    H156061   6.677   6.209   0.528
10694TIP3    H256062   6.574   6.138   0.619
10695TIP3   OH256063   6.656   6.252   1.444
10695TIP3    H156064   6.663   6.308   1.524
10695TIP3    H256065   6.722   6.183   1.454
10696TIP3   OH256066   6.686   5.854   0.611
10696TIP3    H156067   6.652   5.919   0.675
10696TIP3    H256068   6.754   5.909   0.567
10697TIP3   OH256069   6.383   7.296   0.329
10697TIP3    H156070   6.399   7.378   0.276
10697TIP3    H256071   6.357   7.331   0.417
10698TIP3   OH256072   6.247   5.966   0.300
10698TIP3    H156073   6.247   6.060   0.323
10698TIP3    H256074   6.341   5.942   0.310
10699TIP3   OH256075   7.273   6.039   1.529
10699TIP3    H156076   7.180   6.071   1.515
10699TIP3    H256077   7.303   6.037   1.436
10700TIP3   OH256078   7.135   6.418   0.928
10700TIP3    H156079   7.052   6.373   0.901
10700TIP3    H256080   7.184   6.349   0.979
10701TIP3   OH256081   6.077   7.009   0.189
10701TIP3    H156082   6.143   7.072   0.222
10701TIP3    H256083   6.126   6.965   0.118
10702TIP3   OH256084   5.908   6.278   0.104
10702TIP3    H156085   5.909   6.374   0.122
10702TIP3    H256086   5.820   6.261   0.071
10703TIP3   OH256087   7.241   7.341   1.095
10703TIP3    H156088   7.232   7.411   1.027
10703TIP3    H256089   7.338   7.349   1.113
10704TIP3   OH256090   5.990   5.756   0.978
10704TIP3    H156091   5.972   5.757   0.881
10704TIP3    H256092   5.949   5.670   1.002
10705TIP3   OH256093   5.884   7.150   0.592
10705TIP3    H156094   5.798   7.193   0.586
10705TIP3    H256095   5.931   7.193   0.520
10706TIP3   OH256096   5.805   7.413   1.718
10706TIP3    H156097   5.866   7.394   1.793
10706TIP3    H256098   5.766   7.326   1.701
10707TIP3   OH256099   6.276   7.306   1.878
10707TIP3    H156100   6.350   7.255   1.913
10707TIP3    H256101   6.272   7.277   1.785
10708TIP3   OH256102   6.694   7.267   0.048
10708TIP3    H156103   6.624   7.202   0.064
10708TIP3    H256104   6.764   7.217   0.005
10709TIP3   OH256105   6.924   7.144   1.756
10709TIP3    H156106   6.892   7.055   1.783
10709TIP3    H256107   7.001   7.156   1.814
10710TIP3   OH256108   7.167   7.225   0.096
10710TIP3    H156109   7.178   7.129   0.092
10710TIP3    H256110   7.198   7.255   0.008
10711TIP3   OH256111   5.796   6.790   1.819
10711TIP3    H156112   5.812   6.699   1.790
10711TIP3    H256113   5.722   6.816   1.761
10712TIP3   OH256114   6.217   6.808   0.022
10712TIP3    H156115   6.248   6.741   0.085
10712TIP3    H256116   6.295   6.814  -0.036
10713TIP3   OH256117   6.468   6.790   1.757
10713TIP3    H156118   6.435   6.822   1.671
10713TIP3    H256119   6.475   6.692   1.746
10714TIP3   OH256120   7.038   6.775   1.497
10714TIP3    H156121   7.117   6.832   1.492
10714TIP3    H256122   6.968   6.843   1.500
10715TIP3   OH256123   5.886   6.512   1.756
10715TIP3    H156124   5.931   6.428   1.748
10715TIP3    H256125   5.867   6.514   1.851
10716TIP3   OH256126   6.353   6.630   0.263
10716TIP3    H156127   6.303   6.574   0.325
10716TIP3    H256128   6.385   6.561   0.199
10717TIP3   OH256129   6.279   6.407   1.492
10717TIP3    H156130   6.219   6.479   1.517
10717TIP3    H256131   6.319   6.444   1.412
10718TIP3   OH256132   6.463   6.452   0.090
10718TIP3    H156133   6.441   6.437  -0.004
10718TIP3    H256134   6.560   6.458   0.092
10719TIP3   OH256135   6.787   6.665   1.827
10719TIP3    H156136   6.882   6.662   1.812
10719TIP3    H256137   6.770   6.588   1.883
10720TIP3   OH256138   7.391   6.679  11.009
10720TIP3    H156139   7.375   6.641  10.923
10720TIP3    H256140   7.398   6.774  10.988
10721TIP3   OH256141   6.320   6.145   1.597
10721TIP3    H156142   6.332   6.075   1.530
10721TIP3    H256143   6.315   6.226   1.543
10722TIP3   OH256144   6.360   5.983   1.353
10722TIP3    H156145   6.411   6.030   1.283
10722TIP3    H256146   6.271   5.976   1.314
10723TIP3   OH256147   6.514   6.534   1.378
10723TIP3    H156148   6.589   6.517   1.321
10723TIP3    H256149   6.477   6.617   1.343
10724TIP3   OH256150   6.953   6.307   1.873
10724TIP3    H156151   6.977   6.214   1.865
10724TIP3    H256152   7.039   6.352   1.877
10725TIP3   OH256153   7.088   6.587   1.691
10725TIP3    H156154   7.063   6.659   1.629
10725TIP3    H256155   7.184   6.584   1.672
10726TIP3   OH256156   6.166   6.270   1.790
10726TIP3    H156157   6.089   6.213   1.773
10726TIP3    H256158   6.231   6.233   1.727
10727TIP3   OH256159   6.439   5.727   1.391
10727TIP3    H156160   6.419   5.823   1.382
10727TIP3    H256161   6.364   5.690   1.342
10728TIP3   OH256162   6.566   6.160   1.756
10728TIP3    H156163   6.533   6.136   1.845
10728TIP3    H256164   6.488   6.139   1.701
10729TIP3   OH256165   6.838   6.074   1.665
10729TIP3    H156166   6.742   6.080   1.676
10729TIP3    H256167   6.864   6.010   1.735
10730TIP3   OH256168   6.995   5.936   1.853
10730TIP3    H156169   6.992   5.838   1.857
10730TIP3    H256170   6.972   5.965   1.944
10731TIP3   OH256171   5.973   6.065   1.767
10731TIP3    H156172   5.997   5.991   1.708
10731TIP3    H256173   5.963   6.020   1.853
10732TIP3   OH256174   6.460   5.668   1.662
10732TIP3    H156175   6.527   5.595   1.662
10732TIP3    H256176   6.449   5.680   1.566
10733TIP3   OH256177   6.497   5.828   1.875
10733TIP3    H156178   6.479   5.777   1.792
10733TIP3    H256179   6.437   5.904   1.865
10734TIP3   OH256180   6.443   7.522   0.194
10734TIP3    H156181   6.540   7.531   0.200
10734TIP3    H256182   6.423   7.584   0.123
10735TIP3   OH256183   5.806   6.975   0.140
10735TIP3    H156184   5.902   6.987   0.158
10735TIP3    H256185   5.808   6.918   0.063
10736TIP3   OH256186   5.679   7.513   0.632
10736TIP3    H156187   5.605   7.465   0.588
10736TIP3    H256188   5.705   7.449   0.702
10737TIP3   OH256189   5.759   7.329   0.823
10737TIP3    H156190   5.724   7.242   0.843
10737TIP3    H256191   5.782   7.362   0.911
10738TIP3   OH256192   7.506   7.410   1.115
10738TIP3    H156193   7.515   7.424   1.210
10738TIP3    H256194   7.582   7.463   1.084
10739TIP3   OH256195   7.473   7.367   1.410
10739TIP3    H156196   7.423   7.291   1.372
10739TIP3    H256197   7.520   7.321   1.482
10740TIP3   OH256198   7.315   6.939   1.878
10740TIP3    H156199   7.224   6.937   1.914
10740TIP3    H256200   7.352   7.020   1.918
10741TIP3   OH256201   7.451   6.772   0.419
10741TIP3    H156202   7.535   6.810   0.444
10741TIP3    H256203   7.442   6.702   0.487
10742TIP3   OH256204   7.479   6.581   0.608
10742TIP3    H156205   7.405   6.531   0.648
10742TIP3    H256206   7.540   6.592   0.684
10743TIP3   OH256207   7.457   6.849   1.107
10743TIP3    H156208   7.538   6.811   1.069
10743TIP3    H256209   7.471   6.944   1.091
10744TIP3   OH256210   7.313   7.141   1.334
10744TIP3    H156211   7.245   7.175   1.392
10744TIP3    H256212   7.259   7.101   1.262
10745TIP3   OH256213   7.512   6.563   0.241
10745TIP3    H156214   7.450   6.599   0.174
10745TIP3    H256215   7.498   6.629   0.312
10746TIP3   OH256216   7.350   6.290   0.098
10746TIP3    H156217   7.350   6.355   0.028
10746TIP3    H256218   7.329   6.205   0.055
10747TIP3   OH256219   7.265   6.428   0.667
10747TIP3    H156220   7.249   6.332   0.662
10747TIP3    H256221   7.232   6.448   0.757
10748TIP3   OH256222   5.765   6.637   1.073
10748TIP3    H156223   5.782   6.628   0.976
10748TIP3    H256224   5.855   6.618   1.107
10749TIP3   OH256225   7.351   6.624   1.636
10749TIP3    H156226   7.412   6.548   1.648
10749TIP3    H256227   7.411   6.701   1.635
10750TIP3   OH256228   7.501   6.412   1.700
10750TIP3    H156229   7.413   6.372   1.685
10750TIP3    H256230   7.559   6.334   1.693
10751TIP3   OH256231   7.252   6.019   0.124
10751TIP3    H156232   7.338   5.985   0.090
10751TIP3    H256233   7.197   5.991   0.051
10752TIP3   OH256234   7.228   6.187   0.511
10752TIP3    H156235   7.259   6.093   0.522
10752TIP3    H256236   7.308   6.226   0.473
10753TIP3   OH256237   7.295   6.240   1.057
10753TIP3    H156238   7.391   6.263   1.055
10753TIP3    H256239   7.277   6.255   1.151
10754TIP3   OH256240   7.301   6.311   1.334
10754TIP3    H156241   7.213   6.341   1.365
10754TIP3    H256242   7.345   6.397   1.312
10755TIP3   OH256243   5.727   6.168   1.689
10755TIP3    H156244   5.821   6.145   1.707
10755TIP3    H256245   5.681   6.085   1.713
10756TIP3   OH256246   7.530   5.720   1.868
10756TIP3    H156247   7.565   5.654   1.806
10756TIP3    H256248   7.539   5.801   1.814
10757TIP3   OH256249   7.296   5.916   0.517
10757TIP3    H156250   7.321   5.872   0.601
10757TIP3    H256251   7.238   5.852   0.473
10758TIP3   OH256252   5.847   5.996   0.973
10758TIP3    H156253   5.893   5.913   0.997
10758TIP3    H256254   5.903   6.065   1.011
10759TIP3   OH256255   5.675   6.296   1.076
10759TIP3    H156256   5.731   6.270   1.000
10759TIP3    H256257   5.723   6.376   1.103
10760TIP3   OH256258   7.480   5.929   1.703
10760TIP3    H156259   7.387   5.957   1.698
10760TIP3    H256260   7.483   5.874   1.624
10761TIP3   OH256261   7.490   5.915   0.171
10761TIP3    H156262   7.531   5.848   0.116
10761TIP3    H256263   7.556   5.985   0.183
10762TIP3   OH256264   5.710   5.922   0.485
10762TIP3    H156265   5.616   5.940   0.469
10762TIP3    H256266   5.753   5.972   0.413
10763TIP3   OH256267   7.185   7.414   0.678
10763TIP3    H156268   7.253   7.385   0.615
10763TIP3    H256269   7.236   7.465   0.743
10764TIP3   OH256270   5.706   5.787   1.312
10764TIP3    H156271   5.639   5.767   1.381
10764TIP3    H256272   5.660   5.854   1.259
10765TIP3   OH256273   5.931   7.105   1.729
10765TIP3    H156274   5.847   7.129   1.685
10765TIP3    H256275   5.904   7.099   1.820
10766TIP3   OH256276   6.220   7.208   1.357
10766TIP3    H156277   6.189   7.295   1.330
10766TIP3    H256278   6.313   7.215   1.327
10767TIP3   OH256279   6.652   7.350   1.646
10767TIP3    H156280   6.665   7.315   1.737
10767TIP3    H256281   6.743   7.382   1.623
10768TIP3   OH256282   6.880   7.477   1.578
10768TIP3    H156283   6.955   7.420   1.554
10768TIP3    H256284   6.917   7.522   1.658
10769TIP3   OH256285   7.382   5.738   1.490
10769TIP3    H156286   7.301   5.770   1.449
10769TIP3    H256287   7.401   5.655   1.439
10770TIP3   OH256288   5.960   7.526   1.356
10770TIP3    H156289   5.891   7.582   1.318
10770TIP3    H256290   5.930   7.514   1.447
10771TIP3   OH256291   6.209   7.486   1.264
10771TIP3    H156292   6.121   7.507   1.303
10771TIP3    H256293   6.206   7.546   1.187
10772TIP3   OH256294   6.681   7.480   1.181
10772TIP3    H156295   6.635   7.535   1.116
10772TIP3    H256296   6.694   7.544   1.255
10773TIP3   OH256297   6.908   7.359   1.285
10773TIP3    H156298   6.824   7.389   1.246
10773TIP3    H256299   6.958   7.442   1.275
10774TIP3   OH256300   7.164   7.516   1.304
10774TIP3    H156301   7.160   7.612   1.283
10774TIP3    H256302   7.189   7.479   1.217
10775TIP3   OH256303   5.909   7.396   1.050
10775TIP3    H156304   5.900   7.350   1.137
10775TIP3    H256305   5.991   7.357   1.012
10776TIP3   OH256306   6.117   7.267   0.916
10776TIP3    H156307   6.101   7.174   0.940
10776TIP3    H256308   6.202   7.283   0.961
10777TIP3   OH256309   6.378   7.316   1.004
10777TIP3    H156310   6.392   7.223   0.978
10777TIP3    H256311   6.382   7.310   1.101
10778TIP3   OH256312   6.725   5.879   0.921
10778TIP3    H156313   6.653   5.818   0.945
10778TIP3    H256314   6.775   5.827   0.857
10779TIP3   OH256315   7.232   5.685   0.926
10779TIP3    H156316   7.297   5.741   0.875
10779TIP3    H256317   7.147   5.725   0.896
10780TIP3   OH256318   7.402   5.808   0.752
10780TIP3    H156319   7.471   5.752   0.709
10780TIP3    H256320   7.453   5.893   0.762
10781TIP3   OH256321   5.959   5.742   0.704
10781TIP3    H156322   5.880   5.725   0.649
10781TIP3    H256323   6.005   5.657   0.696
10782TIP3   OH256324   5.838   5.718   0.280
10782TIP3    H156325   5.883   5.784   0.223
10782TIP3    H256326   5.782   5.775   0.335
10783TIP3   OH256327   6.405   5.735   0.681
10783TIP3    H156328   6.495   5.771   0.672
10783TIP3    H256329   6.403   5.713   0.774
10784TIP3   OH256330   6.982   5.734   0.845
10784TIP3    H156331   6.974   5.753   0.750
10784TIP3    H256332   6.935   5.647   0.851
10785TIP3   OH256333   7.104   5.740   0.409
10785TIP3    H156334   7.030   5.800   0.396
10785TIP3    H256335   7.060   5.654   0.430
10786TIP3   OH256336   5.829   7.315   0.372
10786TIP3    H156337   5.756   7.315   0.307
10786TIP3    H256338   5.830   7.409   0.393
10787TIP3   OH256339   6.017   5.906   0.130
10787TIP3    H156340   6.075   5.851   0.077
10787TIP3    H256341   6.084   5.949   0.187
10788TIP3   OH256342   6.526   5.937   0.361
10788TIP3    H156343   6.547   5.879   0.437
10788TIP3    H256344   6.530   6.022   0.410
10789TIP3   OH256345   6.712   7.458   0.213
10789TIP3    H156346   6.807   7.468   0.196
10789TIP3    H256347   6.694   7.398   0.137
10790TIP3   OH256348   7.388   7.396   0.479
10790TIP3    H156349   7.362   7.317   0.424
10790TIP3    H256350   7.375   7.471   0.416
10791TIP3   OH256351   5.947   5.798   1.647
10791TIP3    H156352   5.907   5.718   1.686
10791TIP3    H256353   6.038   5.793   1.686
10792TIP3   OH256354   6.147   5.737   1.813
10792TIP3    H156355   6.236   5.703   1.791
10792TIP3    H256356   6.110   5.655   1.853
10793TIP3   OH256357   6.006   7.406   0.070
10793TIP3    H156358   5.979   7.440   0.156
10793TIP3    H256359   6.087   7.357   0.089
10794TIP3   OH256360   6.987   5.664   1.827
10794TIP3    H156361   6.997   5.617   1.912
10794TIP3    H256362   7.079   5.660   1.793
10795TIP3   OH256363   7.309   7.270   1.689
10795TIP3    H156364   7.229   7.256   1.634
10795TIP3    H256365   7.296   7.364   1.711
10796TIP3   OH256366   7.871   6.552   1.195
10796TIP3    H156367   7.885   6.480   1.260
10796TIP3    H256368   7.950   6.604   1.213
10797TIP3   OH256369   7.947   6.982   1.058
10797TIP3    H156370   7.931   6.898   1.010
10797TIP3    H256371   8.045   6.985   1.050
10798TIP3   OH256372   7.627   6.349   0.591
10798TIP3    H156373   7.586   6.438   0.585
10798TIP3    H256374   7.569   6.296   0.534
10799TIP3   OH256375   7.702   6.574   0.807
10799TIP3    H156376   7.729   6.492   0.851
10799TIP3    H256377   7.772   6.584   0.741
10800TIP3   OH256378   7.762   6.317   0.912
10800TIP3    H156379   7.833   6.267   0.957
10800TIP3    H256380   7.781   6.288   0.820
10801TIP3   OH256381   7.974   5.966   1.239
10801TIP3    H156382   7.963   6.030   1.165
10801TIP3    H256383   7.915   6.000   1.309
10802TIP3   OH256384   7.940   6.139   1.035
10802TIP3    H156385   7.994   6.212   1.077
10802TIP3    H256386   7.999   6.111   0.964
10803TIP3   OH256387   8.072   6.969   1.348
10803TIP3    H156388   8.064   7.054   1.307
10803TIP3    H256389   7.986   6.950   1.391
10804TIP3   OH256390   7.715   6.901   0.423
10804TIP3    H156391   7.663   6.918   0.342
10804TIP3    H256392   7.690   6.970   0.488
10805TIP3   OH256393   7.937   6.600   1.476
10805TIP3    H156394   7.946   6.665   1.548
10805TIP3    H256395   7.844   6.610   1.454
10806TIP3   OH256396   8.076   7.188   1.636
10806TIP3    H156397   8.072   7.174   1.541
10806TIP3    H256398   7.982   7.175   1.660
10807TIP3   OH256399   8.018   6.575   0.480
10807TIP3    H156400   7.991   6.652   0.430
10807TIP3    H256401   7.950   6.509   0.462
10808TIP3   OH256402   7.629   6.813   1.376
10808TIP3    H156403   7.586   6.804   1.289
10808TIP3    H256404   7.641   6.718   1.397
10809TIP3   OH256405   7.607   7.088   1.053
10809TIP3    H156406   7.703   7.076   1.050
10809TIP3    H256407   7.601   7.171   1.102
10810TIP3   OH256408   7.924   7.357   0.668
10810TIP3    H156409   7.941   7.328   0.760
10810TIP3    H256410   7.832   7.329   0.656
10811TIP3   OH256411   7.848   6.949   1.475
10811TIP3    H156412   7.878   6.904   1.557
10811TIP3    H256413   7.767   6.901   1.448
10812TIP3   OH256414   7.899   6.317   1.360
10812TIP3    H156415   7.903   6.355   1.448
10812TIP3    H256416   7.861   6.229   1.376
10813TIP3   OH256417   7.563   6.023   0.757
10813TIP3    H156418   7.631   6.020   0.827
10813TIP3    H256419   7.611   5.989   0.678
10814TIP3   OH256420   7.691   6.098   0.290
10814TIP3    H156421   7.742   6.161   0.236
10814TIP3    H256422   7.620   6.158   0.324
10815TIP3   OH256423   7.866   6.216   0.661
10815TIP3    H156424   7.777   6.225   0.623
10815TIP3    H256425   7.899   6.129   0.632
10816TIP3   OH256426   7.916   6.798   1.687
10816TIP3    H156427   7.985   6.817   1.750
10816TIP3    H256428   7.837   6.801   1.747
10817TIP3   OH256429   7.968   5.942   0.590
10817TIP3    H156430   7.964   5.848   0.617
10817TIP3    H256431   8.065   5.949   0.582
10818TIP3   OH256432   7.946   6.727   0.948
10818TIP3    H156433   8.023   6.722   0.889
10818TIP3    H256434   7.956   6.646   1.002
10819TIP3   OH256435   7.651   6.567   1.484
10819TIP3    H156436   7.666   6.521   1.568
10819TIP3    H256437   7.588   6.507   1.438
10820TIP3   OH256438   7.767   6.560   0.147
10820TIP3    H156439   7.822   6.621   0.199
10820TIP3    H256440   7.676   6.583   0.178
10821TIP3   OH256441   7.813   6.041   1.442
10821TIP3    H156442   7.723   6.074   1.431
10821TIP3    H256443   7.800   5.954   1.484
10822TIP3   OH256444   7.785   7.219   1.278
10822TIP3    H156445   7.799   7.124   1.284
10822TIP3    H256446   7.801   7.249   1.368
10823TIP3   OH256447   7.905   6.751   0.291
10823TIP3    H156448   7.836   6.784   0.354
10823TIP3    H256449   7.962   6.828   0.279
10824TIP3   OH256450   7.959   7.014   0.193
10824TIP3    H156451   8.033   7.072   0.219
10824TIP3    H256452   8.008   6.970   0.121
10825TIP3   OH256453   7.795   6.275   0.112
10825TIP3    H156454   7.794   6.372   0.118
10825TIP3    H256455   7.710   6.256   0.071
10826TIP3   OH256456   7.873   5.757   0.979
10826TIP3    H156457   7.862   5.760   0.881
10826TIP3    H256458   7.836   5.670   1.003
10827TIP3   OH256459   7.758   7.140   0.569
10827TIP3    H156460   7.683   7.197   0.592
10827TIP3    H256461   7.823   7.206   0.540
10828TIP3   OH256462   7.689   7.414   1.717
10828TIP3    H156463   7.749   7.395   1.792
10828TIP3    H256464   7.650   7.327   1.701
10829TIP3   OH256465   7.683   6.790   1.818
10829TIP3    H156466   7.697   6.698   1.790
10829TIP3    H256467   7.608   6.816   1.762
10830TIP3   OH256468   7.776   6.514   1.758
10830TIP3    H156469   7.816   6.428   1.746
10830TIP3    H256470   7.755   6.514   1.852
10831TIP3   OH256471   8.038   6.287   1.802
10831TIP3    H156472   7.968   6.221   1.783
10831TIP3    H256473   8.107   6.255   1.742
10832TIP3   OH256474   7.859   6.063   1.765
10832TIP3    H156475   7.882   5.988   1.707
10832TIP3    H256476   7.853   6.021   1.853
10833TIP3   OH256477   7.693   6.975   0.149
10833TIP3    H156478   7.789   6.982   0.150
10833TIP3    H256479   7.683   6.921   0.069
10834TIP3   OH256480   7.567   7.511   0.630
10834TIP3    H156481   7.489   7.466   0.590
10834TIP3    H256482   7.590   7.451   0.704
10835TIP3   OH256483   7.647   7.324   0.820
10835TIP3    H156484   7.606   7.240   0.846
10835TIP3    H256485   7.670   7.360   0.908
10836TIP3   OH256486   7.652   6.642   1.071
10836TIP3    H156487   7.673   6.626   0.976
10836TIP3    H256488   7.740   6.619   1.109
10837TIP3   OH256489   7.610   6.167   1.687
10837TIP3    H156490   7.704   6.145   1.704
10837TIP3    H256491   7.565   6.084   1.714
10838TIP3   OH256492   7.728   5.995   0.973
10838TIP3    H156493   7.780   5.914   0.993
10838TIP3    H256494   7.790   6.063   1.006
10839TIP3   OH256495   7.557   6.296   1.074
10839TIP3    H156496   7.617   6.270   1.000
10839TIP3    H256497   7.605   6.375   1.104
10840TIP3   OH256498   7.594   5.919   0.482
10840TIP3    H156499   7.500   5.940   0.468
10840TIP3    H256500   7.637   5.973   0.413
10841TIP3   OH256501   7.591   5.786   1.313
10841TIP3    H156502   7.524   5.769   1.381
10841TIP3    H256503   7.546   5.853   1.258
10842TIP3   OH256504   7.813   7.108   1.729
10842TIP3    H156505   7.730   7.130   1.684
10842TIP3    H256506   7.784   7.097   1.820
10843TIP3   OH256507   7.847   7.530   1.360
10843TIP3    H156508   7.775   7.581   1.316
10843TIP3    H256509   7.810   7.515   1.447
10844TIP3   OH256510   8.074   7.453   1.235
10844TIP3    H156511   8.008   7.490   1.297
10844TIP3    H256512   8.096   7.536   1.189
10845TIP3   OH256513   7.784   7.396   1.053
10845TIP3    H156514   7.789   7.353   1.141
10845TIP3    H256515   7.867   7.362   1.013
10846TIP3   OH256516   7.982   7.267   0.933
10846TIP3    H156517   7.977   7.170   0.945
10846TIP3    H256518   8.073   7.279   0.966
10847TIP3   OH256519   7.838   5.737   0.706
10847TIP3    H156520   7.759   5.719   0.650
10847TIP3    H256521   7.891   5.656   0.701
10848TIP3   OH256522   7.723   5.719   0.278
10848TIP3    H156523   7.768   5.786   0.223
10848TIP3    H256524   7.667   5.774   0.336
10849TIP3   OH256525   7.714   7.316   0.366
10849TIP3    H156526   7.635   7.323   0.308
10849TIP3    H256527   7.716   7.410   0.394
10850TIP3   OH256528   7.904   5.899   0.133
10850TIP3    H156529   7.963   5.853   0.072
10850TIP3    H256530   7.967   5.950   0.185
10851TIP3   OH256531   7.839   5.798   1.644
10851TIP3    H156532   7.799   5.720   1.685
10851TIP3    H256533   7.929   5.793   1.684
10852TIP3   OH256534   8.032   5.732   1.812
10852TIP3    H156535   8.120   5.701   1.786
10852TIP3    H256536   7.996   5.651   1.853
10853TIP3   OH256537   7.889   7.406   0.071
10853TIP3    H156538   7.868   7.447   0.156
10853TIP3    H256539   7.974   7.363   0.085
10854TIP3   OH256540   1.894   7.900   1.173
10854TIP3    H156541   1.822   7.928   1.233
10854TIP3    H256542   1.843   7.908   1.090
10855TIP3   OH256543   0.563   7.963   0.839
10855TIP3    H156544   0.575   8.045   0.789
10855TIP3    H256545   0.527   7.903   0.769
10856TIP3   OH256546   1.336   7.971   0.659
10856TIP3    H156547   1.391   7.942   0.738
10856TIP3    H256548   1.405   8.027   0.622
10857TIP3   OH256549   1.834   7.991   1.398
10857TIP3    H156550   1.805   8.077   1.364
10857TIP3    H256551   1.856   8.006   1.491
10858TIP3   OH256552   0.456   7.842   1.250
10858TIP3    H156553   0.429   7.897   1.172
10858TIP3    H256554   0.386   7.870   1.314
10859TIP3   OH256555   1.491   7.903   0.855
10859TIP3    H156556   1.496   7.828   0.917
10859TIP3    H256557   1.566   7.948   0.901
10860TIP3   OH256558   0.425   8.004   1.059
10860TIP3    H156559   0.464   8.090   1.082
10860TIP3    H256560   0.466   7.988   0.971
10861TIP3   OH256561   1.539   7.794   1.282
10861TIP3    H156562   1.466   7.835   1.235
10861TIP3    H256563   1.605   7.798   1.208
10862TIP3   OH256564   0.846   7.586   0.989
10862TIP3    H156565   0.830   7.490   0.981
10862TIP3    H256566   0.759   7.618   1.020
10863TIP3   OH256567   1.691   7.575   0.288
10863TIP3    H156568   1.596   7.568   0.306
10863TIP3    H256569   1.710   7.655   0.235
10864TIP3   OH256570   0.587   7.680   1.062
10864TIP3    H156571   0.496   7.664   1.029
10864TIP3    H256572   0.572   7.760   1.114
10865TIP3   OH256573   1.049   7.641   1.400
10865TIP3    H156574   1.089   7.600   1.479
10865TIP3    H256575   0.952   7.633   1.415
10866TIP3   OH256576   1.379   8.031   1.492
10866TIP3    H156577   1.320   8.005   1.567
10866TIP3    H256578   1.348   8.117   1.466
10867TIP3   OH256579   1.021   7.896   0.138
10867TIP3    H156580   0.975   7.897   0.225
10867TIP3    H256581   0.981   7.816   0.101
10868TIP3   OH256582   0.694   7.857   0.056
10868TIP3    H156583   0.657   7.878   0.143
10868TIP3    H256584   0.636   7.919   0.008
10869TIP3   OH256585   0.051   7.943   0.764
10869TIP3    H156586   0.101   7.906   0.840
10869TIP3    H256587   0.062   7.875   0.698
10870TIP3   OH256588   0.132   7.955   0.270
10870TIP3    H156589   0.199   8.021   0.240
10870TIP3    H256590   0.088   8.021   0.327
10871TIP3   OH256591   0.845   7.929   0.775
10871TIP3    H156592   0.752   7.938   0.805
10871TIP3    H256593   0.899   7.924   0.855
10872TIP3   OH256594   1.290   7.864   1.103
10872TIP3    H156595   1.219   7.876   1.169
10872TIP3    H256596   1.240   7.841   1.023
10873TIP3   OH256597   0.482   7.830   0.616
10873TIP3    H156598   0.445   7.740   0.608
10873TIP3    H256599   0.555   7.827   0.552
10874TIP3   OH256600   0.842   8.028   1.195
10874TIP3    H156601   0.768   8.091   1.200
10874TIP3    H256602   0.896   8.069   1.265
10875TIP3   OH256603   1.283   7.958   0.208
10875TIP3    H156604   1.189   7.966   0.179
10875TIP3    H256605   1.312   8.050   0.223
10876TIP3   OH256606   0.271   7.924   1.440
10876TIP3    H156607   0.182   7.962   1.435
10876TIP3    H256608   0.253   7.838   1.483
10877TIP3   OH256609   1.139   7.898   1.332
10877TIP3    H156610   1.213   7.911   1.394
10877TIP3    H256611   1.107   7.810   1.357
10878TIP3   OH256612   1.221   7.858   0.446
10878TIP3    H156613   1.243   7.907   0.364
10878TIP3    H256614   1.274   7.903   0.515
10879TIP3   OH256615   0.954   8.025   0.525
10879TIP3    H156616   1.019   8.097   0.529
10879TIP3    H256617   0.914   8.026   0.614
10880TIP3   OH256618   1.031   7.740   0.611
10880TIP3    H156619   0.998   7.804   0.678
10880TIP3    H256620   1.099   7.796   0.566
10881TIP3   OH256621   0.594   7.852   0.300
10881TIP3    H156622   0.591   7.946   0.318
10881TIP3    H256623   0.688   7.826   0.308
10882TIP3   OH256624   1.617   7.925   1.528
10882TIP3    H156625   1.523   7.952   1.517
10882TIP3    H256626   1.645   7.920   1.435
10883TIP3   OH256627   0.337   7.642   0.972
10883TIP3    H156628   0.311   7.644   0.878
10883TIP3    H256629   0.296   7.558   1.001
10884TIP3   OH256630   0.605   8.001   1.583
10884TIP3    H156631   0.665   7.944   1.531
10884TIP3    H256632   0.639   8.090   1.562
10885TIP3   OH256633   0.701   7.870   1.354
10885TIP3    H156634   0.756   7.910   1.283
10885TIP3    H256635   0.612   7.865   1.312
10886TIP3   OH256636   0.782   7.614   1.391
10886TIP3    H156637   0.762   7.710   1.384
10886TIP3    H256638   0.707   7.577   1.341
10887TIP3   OH256639   0.937   7.990   1.788
10887TIP3    H156640   0.903   8.022   1.874
10887TIP3    H256641   0.853   7.999   1.742
10888TIP3   OH256642   1.181   7.950   1.651
10888TIP3    H156643   1.089   7.967   1.681
10888TIP3    H256644   1.213   7.900   1.728
10889TIP3   OH256645   1.338   7.820   1.856
10889TIP3    H156646   1.331   7.722   1.854
10889TIP3    H256647   1.315   7.846   1.947
10890TIP3   OH256648   0.326   7.952   1.774
10890TIP3    H156649   0.342   7.882   1.707
10890TIP3    H256650   0.314   7.897   1.853
10891TIP3   OH256651   0.804   7.553   1.661
10891TIP3    H156652   0.871   7.481   1.660
10891TIP3    H256653   0.793   7.567   1.564
10892TIP3   OH256654   0.837   7.706   1.877
10892TIP3    H156655   0.824   7.660   1.791
10892TIP3    H256656   0.786   7.789   1.864
10893TIP3   OH256657   1.588   7.878   0.125
10893TIP3    H156658   1.680   7.877   0.088
10893TIP3    H256659   1.542   7.885   0.039
10894TIP3   OH256660   1.591   8.055   0.543
10894TIP3    H156661   1.618   7.962   0.529
10894TIP3    H256662   1.650   8.101   0.479
10895TIP3   OH256663   0.080   8.028   1.667
10895TIP3    H156664   0.171   8.018   1.700
10895TIP3    H256665   0.033   7.958   1.713
10896TIP3   OH256666   1.873   7.600   1.867
10896TIP3    H156667   1.909   7.536   1.804
10896TIP3    H256668   1.879   7.683   1.816
10897TIP3   OH256669   1.640   7.792   0.507
10897TIP3    H156670   1.668   7.765   0.599
10897TIP3    H256671   1.576   7.720   0.494
10898TIP3   OH256672   0.197   7.879   0.970
10898TIP3    H156673   0.239   7.796   0.998
10898TIP3    H256674   0.240   7.943   1.026
10899TIP3   OH256675   1.822   7.810   1.706
10899TIP3    H156676   1.730   7.844   1.696
10899TIP3    H256677   1.829   7.760   1.624
10900TIP3   OH256678   1.831   7.792   0.167
10900TIP3    H156679   1.878   7.729   0.112
10900TIP3    H256680   1.896   7.865   0.182
10901TIP3   OH256681   0.074   7.781   0.445
10901TIP3    H156682  -0.019   7.810   0.453
10901TIP3    H256683   0.112   7.857   0.397
10902TIP3   OH256684   0.070   7.688   1.326
10902TIP3    H156685  -0.004   7.659   1.382
10902TIP3    H256686   0.013   7.746   1.270
10903TIP3   OH256687   1.725   7.621   1.490
10903TIP3    H156688   1.645   7.654   1.445
10903TIP3    H256689   1.745   7.541   1.436
10904TIP3   OH256690   1.067   7.763   0.914
10904TIP3    H156691   1.000   7.699   0.945
10904TIP3    H256692   1.125   7.707   0.861
10905TIP3   OH256693   1.570   7.549   0.900
10905TIP3    H156694   1.638   7.621   0.888
10905TIP3    H256695   1.491   7.606   0.901
10906TIP3   OH256696   1.742   7.691   0.735
10906TIP3    H156697   1.819   7.636   0.710
10906TIP3    H256698   1.788   7.768   0.774
10907TIP3   OH256699   0.306   7.627   0.702
10907TIP3    H156700   0.225   7.609   0.650
10907TIP3    H256701   0.351   7.542   0.695
10908TIP3   OH256702   0.182   7.600   0.277
10908TIP3    H156703   0.225   7.669   0.224
10908TIP3    H256704   0.127   7.658   0.335
10909TIP3   OH256705   0.750   7.618   0.680
10909TIP3    H156706   0.839   7.657   0.674
10909TIP3    H256707   0.742   7.606   0.775
10910TIP3   OH256708   1.309   7.625   0.845
10910TIP3    H156709   1.318   7.633   0.750
10910TIP3    H256710   1.282   7.531   0.856
10911TIP3   OH256711   1.429   7.623   0.438
10911TIP3    H156712   1.350   7.676   0.415
10911TIP3    H256713   1.393   7.530   0.439
10912TIP3   OH256714   0.363   7.796   0.129
10912TIP3    H156715   0.415   7.735   0.076
10912TIP3    H256716   0.433   7.831   0.187
10913TIP3   OH256717   0.865   7.822   0.363
10913TIP3    H156718   0.893   7.766   0.438
10913TIP3    H256719   0.871   7.908   0.413
10914TIP3   OH256720   0.286   7.688   1.654
10914TIP3    H156721   0.251   7.602   1.685
10914TIP3    H256722   0.381   7.679   1.683
10915TIP3   OH256723   0.493   7.621   1.811
10915TIP3    H156724   0.581   7.586   1.791
10915TIP3    H256725   0.451   7.542   1.851
10916TIP3   OH256726   1.330   7.548   1.828
10916TIP3    H156727   1.342   7.501   1.912
10916TIP3    H256728   1.422   7.550   1.792
10917TIP3   OH256729   3.678   7.874   1.148
10917TIP3    H156730   3.697   7.924   1.231
10917TIP3    H256731   3.738   7.920   1.088
10918TIP3   OH256732   2.448   7.964   0.839
10918TIP3    H156733   2.461   8.045   0.788
10918TIP3    H256734   2.411   7.904   0.769
10919TIP3   OH256735   3.225   7.968   0.667
10919TIP3    H156736   3.285   7.942   0.741
10919TIP3    H256737   3.288   8.024   0.620
10920TIP3   OH256738   3.722   7.986   1.381
10920TIP3    H156739   3.690   8.074   1.355
10920TIP3    H256740   3.740   7.999   1.477
10921TIP3   OH256741   2.341   7.842   1.251
10921TIP3    H156742   2.314   7.897   1.173
10921TIP3    H256743   2.271   7.871   1.315
10922TIP3   OH256744   3.395   7.892   0.869
10922TIP3    H156745   3.380   7.825   0.935
10922TIP3    H256746   3.455   7.954   0.915
10923TIP3   OH256747   2.312   8.003   1.059
10923TIP3    H156748   2.349   8.091   1.081
10923TIP3    H256749   2.352   7.988   0.970
10924TIP3   OH256750   3.435   7.778   1.242
10924TIP3    H156751   3.359   7.837   1.230
10924TIP3    H256752   3.506   7.819   1.188
10925TIP3   OH256753   2.732   7.586   0.988
10925TIP3    H156754   2.715   7.490   0.981
10925TIP3    H256755   2.645   7.618   1.020
10926TIP3   OH256756   3.569   7.577   0.288
10926TIP3    H156757   3.474   7.590   0.308
10926TIP3    H256758   3.587   7.662   0.242
10927TIP3   OH256759   2.472   7.679   1.063
10927TIP3    H156760   2.381   7.664   1.029
10927TIP3    H256761   2.457   7.760   1.115
10928TIP3   OH256762   2.935   7.642   1.400
10928TIP3    H156763   2.975   7.600   1.479
10928TIP3    H256764   2.838   7.633   1.416
10929TIP3   OH256765   3.265   8.030   1.493
10929TIP3    H156766   3.204   8.006   1.568
10929TIP3    H256767   3.235   8.117   1.465
10930TIP3   OH256768   2.901   7.899   0.137
10930TIP3    H156769   2.862   7.896   0.227
10930TIP3    H256770   2.868   7.815   0.102
10931TIP3   OH256771   2.579   7.857   0.056
10931TIP3    H156772   2.542   7.878   0.143
10931TIP3    H256773   2.521   7.918   0.008
10932TIP3   OH256774   1.912   7.914   0.752
10932TIP3    H156775   1.971   7.903   0.830
10932TIP3    H256776   1.958   7.871   0.679
10933TIP3   OH256777   2.016   7.952   0.282
10933TIP3    H156778   2.080   8.016   0.245
10933TIP3    H256779   1.968   8.021   0.330
10934TIP3   OH256780   2.729   7.930   0.774
10934TIP3    H156781   2.637   7.938   0.805
10934TIP3    H256782   2.782   7.924   0.855
10935TIP3   OH256783   3.176   7.864   1.102
10935TIP3    H156784   3.105   7.876   1.170
10935TIP3    H256785   3.124   7.841   1.023
10936TIP3   OH256786   2.365   7.830   0.616
10936TIP3    H156787   2.332   7.738   0.608
10936TIP3    H256788   2.438   7.827   0.552
10937TIP3   OH256789   2.727   8.028   1.194
10937TIP3    H156790   2.654   8.091   1.200
10937TIP3    H256791   2.782   8.069   1.265
10938TIP3   OH256792   3.167   7.959   0.204
10938TIP3    H156793   3.073   7.968   0.179
10938TIP3    H256794   3.201   8.047   0.224
10939TIP3   OH256795   2.156   7.925   1.442
10939TIP3    H156796   2.066   7.960   1.431
10939TIP3    H256797   2.143   7.840   1.486
10940TIP3   OH256798   3.026   7.898   1.331
10940TIP3    H156799   3.097   7.912   1.395
10940TIP3    H256800   2.992   7.810   1.357
10941TIP3   OH256801   3.097   7.868   0.448
10941TIP3    H156802   3.133   7.901   0.363
10941TIP3    H256803   3.163   7.900   0.512
10942TIP3   OH256804   2.839   8.026   0.525
10942TIP3    H156805   2.905   8.097   0.529
10942TIP3    H256806   2.800   8.026   0.614
10943TIP3   OH256807   2.916   7.740   0.613
10943TIP3    H156808   2.883   7.805   0.679
10943TIP3    H256809   2.983   7.795   0.566
10944TIP3   OH256810   2.477   7.852   0.300
10944TIP3    H156811   2.476   7.946   0.318
10944TIP3    H256812   2.572   7.826   0.308
10945TIP3   OH256813   3.503   7.923   1.526
10945TIP3    H156814   3.409   7.953   1.519
10945TIP3    H256815   3.531   7.922   1.433
10946TIP3   OH256816   2.225   7.636   0.977
10946TIP3    H156817   2.200   7.646   0.882
10946TIP3    H256818   2.176   7.556   1.001
10947TIP3   OH256819   2.492   8.001   1.584
10947TIP3    H156820   2.551   7.944   1.531
10947TIP3    H256821   2.525   8.090   1.562
10948TIP3   OH256822   2.587   7.870   1.354
10948TIP3    H156823   2.642   7.910   1.283
10948TIP3    H256824   2.497   7.865   1.312
10949TIP3   OH256825   2.667   7.615   1.390
10949TIP3    H156826   2.646   7.711   1.384
10949TIP3    H256827   2.592   7.578   1.340
10950TIP3   OH256828   2.822   7.990   1.788
10950TIP3    H156829   2.788   8.022   1.874
10950TIP3    H256830   2.739   7.999   1.742
10951TIP3   OH256831   3.067   7.949   1.652
10951TIP3    H156832   2.975   7.967   1.680
10951TIP3    H256833   3.098   7.901   1.731
10952TIP3   OH256834   3.224   7.820   1.856
10952TIP3    H156835   3.216   7.722   1.855
10952TIP3    H256836   3.201   7.847   1.946
10953TIP3   OH256837   2.209   7.951   1.770
10953TIP3    H156838   2.227   7.877   1.709
10953TIP3    H256839   2.197   7.899   1.852
10954TIP3   OH256840   2.690   7.553   1.660
10954TIP3    H156841   2.756   7.481   1.660
10954TIP3    H256842   2.678   7.567   1.564
10955TIP3   OH256843   2.723   7.706   1.877
10955TIP3    H156844   2.709   7.660   1.791
10955TIP3    H256845   2.672   7.789   1.864
10956TIP3   OH256846   3.478   7.900   0.122
10956TIP3    H156847   3.567   7.873   0.091
10956TIP3    H256848   3.427   7.879   0.043
10957TIP3   OH256849   3.481   8.056   0.548
10957TIP3    H156850   3.499   7.962   0.524
10957TIP3    H256851   3.534   8.100   0.478
10958TIP3   OH256852   1.956   8.031   1.664
10958TIP3    H156853   2.047   8.020   1.696
10958TIP3    H256854   1.908   7.957   1.708
10959TIP3   OH256855   3.762   7.600   1.869
10959TIP3    H156856   3.792   7.535   1.804
10959TIP3    H256857   3.763   7.683   1.816
10960TIP3   OH256858   3.530   7.796   0.513
10960TIP3    H156859   3.549   7.756   0.600
10960TIP3    H256860   3.468   7.733   0.472
10961TIP3   OH256861   2.086   7.879   0.957
10961TIP3    H156862   2.120   7.797   0.998
10961TIP3    H256863   2.118   7.943   1.021
10962TIP3   OH256864   3.710   7.810   1.705
10962TIP3    H156865   3.617   7.843   1.699
10962TIP3    H256866   3.711   7.757   1.623
10963TIP3   OH256867   3.719   7.794   0.168
10963TIP3    H156868   3.762   7.729   0.113
10963TIP3    H256869   3.784   7.866   0.183
10964TIP3   OH256870   1.939   7.802   0.483
10964TIP3    H156871   1.846   7.827   0.471
10964TIP3    H256872   1.984   7.855   0.415
10965TIP3   OH256873   1.937   7.666   1.314
10965TIP3    H156874   1.867   7.657   1.381
10965TIP3    H256875   1.900   7.739   1.258
10966TIP3   OH256876   3.614   7.623   1.489
10966TIP3    H156877   3.531   7.652   1.448
10966TIP3    H256878   3.631   7.540   1.439
10967TIP3   OH256879   2.951   7.763   0.914
10967TIP3    H156880   2.884   7.699   0.946
10967TIP3    H256881   3.007   7.707   0.859
10968TIP3   OH256882   3.463   7.574   0.925
10968TIP3    H156883   3.526   7.629   0.872
10968TIP3    H256884   3.375   7.610   0.899
10969TIP3   OH256885   3.630   7.690   0.750
10969TIP3    H156886   3.701   7.637   0.707
10969TIP3    H256887   3.679   7.774   0.764
10970TIP3   OH256888   2.187   7.628   0.705
10970TIP3    H156889   2.107   7.610   0.651
10970TIP3    H256890   2.233   7.543   0.696
10971TIP3   OH256891   2.065   7.603   0.277
10971TIP3    H156892   2.114   7.669   0.225
10971TIP3    H256893   2.012   7.660   0.335
10972TIP3   OH256894   2.636   7.619   0.680
10972TIP3    H156895   2.725   7.657   0.674
10972TIP3    H256896   2.629   7.606   0.774
10973TIP3   OH256897   3.205   7.621   0.843
10973TIP3    H156898   3.201   7.633   0.748
10973TIP3    H256899   3.164   7.533   0.856
10974TIP3   OH256900   3.332   7.625   0.408
10974TIP3    H156901   3.259   7.687   0.397
10974TIP3    H256902   3.288   7.540   0.430
10975TIP3   OH256903   2.246   7.794   0.131
10975TIP3    H156904   2.300   7.735   0.077
10975TIP3    H256905   2.315   7.832   0.188
10976TIP3   OH256906   2.752   7.822   0.363
10976TIP3    H156907   2.778   7.766   0.438
10976TIP3    H256908   2.757   7.908   0.413
10977TIP3   OH256909   2.175   7.685   1.653
10977TIP3    H156910   2.138   7.601   1.687
10977TIP3    H256911   2.268   7.677   1.685
10978TIP3   OH256912   2.376   7.621   1.813
10978TIP3    H156913   2.464   7.587   1.791
10978TIP3    H256914   2.338   7.540   1.853
10979TIP3   OH256915   3.216   7.548   1.828
10979TIP3    H156916   3.227   7.501   1.913
10979TIP3    H256917   3.307   7.549   1.793
10980TIP3   OH256918   5.564   7.875   1.149
10980TIP3    H156919   5.583   7.922   1.233
10980TIP3    H256920   5.624   7.919   1.090
10981TIP3   OH256921   4.333   7.964   0.839
10981TIP3    H156922   4.346   8.045   0.789
10981TIP3    H256923   4.297   7.904   0.769
10982TIP3   OH256924   5.111   7.967   0.667
10982TIP3    H156925   5.170   7.942   0.741
10982TIP3    H256926   5.174   8.024   0.620
10983TIP3   OH256927   5.605   7.985   1.383
10983TIP3    H156928   5.576   8.075   1.357
10983TIP3    H256929   5.629   7.999   1.477
10984TIP3   OH256930   4.225   7.843   1.254
10984TIP3    H156931   4.203   7.896   1.172
10984TIP3    H256932   4.151   7.874   1.310
10985TIP3   OH256933   5.284   7.893   0.868
10985TIP3    H156934   5.266   7.825   0.934
10985TIP3    H256935   5.341   7.954   0.918
10986TIP3   OH256936   4.197   8.003   1.061
10986TIP3    H156937   4.235   8.091   1.080
10986TIP3    H256938   4.236   7.988   0.972
10987TIP3   OH256939   5.321   7.778   1.242
10987TIP3    H156940   5.244   7.837   1.230
10987TIP3    H256941   5.391   7.818   1.188
10988TIP3   OH256942   4.618   7.586   0.988
10988TIP3    H156943   4.601   7.490   0.981
10988TIP3    H256944   4.530   7.618   1.020
10989TIP3   OH256945   5.455   7.577   0.288
10989TIP3    H156946   5.360   7.590   0.308
10989TIP3    H256947   5.472   7.662   0.242
10990TIP3   OH256948   4.357   7.678   1.065
10990TIP3    H156949   4.267   7.663   1.027
10990TIP3    H256950   4.344   7.761   1.112
10991TIP3   OH256951   4.820   7.642   1.400
10991TIP3    H156952   4.860   7.600   1.479
10991TIP3    H256953   4.723   7.633   1.415
10992TIP3   OH256954   5.150   8.030   1.493
10992TIP3    H156955   5.090   8.006   1.568
10992TIP3    H256956   5.120   8.117   1.465
10993TIP3   OH256957   4.786   7.899   0.137
10993TIP3    H156958   4.748   7.896   0.227
10993TIP3    H256959   4.754   7.815   0.102
10994TIP3   OH256960   4.465   7.857   0.056
10994TIP3    H156961   4.428   7.878   0.143
10994TIP3    H256962   4.407   7.918   0.008
10995TIP3   OH256963   3.795   7.908   0.756
10995TIP3    H156964   3.861   7.904   0.828
10995TIP3    H256965   3.841   7.874   0.677
10996TIP3   OH256966   3.905   7.952   0.284
10996TIP3    H156967   3.967   8.018   0.246
10996TIP3    H256968   3.852   8.019   0.330
10997TIP3   OH256969   4.614   7.930   0.775
10997TIP3    H156970   4.522   7.939   0.805
10997TIP3    H256971   4.668   7.924   0.855
10998TIP3   OH256972   5.061   7.864   1.102
10998TIP3    H156973   4.991   7.876   1.170
10998TIP3    H256974   5.010   7.841   1.023
10999TIP3   OH256975   4.251   7.830   0.616
10999TIP3    H156976   4.217   7.738   0.608
10999TIP3    H256977   4.323   7.828   0.552
11000TIP3   OH256978   4.613   8.027   1.195
11000TIP3    H156979   4.540   8.092   1.198
11000TIP3    H256980   4.667   8.068   1.265
11001TIP3   OH256981   5.053   7.959   0.204
11001TIP3    H156982   4.959   7.968   0.179
11001TIP3    H256983   5.086   8.047   0.224
11002TIP3   OH256984   4.036   7.925   1.443
11002TIP3    H156985   3.951   7.970   1.425
11002TIP3    H256986   4.004   7.837   1.465
11003TIP3   OH256987   4.909   7.899   1.333
11003TIP3    H156988   4.983   7.912   1.395
11003TIP3    H256989   4.878   7.810   1.357
11004TIP3   OH256990   4.982   7.869   0.447
11004TIP3    H156991   5.019   7.901   0.363
11004TIP3    H256992   5.048   7.900   0.512
11005TIP3   OH256993   4.725   8.026   0.525
11005TIP3    H156994   4.791   8.097   0.529
11005TIP3    H256995   4.686   8.026   0.614
11006TIP3   OH256996   4.801   7.740   0.613
11006TIP3    H156997   4.768   7.805   0.679
11006TIP3    H256998   4.869   7.795   0.566
11007TIP3   OH256999   4.363   7.852   0.300
11007TIP3    H157000   4.362   7.946   0.318
11007TIP3    H257001   4.457   7.826   0.308
11008TIP3   OH257002   5.388   7.922   1.526
11008TIP3    H157003   5.295   7.953   1.520
11008TIP3    H257004   5.416   7.922   1.433
11009TIP3   OH257005   4.106   7.640   0.978
11009TIP3    H157006   4.087   7.644   0.881
11009TIP3    H257007   4.064   7.555   1.001
11010TIP3   OH257008   4.372   7.998   1.581
11010TIP3    H157009   4.440   7.947   1.532
11010TIP3    H257010   4.408   8.088   1.567
11011TIP3   OH257011   4.469   7.871   1.355
11011TIP3    H157012   4.528   7.909   1.285
11011TIP3    H257013   4.383   7.864   1.307
11012TIP3   OH257014   4.550   7.616   1.393
11012TIP3    H157015   4.534   7.711   1.381
11012TIP3    H257016   4.479   7.577   1.339
11013TIP3   OH257017   4.709   7.991   1.788
11013TIP3    H157018   4.674   8.022   1.874
11013TIP3    H257019   4.626   8.000   1.741
11014TIP3   OH257020   4.952   7.950   1.652
11014TIP3    H157021   4.861   7.967   1.680
11014TIP3    H257022   4.983   7.901   1.730
11015TIP3   OH257023   5.110   7.820   1.856
11015TIP3    H157024   5.102   7.722   1.854
11015TIP3    H257025   5.086   7.846   1.947
11016TIP3   OH257026   4.092   7.956   1.782
11016TIP3    H157027   4.107   7.877   1.733
11016TIP3    H257028   4.080   7.911   1.869
11017TIP3   OH257029   4.573   7.554   1.660
11017TIP3    H157030   4.640   7.482   1.662
11017TIP3    H257031   4.566   7.566   1.563
11018TIP3   OH257032   4.607   7.705   1.877
11018TIP3    H157033   4.596   7.659   1.791
11018TIP3    H257034   4.558   7.789   1.864
11019TIP3   OH257035   5.364   7.901   0.122
11019TIP3    H157036   5.453   7.873   0.091
11019TIP3    H257037   5.313   7.880   0.043
11020TIP3   OH257038   5.372   8.057   0.550
11020TIP3    H157039   5.383   7.963   0.523
11020TIP3    H257040   5.418   8.099   0.475
11021TIP3   OH257041   3.844   8.028   1.661
11021TIP3    H157042   3.931   8.025   1.705
11021TIP3    H257043   3.792   7.960   1.709
11022TIP3   OH257044   5.644   7.600   1.867
11022TIP3    H157045   5.680   7.536   1.804
11022TIP3    H257046   5.651   7.683   1.816
11023TIP3   OH257047   5.416   7.796   0.512
11023TIP3    H157048   5.434   7.754   0.599
11023TIP3    H257049   5.353   7.732   0.471
11024TIP3   OH257050   3.964   7.879   0.967
11024TIP3    H157051   4.009   7.797   0.996
11024TIP3    H257052   4.012   7.945   1.018
11025TIP3   OH257053   5.593   7.811   1.706
11025TIP3    H157054   5.502   7.844   1.696
11025TIP3    H257055   5.600   7.759   1.624
11026TIP3   OH257056   5.605   7.793   0.169
11026TIP3    H157057   5.648   7.729   0.113
11026TIP3    H257058   5.670   7.866   0.183
11027TIP3   OH257059   3.823   7.806   0.485
11027TIP3    H157060   3.730   7.824   0.467
11027TIP3    H257061   3.867   7.854   0.413
11028TIP3   OH257062   3.824   7.675   1.316
11028TIP3    H157063   3.752   7.653   1.379
11028TIP3    H257064   3.775   7.737   1.257
11029TIP3   OH257065   5.499   7.623   1.489
11029TIP3    H157066   5.416   7.651   1.447
11029TIP3    H257067   5.516   7.540   1.439
11030TIP3   OH257068   4.837   7.763   0.914
11030TIP3    H157069   4.770   7.699   0.946
11030TIP3    H257070   4.893   7.707   0.859
11031TIP3   OH257071   5.349   7.573   0.925
11031TIP3    H157072   5.411   7.629   0.872
11031TIP3    H257073   5.261   7.610   0.899
11032TIP3   OH257074   5.517   7.691   0.751
11032TIP3    H157075   5.587   7.637   0.708
11032TIP3    H257076   5.565   7.775   0.764
11033TIP3   OH257077   4.074   7.628   0.704
11033TIP3    H157078   3.994   7.610   0.650
11033TIP3    H257079   4.119   7.542   0.696
11034TIP3   OH257080   3.953   7.602   0.278
11034TIP3    H157081   3.999   7.669   0.225
11034TIP3    H257082   3.895   7.659   0.334
11035TIP3   OH257083   4.522   7.619   0.680
11035TIP3    H157084   4.611   7.657   0.673
11035TIP3    H257085   4.515   7.607   0.774
11036TIP3   OH257086   5.091   7.621   0.843
11036TIP3    H157087   5.086   7.633   0.748
11036TIP3    H257088   5.050   7.533   0.856
11037TIP3   OH257089   5.218   7.625   0.408
11037TIP3    H157090   5.144   7.687   0.397
11037TIP3    H257091   5.174   7.539   0.430
11038TIP3   OH257092   4.132   7.794   0.131
11038TIP3    H157093   4.186   7.735   0.077
11038TIP3    H257094   4.201   7.832   0.188
11039TIP3   OH257095   4.638   7.822   0.363
11039TIP3    H157096   4.664   7.766   0.438
11039TIP3    H257097   4.643   7.908   0.413
11040TIP3   OH257098   4.057   7.658   1.651
11040TIP3    H157099   4.014   7.580   1.695
11040TIP3    H257100   4.145   7.646   1.692
11041TIP3   OH257101   4.261   7.622   1.809
11041TIP3    H157102   4.350   7.587   1.793
11041TIP3    H257103   4.223   7.543   1.853
11042TIP3   OH257104   5.101   7.548   1.828
11042TIP3    H157105   5.112   7.501   1.913
11042TIP3    H257106   5.193   7.549   1.793
11043TIP3   OH257107   7.449   7.875   1.149
11043TIP3    H157108   7.469   7.923   1.232
11043TIP3    H257109   7.510   7.919   1.088
11044TIP3   OH257110   6.214   7.966   0.838
11044TIP3    H157111   6.236   8.044   0.787
11044TIP3    H257112   6.184   7.903   0.768
11045TIP3   OH257113   6.996   7.968   0.667
11045TIP3    H157114   7.056   7.942   0.741
11045TIP3    H257115   7.059   8.024   0.620
11046TIP3   OH257116   7.490   7.985   1.383
11046TIP3    H157117   7.462   8.074   1.356
11046TIP3    H257118   7.515   7.999   1.477
11047TIP3   OH257119   6.113   7.843   1.250
11047TIP3    H157120   6.086   7.898   1.173
11047TIP3    H257121   6.043   7.871   1.315
11048TIP3   OH257122   7.167   7.892   0.869
11048TIP3    H157123   7.152   7.825   0.936
11048TIP3    H257124   7.227   7.954   0.915
11049TIP3   OH257125   6.079   8.006   1.057
11049TIP3    H157126   6.125   8.088   1.083
11049TIP3    H257127   6.125   7.986   0.972
11050TIP3   OH257128   7.207   7.778   1.242
11050TIP3    H157129   7.130   7.837   1.229
11050TIP3    H257130   7.277   7.819   1.188
11051TIP3   OH257131   6.503   7.587   0.988
11051TIP3    H157132   6.487   7.491   0.981
11051TIP3    H257133   6.415   7.618   1.020
11052TIP3   OH257134   7.340   7.577   0.287
11052TIP3    H157135   7.245   7.590   0.308
11052TIP3    H257136   7.358   7.661   0.242
11053TIP3   OH257137   6.244   7.679   1.063
11053TIP3    H157138   6.152   7.663   1.028
11053TIP3    H257139   6.229   7.759   1.115
11054TIP3   OH257140   6.706   7.642   1.400
11054TIP3    H157141   6.746   7.600   1.479
11054TIP3    H257142   6.609   7.633   1.415
11055TIP3   OH257143   7.036   8.030   1.493
11055TIP3    H157144   6.976   8.006   1.567
11055TIP3    H257145   7.006   8.117   1.465
11056TIP3   OH257146   6.672   7.899   0.137
11056TIP3    H157147   6.634   7.896   0.227
11056TIP3    H257148   6.639   7.815   0.102
11057TIP3   OH257149   6.350   7.857   0.057
11057TIP3    H157150   6.313   7.879   0.143
11057TIP3    H257151   6.293   7.918   0.008
11058TIP3   OH257152   5.687   7.921   0.754
11058TIP3    H157153   5.747   7.896   0.829
11058TIP3    H257154   5.723   7.872   0.677
11059TIP3   OH257155   5.791   7.952   0.286
11059TIP3    H157156   5.853   8.018   0.248
11059TIP3    H257157   5.736   8.019   0.328
11060TIP3   OH257158   6.499   7.931   0.774
11060TIP3    H157159   6.407   7.938   0.805
11060TIP3    H257160   6.553   7.924   0.854
11061TIP3   OH257161   6.947   7.864   1.102
11061TIP3    H157162   6.877   7.876   1.170
11061TIP3    H257163   6.896   7.841   1.023
11062TIP3   OH257164   6.134   7.832   0.616
11062TIP3    H157165   6.101   7.741   0.607
11062TIP3    H257166   6.208   7.829   0.553
11063TIP3   OH257167   6.496   8.028   1.193
11063TIP3    H157168   6.424   8.092   1.200
11063TIP3    H257169   6.552   8.068   1.264
11064TIP3   OH257170   6.938   7.959   0.204
11064TIP3    H157171   6.845   7.968   0.179
11064TIP3    H257172   6.972   8.047   0.224
11065TIP3   OH257173   5.928   7.924   1.441
11065TIP3    H157174   5.838   7.961   1.435
11065TIP3    H257175   5.915   7.840   1.486
11066TIP3   OH257176   6.797   7.898   1.331
11066TIP3    H157177   6.869   7.912   1.395
11066TIP3    H257178   6.763   7.810   1.357
11067TIP3   OH257179   6.868   7.868   0.448
11067TIP3    H157180   6.904   7.901   0.363
11067TIP3    H257181   6.934   7.900   0.512
11068TIP3   OH257182   6.610   8.026   0.525
11068TIP3    H157183   6.676   8.097   0.529
11068TIP3    H257184   6.572   8.026   0.614
11069TIP3   OH257185   6.687   7.740   0.613
11069TIP3    H157186   6.654   7.805   0.679
11069TIP3    H257187   6.755   7.795   0.566
11070TIP3   OH257188   6.248   7.852   0.301
11070TIP3    H157189   6.248   7.947   0.318
11070TIP3    H257190   6.343   7.826   0.308
11071TIP3   OH257191   7.274   7.922   1.526
11071TIP3    H157192   7.180   7.953   1.519
11071TIP3    H257193   7.302   7.923   1.434
11072TIP3   OH257194   5.991   7.640   0.978
11072TIP3    H157195   5.973   7.645   0.882
11072TIP3    H257196   5.949   7.555   1.001
11073TIP3   OH257197   6.263   8.001   1.584
11073TIP3    H157198   6.322   7.944   1.531
11073TIP3    H257199   6.296   8.090   1.562
11074TIP3   OH257200   6.358   7.870   1.354
11074TIP3    H157201   6.413   7.910   1.283
11074TIP3    H257202   6.269   7.865   1.312
11075TIP3   OH257203   6.439   7.615   1.390
11075TIP3    H157204   6.418   7.710   1.384
11075TIP3    H257205   6.364   7.577   1.341
11076TIP3   OH257206   6.594   7.990   1.788
11076TIP3    H157207   6.559   8.022   1.874
11076TIP3    H257208   6.510   7.999   1.742
11077TIP3   OH257209   6.838   7.950   1.653
11077TIP3    H157210   6.747   7.967   1.680
11077TIP3    H257211   6.868   7.901   1.732
11078TIP3   OH257212   6.998   7.820   1.859
11078TIP3    H157213   6.987   7.722   1.853
11078TIP3    H257214   6.970   7.844   1.948
11079TIP3   OH257215   5.979   7.951   1.770
11079TIP3    H157216   5.998   7.877   1.709
11079TIP3    H257217   5.968   7.899   1.852
11080TIP3   OH257218   6.461   7.554   1.660
11080TIP3    H157219   6.527   7.481   1.660
11080TIP3    H257220   6.449   7.567   1.564
11081TIP3   OH257221   6.494   7.706   1.877
11081TIP3    H157222   6.481   7.660   1.791
11081TIP3    H257223   6.442   7.789   1.864
11082TIP3   OH257224   7.250   7.901   0.123
11082TIP3    H157225   7.338   7.873   0.091
11082TIP3    H257226   7.199   7.879   0.044
11083TIP3   OH257227   7.252   8.055   0.548
11083TIP3    H157228   7.270   7.961   0.525
11083TIP3    H257229   7.306   8.098   0.478
11084TIP3   OH257230   5.728   8.031   1.663
11084TIP3    H157231   5.819   8.021   1.699
11084TIP3    H257232   5.680   7.958   1.709
11085TIP3   OH257233   7.529   7.600   1.867
11085TIP3    H157234   7.566   7.536   1.804
11085TIP3    H257235   7.537   7.683   1.816
11086TIP3   OH257236   7.300   7.797   0.513
11086TIP3    H157237   7.320   7.755   0.599
11086TIP3    H257238   7.238   7.733   0.472
11087TIP3   OH257239   5.851   7.883   0.967
11087TIP3    H157240   5.891   7.797   0.995
11087TIP3    H257241   5.900   7.943   1.023
11088TIP3   OH257242   7.479   7.810   1.706
11088TIP3    H157243   7.387   7.844   1.695
11088TIP3    H257244   7.486   7.759   1.624
11089TIP3   OH257245   7.490   7.793   0.169
11089TIP3    H157246   7.534   7.729   0.113
11089TIP3    H257247   7.554   7.866   0.183
11090TIP3   OH257248   5.708   7.813   0.491
11090TIP3    H157249   5.615   7.821   0.466
11090TIP3    H257250   5.752   7.852   0.413
11091TIP3   OH257251   5.707   7.671   1.313
11091TIP3    H157252   5.641   7.655   1.382
11091TIP3    H257253   5.661   7.739   1.258
11092TIP3   OH257254   7.384   7.623   1.489
11092TIP3    H157255   7.301   7.652   1.447
11092TIP3    H257256   7.401   7.540   1.439
11093TIP3   OH257257   6.722   7.763   0.914
11093TIP3    H157258   6.656   7.699   0.946
11093TIP3    H257259   6.778   7.707   0.859
11094TIP3   OH257260   7.234   7.573   0.925
11094TIP3    H157261   7.297   7.629   0.873
11094TIP3    H257262   7.146   7.610   0.899
11095TIP3   OH257263   7.402   7.690   0.750
11095TIP3    H157264   7.473   7.637   0.707
11095TIP3    H257265   7.451   7.774   0.764
11096TIP3   OH257266   5.959   7.628   0.704
11096TIP3    H157267   5.880   7.610   0.650
11096TIP3    H257268   6.005   7.542   0.696
11097TIP3   OH257269   5.838   7.602   0.278
11097TIP3    H157270   5.884   7.669   0.225
11097TIP3    H257271   5.781   7.658   0.334
11098TIP3   OH257272   6.407   7.619   0.680
11098TIP3    H157273   6.497   7.657   0.674
11098TIP3    H257274   6.400   7.606   0.774
11099TIP3   OH257275   6.977   7.621   0.843
11099TIP3    H157276   6.972   7.633   0.748
11099TIP3    H257277   6.936   7.533   0.856
11100TIP3   OH257278   7.104   7.625   0.408
11100TIP3    H157279   7.030   7.687   0.397
11100TIP3    H257280   7.060   7.540   0.430
11101TIP3   OH257281   6.018   7.794   0.131
11101TIP3    H157282   6.072   7.735   0.077
11101TIP3    H257283   6.087   7.832   0.188
11102TIP3   OH257284   6.523   7.822   0.363
11102TIP3    H157285   6.549   7.766   0.438
11102TIP3    H257286   6.528   7.907   0.412
11103TIP3   OH257287   5.946   7.685   1.651
11103TIP3    H157288   5.909   7.602   1.686
11103TIP3    H257289   6.039   7.678   1.684
11104TIP3   OH257290   6.146   7.621   1.813
11104TIP3    H157291   6.235   7.587   1.791
11104TIP3    H257292   6.109   7.540   1.853
11105TIP3   OH257293   6.987   7.547   1.827
11105TIP3    H157294   6.998   7.502   1.913
11105TIP3    H257295   7.079   7.549   1.793
11106TIP3   OH257296   7.969   7.840   1.240
11106TIP3    H157297   7.971   7.908   1.169
11106TIP3    H257298   7.921   7.883   1.312
11107TIP3   OH257299   7.980   8.014   1.054
11107TIP3    H157300   8.007   8.106   1.072
11107TIP3    H257301   8.010   7.998   0.963
11108TIP3   OH257302   7.565   7.908   0.756
11108TIP3    H157303   7.631   7.905   0.829
11108TIP3    H257304   7.612   7.875   0.677
11109TIP3   OH257305   7.673   7.953   0.283
11109TIP3    H157306   7.737   8.018   0.247
11109TIP3    H257307   7.619   8.019   0.329
11110TIP3   OH257308   7.965   7.823   0.593
11110TIP3    H157309   7.963   7.727   0.616
11110TIP3    H257310   8.060   7.835   0.581
11111TIP3   OH257311   7.812   7.927   1.446
11111TIP3    H157312   7.722   7.961   1.431
11111TIP3    H257313   7.799   7.840   1.486
11112TIP3   OH257314   7.875   7.640   0.979
11112TIP3    H157315   7.862   7.645   0.882
11112TIP3    H257316   7.835   7.555   1.003
11113TIP3   OH257317   7.861   7.947   1.772
11113TIP3    H157318   7.884   7.874   1.709
11113TIP3    H257319   7.850   7.895   1.854
11114TIP3   OH257320   7.613   8.030   1.662
11114TIP3    H157321   7.703   8.021   1.699
11114TIP3    H257322   7.564   7.959   1.708
11115TIP3   OH257323   7.734   7.880   0.970
11115TIP3    H157324   7.781   7.797   0.994
11115TIP3    H257325   7.788   7.945   1.017
11116TIP3   OH257326   7.594   7.804   0.483
11116TIP3    H157327   7.500   7.823   0.468
11116TIP3    H257328   7.636   7.855   0.413
11117TIP3   OH257329   7.590   7.669   1.312
11117TIP3    H157330   7.523   7.656   1.381
11117TIP3    H257331   7.547   7.738   1.257
11118TIP3   OH257332   7.838   7.622   0.707
11118TIP3    H157333   7.759   7.607   0.652
11118TIP3    H257334   7.890   7.542   0.701
11119TIP3   OH257335   7.725   7.602   0.278
11119TIP3    H157336   7.769   7.671   0.225
11119TIP3    H257337   7.666   7.658   0.334
11120TIP3   OH257338   7.906   7.788   0.131
11120TIP3    H157339   7.963   7.736   0.073
11120TIP3    H257340   7.972   7.833   0.186
11121TIP3   OH257341   7.839   7.688   1.650
11121TIP3    H157342   7.800   7.605   1.684
11121TIP3    H257343   7.931   7.677   1.681
11122TIP3   OH257344   8.032   7.620   1.813
11122TIP3    H157345   8.120   7.588   1.786
11122TIP3    H257346   7.996   7.539   1.855
11123TIP3   OH257347   1.211   1.000   2.570
11123TIP3    H157348   1.209   1.098   2.572
11123TIP3    H257349   1.135   0.979   2.512
11124TIP3   OH257350   1.096   0.924   2.926
11124TIP3    H157351   1.094   0.855   2.993
11124TIP3    H257352   1.064   0.877   2.848
11125TIP3   OH257353   0.336   0.900   3.085
11125TIP3    H157354   0.343   0.824   3.146
11125TIP3    H257355   0.417   0.949   3.106
11126TIP3   OH257356   1.462   1.221   2.748
11126TIP3    H157357   1.423   1.149   2.799
11126TIP3    H257358   1.468   1.291   2.818
11127TIP3   OH257359   0.420   1.337   2.928
11127TIP3    H157360   0.394   1.248   2.895
11127TIP3    H257361   0.517   1.323   2.930
11128TIP3   OH257362   0.100   0.698   2.434
11128TIP3    H157363   0.055   0.773   2.480
11128TIP3    H257364   0.027   0.637   2.436
11129TIP3   OH257365   0.186   0.931   2.701
11129TIP3    H157366   0.175   0.838   2.730
11129TIP3    H257367   0.234   0.921   2.618
11130TIP3   OH257368   1.178   1.738   2.780
11130TIP3    H157369   1.241   1.669   2.748
11130TIP3    H257370   1.156   1.701   2.866
11131TIP3   OH257371   0.934   1.167   2.971
11131TIP3    H157372   0.968   1.103   2.907
11131TIP3    H257373   1.015   1.183   3.023
11132TIP3   OH257374   1.801   0.324   3.046
11132TIP3    H157375   1.810   0.389   3.119
11132TIP3    H257376   1.849   0.373   2.978
11133TIP3   OH257377   1.251   0.614   3.001
11133TIP3    H157378   1.268   0.518   3.005
11133TIP3    H257379   1.240   0.626   2.905
11134TIP3   OH257380   0.562   0.421   2.724
11134TIP3    H157381   0.574   0.505   2.674
11134TIP3    H257382   0.523   0.365   2.654
11135TIP3   OH257383   1.335   0.429   2.561
11135TIP3    H157384   1.399   0.399   2.628
11135TIP3    H257385   1.392   0.487   2.508
11136TIP3   OH257386   0.270   0.672   2.799
11136TIP3    H157387   0.303   0.593   2.844
11136TIP3    H257388   0.229   0.636   2.718
11137TIP3   OH257389   0.740   0.816   2.732
11137TIP3    H157390   0.807   0.757   2.768
11137TIP3    H257391   0.689   0.755   2.676
11138TIP3   OH257392   1.841   0.483   3.270
11138TIP3    H157393   1.767   0.546   3.261
11138TIP3    H257394   1.833   0.456   3.363
11139TIP3   OH257395   0.456   0.313   3.122
11139TIP3    H157396   0.428   0.373   3.048
11139TIP3    H257397   0.390   0.331   3.189
11140TIP3   OH257398   1.181   1.258   2.481
11140TIP3    H157399   1.151   1.231   2.393
11140TIP3    H257400   1.151   1.352   2.487
11141TIP3   OH257401   0.705   1.078   3.145
11141TIP3    H157402   0.636   1.139   3.176
11141TIP3    H257403   0.778   1.138   3.123
11142TIP3   OH257404   1.517   0.368   2.761
11142TIP3    H157405   1.492   0.290   2.815
11142TIP3    H257406   1.583   0.409   2.818
11143TIP3   OH257407   0.414   0.491   2.932
11143TIP3    H157408   0.471   0.567   2.959
11143TIP3    H257409   0.463   0.459   2.852
11144TIP3   OH257410   0.542   1.274   3.229
11144TIP3    H157411   0.546   1.368   3.203
11144TIP3    H257412   0.463   1.268   3.282
11145TIP3   OH257413   0.146   1.239   2.313
11145TIP3    H157414   0.131   1.270   2.223
11145TIP3    H257415   0.168   1.320   2.362
11146TIP3   OH257416   1.516   1.404   2.976
11146TIP3    H157417   1.421   1.417   2.999
11146TIP3    H257418   1.544   1.497   2.972
11147TIP3   OH257419   1.550   0.239   3.136
11147TIP3    H157420   1.478   0.301   3.119
11147TIP3    H257421   1.622   0.272   3.079
11148TIP3   OH257422   0.839   0.054   2.839
11148TIP3    H157423   0.847  -0.035   2.876
11148TIP3    H257424   0.766   0.083   2.897
11149TIP3   OH257425   1.343   1.584   2.646
11149TIP3    H157426   1.386   1.511   2.597
11149TIP3    H257427   1.389   1.661   2.609
11150TIP3   OH257428   1.466   1.376   2.499
11150TIP3    H157429   1.435   1.306   2.439
11150TIP3    H257430   1.468   1.326   2.583
11151TIP3   OH257431   1.075   0.921   2.325
11151TIP3    H157432   1.006   0.981   2.291
11151TIP3    H257433   1.145   0.935   2.259
11152TIP3   OH257434   1.085   0.783   2.025
11152TIP3    H157435   1.155   0.780   2.092
11152TIP3    H257436   1.115   0.709   1.970
11153TIP3   OH257437   1.816   0.866   3.154
11153TIP3    H157438   1.753   0.941   3.159
11153TIP3    H257439   1.866   0.891   3.074
11154TIP3   OH257440   1.422   0.943   2.417
11154TIP3    H157441   1.347   0.969   2.476
11154TIP3    H257442   1.470   0.877   2.470
11155TIP3   OH257443   0.581   1.010   2.614
11155TIP3    H157444   0.552   0.980   2.524
11155TIP3    H257445   0.646   0.942   2.640
11156TIP3   OH257446   0.714   1.348   2.878
11156TIP3    H157447   0.714   1.298   2.794
11156TIP3    H257448   0.793   1.313   2.922
11157TIP3   OH257449   0.619   0.881   2.978
11157TIP3    H157450   0.668   0.895   2.894
11157TIP3    H257451   0.651   0.955   3.034
11158TIP3   OH257452   1.255   1.444   3.047
11158TIP3    H157453   1.229   1.510   3.114
11158TIP3    H257454   1.229   1.360   3.091
11159TIP3   OH257455   0.690   1.318   3.456
11159TIP3    H157456   0.673   1.408   3.483
11159TIP3    H257457   0.645   1.308   3.370
11160TIP3   OH257458   1.310   0.866   2.183
11160TIP3    H157459   1.365   0.884   2.263
11160TIP3    H257460   1.356   0.915   2.111
11161TIP3   OH257461   0.401   0.958   3.356
11161TIP3    H157462   0.409   0.998   3.445
11161TIP3    H257463   0.308   0.950   3.342
11162TIP3   OH257464   1.081   1.538   2.530
11162TIP3    H157465   1.123   1.568   2.611
11162TIP3    H257466   1.025   1.613   2.506
11163TIP3   OH257467   1.684   0.046   2.184
11163TIP3    H157468   1.587   0.052   2.193
11163TIP3    H257469   1.705   0.122   2.125
11164TIP3   OH257470   0.458   0.895   2.390
11164TIP3    H157471   0.462   0.979   2.337
11164TIP3    H257472   0.400   0.839   2.340
11165TIP3   OH257473   1.793   1.474   2.008
11165TIP3    H157474   1.810   1.568   2.026
11165TIP3    H257475   1.885   1.441   2.009
11166TIP3   OH257476   0.088   1.449   2.928
11166TIP3    H157477   0.181   1.424   2.940
11166TIP3    H257478   0.072   1.514   2.997
11167TIP3   OH257479   1.029   1.828   2.371
11167TIP3    H157480   1.015   1.821   2.275
11167TIP3    H257481   1.029   1.924   2.387
11168TIP3   OH257482   0.397   1.713   2.555
11168TIP3    H157483   0.406   1.674   2.645
11168TIP3    H257484   0.312   1.675   2.528
11169TIP3   OH257485   1.336   1.751   2.070
11169TIP3    H157486   1.379   1.674   2.027
11169TIP3    H257487   1.336   1.724   2.164
11170TIP3   OH257488   1.306   1.746   2.348
11170TIP3    H157489   1.209   1.752   2.363
11170TIP3    H257490   1.327   1.670   2.404
11171TIP3   OH257491   0.584   0.140   2.941
11171TIP3    H157492   0.495   0.138   2.901
11171TIP3    H257493   0.573   0.217   2.999
11172TIP3   OH257494   1.047   0.118   3.251
11172TIP3    H157495   1.101   0.072   3.316
11172TIP3    H257496   0.953   0.102   3.278
11173TIP3   OH257497   1.364   0.479   3.365
11173TIP3    H157498   1.332   0.470   3.456
11173TIP3    H257499   1.359   0.573   3.351
11174TIP3   OH257500   1.455   0.969   1.968
11174TIP3    H157501   1.451   0.951   1.871
11174TIP3    H257502   1.540   1.014   1.971
11175TIP3   OH257503   1.013   0.363   2.017
11175TIP3    H157504   0.982   0.352   2.109
11175TIP3    H257505   0.981   0.276   1.985
11176TIP3   OH257506   0.593   0.631   3.072
11176TIP3    H157507   0.525   0.634   3.141
11176TIP3    H257508   0.590   0.724   3.037
11177TIP3   OH257509   0.592   0.638   2.563
11177TIP3    H157510   0.496   0.624   2.549
11177TIP3    H257511   0.627   0.617   2.475
11178TIP3   OH257512   1.145   0.696   2.438
11178TIP3    H157513   1.105   0.778   2.401
11178TIP3    H257514   1.213   0.677   2.372
11179TIP3   OH257515   1.247   0.645   2.720
11179TIP3    H157516   1.218   0.700   2.646
11179TIP3    H257517   1.256   0.559   2.675
11180TIP3   OH257518   0.349   0.664   3.240
11180TIP3    H157519   0.365   0.700   3.330
11180TIP3    H257520   0.306   0.581   3.255
11181TIP3   OH257521   0.692   0.395   1.926
11181TIP3    H157522   0.649   0.357   2.005
11181TIP3    H257523   0.621   0.442   1.880
11182TIP3   OH257524   0.050   0.396   2.648
11182TIP3    H157525   0.102   0.369   2.726
11182TIP3    H257526   0.072   0.333   2.582
11183TIP3   OH257527   0.151   0.451   2.182
11183TIP3    H157528   0.200   0.504   2.116
11183TIP3    H257529   0.079   0.511   2.207
11184TIP3   OH257530   0.848   0.404   2.663
11184TIP3    H157531   0.754   0.398   2.690
11184TIP3    H257532   0.896   0.382   2.745
11185TIP3   OH257533   0.334   0.554   2.545
11185TIP3    H157534   0.243   0.572   2.514
11185TIP3    H257535   0.354   0.468   2.506
11186TIP3   OH257536   0.692   0.560   2.312
11186TIP3    H157537   0.787   0.570   2.327
11186TIP3    H257538   0.667   0.629   2.247
11187TIP3   OH257539   1.290   0.328   2.983
11187TIP3    H157540   1.223   0.328   3.054
11187TIP3    H257541   1.242   0.292   2.908
11188TIP3   OH257542   0.564   0.673   2.067
11188TIP3    H157543   0.510   0.639   1.994
11188TIP3    H257544   0.646   0.698   2.021
11189TIP3   OH257545   0.972   0.674   2.850
11189TIP3    H157546   1.036   0.623   2.798
11189TIP3    H257547   0.962   0.621   2.930
11190TIP3   OH257548   0.477   0.290   2.492
11190TIP3    H157549   0.444   0.199   2.495
11190TIP3    H257550   0.556   0.280   2.439
11191TIP3   OH257551   0.837   0.507   3.087
11191TIP3    H157552   0.756   0.561   3.096
11191TIP3    H257553   0.890   0.538   3.162
11192TIP3   OH257554   0.904   1.124   2.263
11192TIP3    H157555   0.818   1.090   2.229
11192TIP3    H257556   0.872   1.146   2.353
11193TIP3   OH257557   1.619   1.045   3.140
11193TIP3    H157558   1.675   1.103   3.085
11193TIP3    H257559   1.533   1.055   3.095
11194TIP3   OH257560   1.278   0.410   2.081
11194TIP3    H157561   1.184   0.429   2.064
11194TIP3    H257562   1.315   0.495   2.114
11195TIP3   OH257563   1.354   0.603   2.241
11195TIP3    H157564   1.441   0.591   2.284
11195TIP3    H257565   1.365   0.685   2.190
11196TIP3   OH257566   0.418   1.075   2.850
11196TIP3    H157567   0.473   1.064   2.770
11196TIP3    H257568   0.414   0.983   2.882
11197TIP3   OH257569   1.107   1.277   2.165
11197TIP3    H157570   1.070   1.361   2.201
11197TIP3    H257571   1.034   1.214   2.187
11198TIP3   OH257572   1.843   0.620   2.220
11198TIP3    H157573   1.788   0.589   2.145
11198TIP3    H257574   1.850   0.714   2.195
11199TIP3   OH257575   1.671   1.501   2.258
11199TIP3    H157576   1.637   1.417   2.294
11199TIP3    H257577   1.706   1.478   2.171
11200TIP3   OH257578   1.392   0.984   2.973
11200TIP3    H157579   1.299   0.962   2.955
11200TIP3    H257580   1.437   0.909   2.929
11201TIP3   OH257581   0.645   1.418   2.587
11201TIP3    H157582   0.696   1.495   2.557
11201TIP3    H257583   0.560   1.433   2.544
11202TIP3   OH257584   0.221   0.897   2.039
11202TIP3    H157585   0.283   0.963   2.077
11202TIP3    H257586   0.137   0.933   2.069
11203TIP3   OH257587   0.797   1.185   2.557
11203TIP3    H157588   0.754   1.270   2.535
11203TIP3    H257589   0.715   1.131   2.569
11204TIP3   OH257590   0.833   1.601   3.172
11204TIP3    H157591   0.878   1.682   3.147
11204TIP3    H257592   0.895   1.566   3.238
11205TIP3   OH257593   0.657   1.680   2.488
11205TIP3    H157594   0.560   1.693   2.497
11205TIP3    H257595   0.691   1.767   2.516
11206TIP3   OH257596   1.184   1.197   3.132
11206TIP3    H157597   1.155   1.188   3.224
11206TIP3    H257598   1.250   1.128   3.118
11207TIP3   OH257599   1.420   1.309   2.044
11207TIP3    H157600   1.449   1.261   2.124
11207TIP3    H257601   1.325   1.290   2.051
11208TIP3   OH257602   1.469   1.655   3.378
11208TIP3    H157603   1.389   1.616   3.339
11208TIP3    H257604   1.485   1.731   3.320
11209TIP3   OH257605   1.862   1.743   2.067
11209TIP3    H157606   1.933   1.807   2.048
11209TIP3    H257607   1.793   1.804   2.099
11210TIP3   OH257608   1.497   1.172   2.268
11210TIP3    H157609   1.472   1.093   2.321
11210TIP3    H257610   1.592   1.175   2.285
11211TIP3   OH257611   0.234   1.564   3.165
11211TIP3    H157612   0.270   1.476   3.163
11211TIP3    H257613   0.260   1.597   3.252
11212TIP3   OH257614   0.833   1.417   1.892
11212TIP3    H157615   0.841   1.338   1.836
11212TIP3    H257616   0.786   1.375   1.969
11213TIP3   OH257617   0.716   1.371   2.135
11213TIP3    H157618   0.725   1.312   2.213
11213TIP3    H257619   0.716   1.461   2.174
11214TIP3   OH257620   0.345   1.097   2.169
11214TIP3    H157621   0.293   1.129   2.245
11214TIP3    H257622   0.417   1.162   2.166
11215TIP3   OH257623   1.140   0.362   3.212
11215TIP3    H157624   1.210   0.373   3.279
11215TIP3    H257625   1.110   0.271   3.229
11216TIP3   OH257626   1.229   0.312   2.331
11216TIP3    H157627   1.242   0.362   2.248
11216TIP3    H257628   1.276   0.369   2.394
11217TIP3   OH257629   0.991   1.536   2.209
11217TIP3    H157630   0.906   1.586   2.214
11217TIP3    H257631   1.043   1.592   2.149
11218TIP3   OH257632   0.944   0.492   2.411
11218TIP3    H157633   1.021   0.553   2.415
11218TIP3    H257634   0.916   0.482   2.504
11219TIP3   OH257635   1.031   0.200   2.504
11219TIP3    H157636   0.995   0.268   2.564
11219TIP3    H257637   1.097   0.255   2.455
11220TIP3   OH257638   0.736   1.638   2.212
11220TIP3    H157639   0.735   1.718   2.153
11220TIP3    H257640   0.701   1.674   2.295
11221TIP3   OH257641   0.593   0.310   2.165
11221TIP3    H157642   0.588   0.398   2.207
11221TIP3    H257643   0.684   0.286   2.193
11222TIP3   OH257644   1.479   0.761   2.811
11222TIP3    H157645   1.395   0.717   2.786
11222TIP3    H257646   1.525   0.693   2.867
11223TIP3   OH257647   0.415   1.356   2.069
11223TIP3    H157648   0.483   1.414   2.107
11223TIP3    H257649   0.471   1.304   2.008
11224TIP3   OH257650   0.251   0.621   1.985
11224TIP3    H157651   0.251   0.716   2.009
11224TIP3    H257652   0.161   0.605   1.955
11225TIP3   OH257653   1.581   1.688   2.980
11225TIP3    H157654   1.574   1.756   2.912
11225TIP3    H257655   1.677   1.691   2.999
11226TIP3   OH257656   0.319   0.122   2.848
11226TIP3    H157657   0.304   0.108   2.752
11226TIP3    H257658   0.300   0.033   2.885
11227TIP3   OH257659   0.231   1.492   2.477
11227TIP3    H157660   0.146   1.537   2.471
11227TIP3    H257661   0.279   1.537   2.406
11228TIP3   OH257662   1.032   1.600   1.906
11228TIP3    H157663   0.962   1.534   1.927
11228TIP3    H257664   1.103   1.540   1.881
11229TIP3   OH257665   1.487   1.573   1.924
11229TIP3    H157666   1.516   1.496   1.976
11229TIP3    H257667   1.563   1.593   1.869
11230TIP3   OH257668   0.575   1.164   1.901
11230TIP3    H157669   0.590   1.095   1.968
11230TIP3    H257670   0.655   1.154   1.846
11231TIP3   OH257671   1.119   1.280   1.884
11231TIP3    H157672   1.091   1.288   1.977
11231TIP3    H257673   1.100   1.184   1.869
11232TIP3   OH257674   0.714   0.956   2.131
11232TIP3    H157675   0.656   0.923   2.202
11232TIP3    H257676   0.730   0.878   2.074
11233TIP3   OH257677   0.605   0.752   3.367
11233TIP3    H157678   0.571   0.828   3.414
11233TIP3    H257679   0.669   0.790   3.304
11234TIP3   OH257680   0.804   0.778   1.963
11234TIP3    H157681   0.790   0.784   1.867
11234TIP3    H257682   0.900   0.797   1.974
11235TIP3   OH257683   1.733   1.025   1.910
11235TIP3    H157684   1.719   0.988   1.821
11235TIP3    H257685   1.747   1.120   1.891
11236TIP3   OH257686   0.702   0.323   3.239
11236TIP3    H157687   0.754   0.375   3.173
11236TIP3    H257688   0.614   0.318   3.198
11237TIP3   OH257689   0.853   0.870   3.255
11237TIP3    H157690   0.935   0.861   3.207
11237TIP3    H257691   0.820   0.959   3.233
11238TIP3   OH257692   0.788   0.083   3.292
11238TIP3    H157693   0.762   0.177   3.274
11238TIP3    H257694   0.709   0.036   3.258
11239TIP3   OH257695   0.795   1.860   2.080
11239TIP3    H157696   0.891   1.874   2.083
11239TIP3    H257697   0.768   1.918   2.007
11240TIP3   OH257698   0.142   1.320   2.024
11240TIP3    H157699   0.239   1.331   2.043
11240TIP3    H257700   0.151   1.252   1.954
11241TIP3   OH257701   0.034   1.869   2.510
11241TIP3    H157702  -0.045   1.821   2.480
11241TIP3    H257703   0.054   1.808   2.583
11242TIP3   OH257704   0.121   1.674   2.699
11242TIP3    H157705   0.075   1.590   2.716
11242TIP3    H257706   0.135   1.710   2.790
11243TIP3   OH257707   1.859   1.750   3.000
11243TIP3    H157708   1.856   1.766   3.095
11243TIP3    H257709   1.926   1.811   2.969
11244TIP3   OH257710   1.790   1.117   2.305
11244TIP3    H157711   1.876   1.155   2.324
11244TIP3    H257712   1.787   1.045   2.372
11245TIP3   OH257713   1.825   0.925   2.495
11245TIP3    H157714   1.749   0.875   2.534
11245TIP3    H257715   1.885   0.937   2.571
11246TIP3   OH257716   1.799   1.192   2.992
11246TIP3    H157717   1.882   1.155   2.958
11246TIP3    H257718   1.813   1.287   2.978
11247TIP3   OH257719   1.659   1.488   3.214
11247TIP3    H157720   1.597   1.513   3.286
11247TIP3    H257721   1.602   1.439   3.153
11248TIP3   OH257722   1.855   0.906   2.133
11248TIP3    H157723   1.798   0.939   2.061
11248TIP3    H257724   1.844   0.978   2.199
11249TIP3   OH257725   1.694   0.630   1.984
11249TIP3    H157726   1.701   0.695   1.914
11249TIP3    H257727   1.673   0.547   1.935
11250TIP3   OH257728   1.608   0.771   2.553
11250TIP3    H157729   1.593   0.676   2.547
11250TIP3    H257730   1.576   0.791   2.643
11251TIP3   OH257731   0.112   0.987   2.960
11251TIP3    H157732   0.125   0.969   2.863
11251TIP3    H257733   0.199   0.958   2.993
11252TIP3   OH257734   1.616   0.380   1.903
11252TIP3    H157735   1.678   0.333   1.962
11252TIP3    H257736   1.532   0.332   1.913
11253TIP3   OH257737   1.571   0.533   2.393
11253TIP3    H157738   1.602   0.440   2.408
11253TIP3    H257739   1.654   0.572   2.362
11254TIP3   OH257740   1.635   0.585   2.941
11254TIP3    H157741   1.732   0.605   2.940
11254TIP3    H257742   1.618   0.591   3.037
11255TIP3   OH257743   1.640   0.659   3.216
11255TIP3    H157744   1.556   0.685   3.255
11255TIP3    H257745   1.688   0.743   3.198
11256TIP3   OH257746   1.636   0.262   2.401
11256TIP3    H157747   1.661   0.217   2.485
11256TIP3    H257748   1.580   0.195   2.357
11257TIP3   OH257749   0.186   0.346   2.865
11257TIP3    H157750   0.236   0.264   2.881
11257TIP3    H257751   0.245   0.414   2.900
11258TIP3   OH257752   0.057   0.636   2.994
11258TIP3    H157753   0.064   0.618   2.897
11258TIP3    H257754   0.060   0.732   2.987
11259TIP3   OH257755   1.826   0.260   2.064
11259TIP3    H157756   1.861   0.190   2.004
11259TIP3    H257757   1.894   0.328   2.062
11260TIP3   OH257758   0.071   0.245   2.325
11260TIP3    H157759  -0.022   0.272   2.339
11260TIP3    H257760   0.110   0.324   2.282
11261TIP3   OH257761   1.527   1.759   2.565
11261TIP3    H157762   1.596   1.730   2.502
11261TIP3    H257763   1.579   1.810   2.629
11262TIP3   OH257764   0.059   0.126   3.201
11262TIP3    H157765  -0.013   0.104   3.261
11262TIP3    H257766   0.012   0.196   3.151
11263TIP3   OH257767   0.556   1.549   3.233
11263TIP3    H157768   0.527   1.640   3.214
11263TIP3    H257769   0.653   1.560   3.216
11264TIP3   OH257770   0.546   1.826   3.141
11264TIP3    H157771   0.473   1.857   3.199
11264TIP3    H257772   0.546   1.895   3.072
11265TIP3   OH257773   1.022   1.821   3.068
11265TIP3    H157774   0.978   1.878   3.001
11265TIP3    H257775   1.032   1.885   3.140
11266TIP3   OH257776   1.258   1.704   3.148
11266TIP3    H157777   1.166   1.732   3.137
11266TIP3    H257778   1.301   1.790   3.157
11267TIP3   OH257779   1.513   1.865   3.191
11267TIP3    H157780   1.507   1.960   3.169
11267TIP3    H257781   1.532   1.824   3.105
11268TIP3   OH257782   0.252   1.741   2.931
11268TIP3    H157783   0.242   1.698   3.018
11268TIP3    H257784   0.336   1.702   2.897
11269TIP3   OH257785   0.456   1.612   2.806
11269TIP3    H157786   0.445   1.517   2.820
11269TIP3    H257787   0.545   1.626   2.847
11270TIP3   OH257788   0.716   1.657   2.891
11270TIP3    H157789   0.734   1.566   2.863
11270TIP3    H257790   0.725   1.652   2.987
11271TIP3   OH257791   1.061   0.230   2.797
11271TIP3    H157792   1.000   0.163   2.830
11271TIP3    H257793   1.123   0.175   2.748
11272TIP3   OH257794   1.583   0.057   2.824
11272TIP3    H157795   1.642   0.095   2.755
11272TIP3    H257796   1.493   0.063   2.785
11273TIP3   OH257797   1.748   0.160   2.633
11273TIP3    H157798   1.812   0.097   2.595
11273TIP3    H257799   1.799   0.243   2.647
11274TIP3   OH257800   0.305   0.087   2.583
11274TIP3    H157801   0.224   0.069   2.533
11274TIP3    H257802   0.347   0.000   2.581
11275TIP3   OH257803   0.209   0.103   2.164
11275TIP3    H157804   0.230   0.161   2.090
11275TIP3    H257805   0.131   0.144   2.208
11276TIP3   OH257806   0.744   0.091   2.566
11276TIP3    H157807   0.837   0.118   2.557
11276TIP3    H257808   0.751   0.058   2.656
11277TIP3   OH257809   1.321   0.084   2.729
11277TIP3    H157810   1.315   0.089   2.633
11277TIP3    H257811   1.285  -0.006   2.744
11278TIP3   OH257812   1.430   0.096   2.263
11278TIP3    H157813   1.358   0.158   2.280
11278TIP3    H257814   1.407   0.018   2.314
11279TIP3   OH257815   0.162   1.663   2.269
11279TIP3    H157816   0.115   1.661   2.186
11279TIP3    H257817   0.173   1.759   2.276
11280TIP3   OH257818   0.364   0.261   2.007
11280TIP3    H157819   0.415   0.196   1.955
11280TIP3    H257820   0.431   0.283   2.075
11281TIP3   OH257821   0.860   0.284   2.252
11281TIP3    H157822   0.889   0.224   2.322
11281TIP3    H257823   0.871   0.370   2.297
11282TIP3   OH257824   1.061   1.787   2.097
11282TIP3    H157825   1.152   1.808   2.072
11282TIP3    H257826   1.034   1.737   2.018
11283TIP3   OH257827   1.724   1.739   2.368
11283TIP3    H157828   1.708   1.659   2.313
11283TIP3    H257829   1.721   1.811   2.303
11284TIP3   OH257830   0.314   1.695   1.961
11284TIP3    H157831   0.317   1.768   2.026
11284TIP3    H257832   0.412   1.692   1.960
11285TIP3   OH257833   3.098   1.001   2.571
11285TIP3    H157834   3.095   1.099   2.572
11285TIP3    H257835   3.024   0.978   2.513
11286TIP3   OH257836   2.984   0.924   2.924
11286TIP3    H157837   2.979   0.860   2.996
11286TIP3    H257838   2.947   0.875   2.849
11287TIP3   OH257839   2.214   0.896   3.085
11287TIP3    H157840   2.227   0.823   3.149
11287TIP3    H257841   2.293   0.949   3.098
11288TIP3   OH257842   3.348   1.222   2.750
11288TIP3    H157843   3.309   1.151   2.801
11288TIP3    H257844   3.353   1.292   2.819
11289TIP3   OH257845   2.309   1.339   2.926
11289TIP3    H157846   2.280   1.250   2.898
11289TIP3    H257847   2.405   1.322   2.936
11290TIP3   OH257848   1.973   0.693   2.478
11290TIP3    H157849   1.930   0.780   2.471
11290TIP3    H257850   1.917   0.639   2.421
11291TIP3   OH257851   2.046   0.919   2.693
11291TIP3    H157852   2.072   0.835   2.737
11291TIP3    H257853   2.114   0.928   2.625
11292TIP3   OH257854   3.062   1.737   2.781
11292TIP3    H157855   3.127   1.669   2.748
11292TIP3    H257856   3.044   1.699   2.868
11293TIP3   OH257857   2.821   1.168   2.976
11293TIP3    H157858   2.852   1.105   2.909
11293TIP3    H257859   2.904   1.183   3.024
11294TIP3   OH257860   3.683   0.327   3.042
11294TIP3    H157861   3.694   0.390   3.117
11294TIP3    H257862   3.736   0.373   2.976
11295TIP3   OH257863   3.133   0.610   3.005
11295TIP3    H157864   3.153   0.514   3.004
11295TIP3    H257865   3.125   0.626   2.909
11296TIP3   OH257866   2.448   0.423   2.723
11296TIP3    H157867   2.460   0.506   2.673
11296TIP3    H257868   2.408   0.365   2.655
11297TIP3   OH257869   3.219   0.443   2.570
11297TIP3    H157870   3.284   0.396   2.627
11297TIP3    H257871   3.278   0.484   2.506
11298TIP3   OH257872   2.108   0.664   2.795
11298TIP3    H157873   2.175   0.610   2.843
11298TIP3    H257874   2.121   0.631   2.705
11299TIP3   OH257875   2.626   0.818   2.729
11299TIP3    H157876   2.692   0.760   2.769
11299TIP3    H257877   2.575   0.753   2.677
11300TIP3   OH257878   3.714   0.477   3.260
11300TIP3    H157879   3.647   0.549   3.256
11300TIP3    H257880   3.716   0.451   3.355
11301TIP3   OH257881   2.340   0.313   3.122
11301TIP3    H157882   2.309   0.374   3.052
11301TIP3    H257883   2.275   0.334   3.194
11302TIP3   OH257884   3.066   1.259   2.481
11302TIP3    H157885   3.041   1.232   2.392
11302TIP3    H257886   3.036   1.353   2.487
11303TIP3   OH257887   2.591   1.075   3.148
11303TIP3    H157888   2.518   1.138   3.170
11303TIP3    H257889   2.660   1.139   3.123
11304TIP3   OH257890   3.402   0.369   2.762
11304TIP3    H157891   3.379   0.290   2.813
11304TIP3    H257892   3.472   0.407   2.816
11305TIP3   OH257893   2.293   0.505   2.926
11305TIP3    H157894   2.359   0.567   2.963
11305TIP3    H257895   2.346   0.459   2.857
11306TIP3   OH257896   2.429   1.269   3.223
11306TIP3    H157897   2.435   1.366   3.209
11306TIP3    H257898   2.349   1.271   3.281
11307TIP3   OH257899   2.042   1.236   2.311
11307TIP3    H157900   2.019   1.271   2.223
11307TIP3    H257901   2.051   1.318   2.364
11308TIP3   OH257902   3.397   1.403   2.967
11308TIP3    H157903   3.310   1.415   3.009
11308TIP3    H257904   3.430   1.494   2.977
11309TIP3   OH257905   3.437   0.238   3.136
11309TIP3    H157906   3.363   0.297   3.117
11309TIP3    H257907   3.507   0.273   3.077
11310TIP3   OH257908   2.723   0.053   2.844
11310TIP3    H157909   2.729  -0.038   2.878
11310TIP3    H257910   2.650   0.082   2.900
11311TIP3   OH257911   3.227   1.585   2.644
11311TIP3    H157912   3.272   1.511   2.597
11311TIP3    H257913   3.275   1.662   2.608
11312TIP3   OH257914   3.352   1.375   2.499
11312TIP3    H157915   3.320   1.306   2.439
11312TIP3    H257916   3.354   1.327   2.584
11313TIP3   OH257917   2.961   0.926   2.324
11313TIP3    H157918   2.893   0.984   2.286
11313TIP3    H257919   3.034   0.932   2.259
11314TIP3   OH257920   2.971   0.782   2.025
11314TIP3    H157921   3.041   0.780   2.092
11314TIP3    H257922   3.001   0.709   1.970
11315TIP3   OH257923   3.705   0.865   3.156
11315TIP3    H157924   3.639   0.937   3.158
11315TIP3    H257925   3.750   0.889   3.073
11316TIP3   OH257926   3.309   0.944   2.416
11316TIP3    H157927   3.234   0.969   2.476
11316TIP3    H257928   3.356   0.878   2.470
11317TIP3   OH257929   3.294   0.760   3.327
11317TIP3    H157930   3.302   0.839   3.382
11317TIP3    H257931   3.236   0.793   3.257
11318TIP3   OH257932   2.468   1.011   2.609
11318TIP3    H157933   2.436   0.972   2.524
11318TIP3    H257934   2.530   0.942   2.642
11319TIP3   OH257935   2.600   1.350   2.880
11319TIP3    H157936   2.600   1.299   2.798
11319TIP3    H257937   2.679   1.313   2.925
11320TIP3   OH257938   2.499   0.885   2.972
11320TIP3    H157939   2.555   0.895   2.893
11320TIP3    H257940   2.539   0.951   3.034
11321TIP3   OH257941   3.134   1.445   3.044
11321TIP3    H157942   3.125   1.506   3.119
11321TIP3    H257943   3.122   1.359   3.090
11322TIP3   OH257944   3.195   0.867   2.183
11322TIP3    H157945   3.250   0.883   2.263
11322TIP3    H257946   3.241   0.916   2.111
11323TIP3   OH257947   2.285   0.941   3.372
11323TIP3    H157948   2.292   1.017   3.431
11323TIP3    H257949   2.197   0.953   3.333
11324TIP3   OH257950   2.966   1.539   2.527
11324TIP3    H157951   3.008   1.567   2.610
11324TIP3    H257952   2.909   1.613   2.507
11325TIP3   OH257953   3.573   0.044   2.180
11325TIP3    H157954   3.475   0.046   2.191
11325TIP3    H257955   3.590   0.124   2.126
11326TIP3   OH257956   2.363   0.912   2.373
11326TIP3    H157957   2.336   0.990   2.320
11326TIP3    H257958   2.299   0.845   2.346
11327TIP3   OH257959   3.678   1.475   2.007
11327TIP3    H157960   3.695   1.568   2.027
11327TIP3    H257961   3.769   1.441   2.009
11328TIP3   OH257962   1.989   1.148   3.245
11328TIP3    H157963   1.925   1.149   3.171
11328TIP3    H257964   1.968   1.062   3.283
11329TIP3   OH257965   1.950   1.433   2.936
11329TIP3    H157966   2.045   1.416   2.938
11329TIP3    H257967   1.940   1.510   2.993
11330TIP3   OH257968   2.915   1.828   2.371
11330TIP3    H157969   2.903   1.821   2.275
11330TIP3    H257970   2.914   1.924   2.388
11331TIP3   OH257971   2.278   1.716   2.556
11331TIP3    H157972   2.293   1.674   2.643
11331TIP3    H257973   2.193   1.675   2.531
11332TIP3   OH257974   3.220   1.751   2.067
11332TIP3    H157975   3.265   1.673   2.028
11332TIP3    H257976   3.223   1.727   2.163
11333TIP3   OH257977   3.189   1.744   2.347
11333TIP3    H157978   3.093   1.751   2.364
11333TIP3    H257979   3.212   1.669   2.405
11334TIP3   OH257980   2.202   1.285   3.360
11334TIP3    H157981   2.216   1.254   3.450
11334TIP3    H257982   2.114   1.249   3.334
11335TIP3   OH257983   2.472   0.139   2.942
11335TIP3    H157984   2.384   0.138   2.902
11335TIP3    H257985   2.458   0.214   3.003
11336TIP3   OH257986   2.929   0.114   3.289
11336TIP3    H157987   2.976   0.071   3.362
11336TIP3    H257988   2.836   0.094   3.305
11337TIP3   OH257989   3.249   0.481   3.366
11337TIP3    H157990   3.222   0.462   3.459
11337TIP3    H257991   3.252   0.578   3.357
11338TIP3   OH257992   3.340   0.969   1.968
11338TIP3    H157993   3.336   0.949   1.871
11338TIP3    H257994   3.425   1.014   1.970
11339TIP3   OH257995   2.897   0.363   2.015
11339TIP3    H157996   2.871   0.353   2.109
11339TIP3    H257997   2.866   0.276   1.985
11340TIP3   OH257998   2.480   0.633   3.076
11340TIP3    H157999   2.405   0.631   3.139
11340TIP3    H258000   2.476   0.724   3.040
11341TIP3   OH258001   2.477   0.643   2.561
11341TIP3    H158002   2.383   0.619   2.548
11341TIP3    H258003   2.514   0.615   2.475
11342TIP3   OH258004   3.031   0.700   2.440
11342TIP3    H158005   2.990   0.780   2.399
11342TIP3    H258006   3.097   0.675   2.373
11343TIP3   OH258007   3.132   0.646   2.725
11343TIP3    H158008   3.103   0.700   2.649
11343TIP3    H258009   3.143   0.560   2.678
11344TIP3   OH258010   2.239   0.664   3.246
11344TIP3    H158011   2.246   0.699   3.337
11344TIP3    H258012   2.202   0.575   3.264
11345TIP3   OH258013   2.579   0.400   1.929
11345TIP3    H158014   2.534   0.356   2.004
11345TIP3    H258015   2.507   0.442   1.880
11346TIP3   OH258016   1.911   0.375   2.642
11346TIP3    H158017   1.978   0.369   2.713
11346TIP3    H258018   1.954   0.334   2.565
11347TIP3   OH258019   2.035   0.444   2.179
11347TIP3    H158020   2.088   0.501   2.119
11347TIP3    H258021   1.967   0.508   2.208
11348TIP3   OH258022   3.051   0.801   3.182
11348TIP3    H158023   3.088   0.735   3.120
11348TIP3    H258024   3.003   0.745   3.244
11349TIP3   OH258025   2.732   0.407   2.663
11349TIP3    H158026   2.639   0.397   2.690
11349TIP3    H258027   2.782   0.381   2.742
11350TIP3   OH258028   2.213   0.555   2.549
11350TIP3    H158029   2.125   0.569   2.508
11350TIP3    H258030   2.242   0.471   2.508
11351TIP3   OH258031   2.576   0.560   2.312
11351TIP3    H158032   2.673   0.569   2.327
11351TIP3    H258033   2.555   0.628   2.245
11352TIP3   OH258034   3.173   0.335   2.985
11352TIP3    H158035   3.106   0.327   3.056
11352TIP3    H258036   3.128   0.292   2.909
11353TIP3   OH258037   2.449   0.676   2.070
11353TIP3    H158038   2.395   0.639   1.998
11353TIP3    H258039   2.530   0.700   2.021
11354TIP3   OH258040   2.861   0.675   2.850
11354TIP3    H158041   2.921   0.622   2.796
11354TIP3    H258042   2.846   0.618   2.927
11355TIP3   OH258043   2.360   0.290   2.492
11355TIP3    H158044   2.330   0.198   2.495
11355TIP3    H258045   2.440   0.281   2.439
11356TIP3   OH258046   2.725   0.508   3.090
11356TIP3    H158047   2.641   0.560   3.099
11356TIP3    H258048   2.779   0.542   3.163
11357TIP3   OH258049   2.783   1.130   2.262
11357TIP3    H158050   2.703   1.083   2.229
11357TIP3    H258051   2.760   1.144   2.356
11358TIP3   OH258052   3.503   1.036   3.136
11358TIP3    H158053   3.558   1.102   3.089
11358TIP3    H258054   3.416   1.060   3.099
11359TIP3   OH258055   3.167   0.415   2.074
11359TIP3    H158056   3.070   0.428   2.067
11359TIP3    H258057   3.200   0.496   2.117
11360TIP3   OH258058   2.941   1.158   3.381
11360TIP3    H158059   2.904   1.115   3.460
11360TIP3    H258060   2.914   1.249   3.396
11361TIP3   OH258061   3.240   0.606   2.238
11361TIP3    H158062   3.325   0.591   2.284
11361TIP3    H258063   3.252   0.689   2.190
11362TIP3   OH258064   2.294   1.072   2.840
11362TIP3    H158065   2.361   1.062   2.770
11362TIP3    H258066   2.300   0.986   2.886
11363TIP3   OH258067   2.994   1.277   2.167
11363TIP3    H158068   2.958   1.362   2.201
11363TIP3    H258069   2.920   1.216   2.187
11364TIP3   OH258070   3.731   0.619   2.218
11364TIP3    H158071   3.672   0.590   2.146
11364TIP3    H258072   3.735   0.714   2.195
11365TIP3   OH258073   3.554   1.500   2.258
11365TIP3    H158074   3.522   1.417   2.294
11365TIP3    H258075   3.591   1.477   2.171
11366TIP3   OH258076   3.278   0.979   2.967
11366TIP3    H158077   3.184   0.960   2.958
11366TIP3    H258078   3.322   0.903   2.926
11367TIP3   OH258079   2.532   1.416   2.581
11367TIP3    H158080   2.581   1.497   2.560
11367TIP3    H258081   2.444   1.438   2.547
11368TIP3   OH258082   2.109   0.899   2.038
11368TIP3    H158083   2.166   0.966   2.078
11368TIP3    H258084   2.019   0.930   2.062
11369TIP3   OH258085   2.672   1.183   2.531
11369TIP3    H158086   2.640   1.275   2.542
11369TIP3    H258087   2.602   1.132   2.576
11370TIP3   OH258088   2.719   1.603   3.171
11370TIP3    H158089   2.767   1.682   3.145
11370TIP3    H258090   2.777   1.566   3.239
11371TIP3   OH258091   2.542   1.680   2.485
11371TIP3    H158092   2.445   1.695   2.498
11371TIP3    H258093   2.578   1.764   2.518
11372TIP3   OH258094   3.063   1.197   3.134
11372TIP3    H158095   3.039   1.183   3.227
11372TIP3    H258096   3.136   1.134   3.121
11373TIP3   OH258097   3.305   1.309   2.044
11373TIP3    H158098   3.334   1.261   2.124
11373TIP3    H258099   3.210   1.290   2.051
11374TIP3   OH258100   3.755   1.743   2.073
11374TIP3    H158101   3.817   1.813   2.046
11374TIP3    H258102   3.680   1.801   2.097
11375TIP3   OH258103   2.159   0.385   3.312
11375TIP3    H158104   2.068   0.416   3.318
11375TIP3    H258105   2.156   0.306   3.370
11376TIP3   OH258106   3.382   1.171   2.269
11376TIP3    H158107   3.358   1.092   2.321
11376TIP3    H258108   3.477   1.174   2.286
11377TIP3   OH258109   2.122   1.564   3.163
11377TIP3    H158110   2.152   1.471   3.165
11377TIP3    H258111   2.146   1.589   3.254
11378TIP3   OH258112   2.719   1.416   1.895
11378TIP3    H158113   2.726   1.340   1.835
11378TIP3    H258114   2.672   1.372   1.970
11379TIP3   OH258115   2.596   1.368   2.142
11379TIP3    H158116   2.623   1.316   2.218
11379TIP3    H258117   2.604   1.461   2.173
11380TIP3   OH258118   2.249   1.092   2.188
11380TIP3    H158119   2.177   1.133   2.239
11380TIP3    H258120   2.299   1.170   2.157
11381TIP3   OH258121   3.025   0.362   3.224
11381TIP3    H158122   3.105   0.359   3.279
11381TIP3    H258123   2.995   0.269   3.233
11382TIP3   OH258124   3.088   0.351   2.317
11382TIP3    H158125   3.135   0.373   2.236
11382TIP3    H258126   3.156   0.353   2.386
11383TIP3   OH258127   2.874   1.533   2.208
11383TIP3    H158128   2.793   1.587   2.216
11383TIP3    H258129   2.929   1.589   2.151
11384TIP3   OH258130   2.823   0.502   2.410
11384TIP3    H158131   2.908   0.548   2.415
11384TIP3    H258132   2.803   0.476   2.502
11385TIP3   OH258133   2.885   0.600   3.325
11385TIP3    H158134   2.902   0.649   3.405
11385TIP3    H258135   2.945   0.522   3.331
11386TIP3   OH258136   2.890   0.211   2.494
11386TIP3    H158137   2.881   0.273   2.568
11386TIP3    H258138   2.979   0.239   2.460
11387TIP3   OH258139   2.616   1.637   2.212
11387TIP3    H158140   2.624   1.718   2.157
11387TIP3    H258141   2.587   1.674   2.299
11388TIP3   OH258142   2.477   0.309   2.166
11388TIP3    H158143   2.473   0.397   2.207
11388TIP3    H258144   2.568   0.285   2.193
11389TIP3   OH258145   3.507   0.399   3.414
11389TIP3    H158146   3.410   0.408   3.406
11389TIP3    H258147   3.530   0.378   3.322
11390TIP3   OH258148   3.364   0.761   2.812
11390TIP3    H158149   3.281   0.716   2.786
11390TIP3    H258150   3.412   0.693   2.865
11391TIP3   OH258151   2.303   1.353   2.072
11391TIP3    H158152   2.371   1.414   2.104
11391TIP3    H258153   2.354   1.307   2.003
11392TIP3   OH258154   2.136   0.620   1.989
11392TIP3    H158155   2.140   0.716   2.008
11392TIP3    H258156   2.047   0.605   1.956
11393TIP3   OH258157   3.471   1.687   2.981
11393TIP3    H158158   3.461   1.756   2.913
11393TIP3    H258159   3.567   1.693   3.000
11394TIP3   OH258160   2.205   0.124   2.848
11394TIP3    H158161   2.189   0.109   2.752
11394TIP3    H258162   2.183   0.036   2.884
11395TIP3   OH258163   2.115   1.491   2.477
11395TIP3    H158164   2.029   1.535   2.472
11395TIP3    H258165   2.161   1.537   2.406
11396TIP3   OH258166   2.919   1.601   1.906
11396TIP3    H158167   2.848   1.536   1.927
11396TIP3    H258168   2.988   1.538   1.882
11397TIP3   OH258169   3.372   1.574   1.922
11397TIP3    H158170   3.400   1.498   1.976
11397TIP3    H258171   3.452   1.593   1.871
11398TIP3   OH258172   2.463   1.170   1.909
11398TIP3    H158173   2.474   1.091   1.964
11398TIP3    H258174   2.534   1.157   1.843
11399TIP3   OH258175   3.005   1.281   1.883
11399TIP3    H158176   2.977   1.287   1.976
11399TIP3    H258177   2.986   1.185   1.868
11400TIP3   OH258178   2.581   0.970   2.150
11400TIP3    H158179   2.530   0.916   2.212
11400TIP3    H258180   2.612   0.904   2.085
11401TIP3   OH258181   2.690   0.791   1.970
11401TIP3    H158182   2.675   0.784   1.873
11401TIP3    H258183   2.788   0.797   1.976
11402TIP3   OH258184   3.620   1.025   1.910
11402TIP3    H158185   3.602   0.988   1.822
11402TIP3    H258186   3.630   1.122   1.891
11403TIP3   OH258187   2.593   0.319   3.238
11403TIP3    H158188   2.639   0.376   3.171
11403TIP3    H258189   2.500   0.319   3.205
11404TIP3   OH258190   2.751   0.879   3.272
11404TIP3    H158191   2.817   0.857   3.204
11404TIP3    H258192   2.703   0.954   3.231
11405TIP3   OH258193   2.657   0.075   3.305
11405TIP3    H158194   2.654   0.172   3.284
11405TIP3    H258195   2.588   0.046   3.244
11406TIP3   OH258196   2.674   1.866   2.081
11406TIP3    H158197   2.771   1.871   2.082
11406TIP3    H258198   2.657   1.922   2.004
11407TIP3   OH258199   2.027   1.320   2.023
11407TIP3    H158200   2.124   1.329   2.039
11407TIP3    H258201   2.031   1.256   1.947
11408TIP3   OH258202   1.906   1.858   2.520
11408TIP3    H158203   1.833   1.809   2.475
11408TIP3    H258204   1.934   1.793   2.587
11409TIP3   OH258205   1.988   1.671   2.707
11409TIP3    H158206   1.952   1.584   2.729
11409TIP3    H258207   2.012   1.704   2.795
11410TIP3   OH258208   3.740   1.761   2.994
11410TIP3    H158209   3.748   1.765   3.090
11410TIP3    H258210   3.815   1.814   2.968
11411TIP3   OH258211   3.676   1.117   2.305
11411TIP3    H158212   3.762   1.156   2.325
11411TIP3    H258213   3.673   1.046   2.372
11412TIP3   OH258214   3.710   0.925   2.495
11412TIP3    H158215   3.635   0.875   2.535
11412TIP3    H258216   3.771   0.937   2.571
11413TIP3   OH258217   3.684   1.193   2.998
11413TIP3    H158218   3.764   1.155   2.959
11413TIP3    H258219   3.698   1.288   2.979
11414TIP3   OH258220   3.741   0.907   2.134
11414TIP3    H158221   3.684   0.939   2.061
11414TIP3    H258222   3.730   0.978   2.199
11415TIP3   OH258223   3.580   0.629   1.984
11415TIP3    H158224   3.585   0.696   1.915
11415TIP3    H258225   3.559   0.547   1.935
11416TIP3   OH258226   3.493   0.771   2.553
11416TIP3    H158227   3.478   0.676   2.547
11416TIP3    H258228   3.460   0.791   2.643
11417TIP3   OH258229   1.992   0.979   2.957
11417TIP3    H158230   2.011   0.972   2.861
11417TIP3    H258231   2.081   0.962   2.995
11418TIP3   OH258232   3.502   0.379   1.903
11418TIP3    H158233   3.563   0.333   1.963
11418TIP3    H258234   3.417   0.332   1.913
11419TIP3   OH258235   3.457   0.534   2.392
11419TIP3    H158236   3.485   0.441   2.409
11419TIP3    H258237   3.541   0.570   2.362
11420TIP3   OH258238   3.522   0.585   2.938
11420TIP3    H158239   3.619   0.604   2.939
11420TIP3    H258240   3.504   0.594   3.033
11421TIP3   OH258241   3.531   0.661   3.220
11421TIP3    H158242   3.442   0.686   3.255
11421TIP3    H258243   3.573   0.746   3.197
11422TIP3   OH258244   3.526   0.260   2.398
11422TIP3    H158245   3.545   0.217   2.485
11422TIP3    H258246   3.464   0.196   2.359
11423TIP3   OH258247   2.071   0.346   2.858
11423TIP3    H158248   2.117   0.262   2.881
11423TIP3    H258249   2.131   0.410   2.897
11424TIP3   OH258250   1.902   0.637   2.962
11424TIP3    H158251   1.959   0.613   2.886
11424TIP3    H258252   1.949   0.718   2.990
11425TIP3   OH258253   3.714   0.260   2.065
11425TIP3    H158254   3.746   0.189   2.003
11425TIP3    H258255   3.781   0.329   2.061
11426TIP3   OH258256   1.939   0.263   2.372
11426TIP3    H158257   1.846   0.285   2.354
11426TIP3    H258258   1.984   0.312   2.299
11427TIP3   OH258259   3.415   1.760   2.563
11427TIP3    H158260   3.483   1.730   2.501
11427TIP3    H258261   3.466   1.810   2.629
11428TIP3   OH258262   1.943   0.144   3.197
11428TIP3    H158263   1.882   0.116   3.264
11428TIP3    H258264   1.891   0.206   3.142
11429TIP3   OH258265   2.445   1.545   3.227
11429TIP3    H158266   2.416   1.637   3.221
11429TIP3    H258267   2.541   1.558   3.221
11430TIP3   OH258268   3.597   0.098   3.372
11430TIP3    H158269   3.510   0.120   3.338
11430TIP3    H258270   3.604   0.004   3.354
11431TIP3   OH258271   2.435   1.835   3.146
11431TIP3    H158272   2.352   1.848   3.191
11431TIP3    H258273   2.432   1.894   3.069
11432TIP3   OH258274   2.909   1.826   3.065
11432TIP3    H158275   2.861   1.879   2.999
11432TIP3    H258276   2.915   1.887   3.139
11433TIP3   OH258277   3.129   1.713   3.172
11433TIP3    H158278   3.051   1.735   3.121
11433TIP3    H258279   3.189   1.787   3.154
11434TIP3   OH258280   3.396   1.867   3.191
11434TIP3    H158281   3.396   1.961   3.163
11434TIP3    H258282   3.419   1.820   3.108
11435TIP3   OH258283   2.142   1.741   2.938
11435TIP3    H158284   2.131   1.688   3.020
11435TIP3    H258285   2.221   1.700   2.897
11436TIP3   OH258286   2.344   1.611   2.803
11436TIP3    H158287   2.329   1.517   2.825
11436TIP3    H258288   2.431   1.626   2.847
11437TIP3   OH258289   2.600   1.658   2.890
11437TIP3    H158290   2.619   1.567   2.863
11437TIP3    H258291   2.610   1.652   2.987
11438TIP3   OH258292   2.945   0.229   2.801
11438TIP3    H158293   2.885   0.159   2.828
11438TIP3    H258294   3.007   0.178   2.748
11439TIP3   OH258295   3.471   0.059   2.825
11439TIP3    H158296   3.526   0.096   2.753
11439TIP3    H258297   3.380   0.060   2.788
11440TIP3   OH258298   3.636   0.159   2.636
11440TIP3    H158299   3.696   0.096   2.594
11440TIP3    H258300   3.686   0.242   2.647
11441TIP3   OH258301   2.183   0.084   2.588
11441TIP3    H158302   2.105   0.070   2.532
11441TIP3    H258303   2.231   0.001   2.578
11442TIP3   OH258304   2.091   0.106   2.173
11442TIP3    H158305   2.111   0.157   2.093
11442TIP3    H258306   2.003   0.137   2.201
11443TIP3   OH258307   2.630   0.091   2.568
11443TIP3    H158308   2.723   0.119   2.554
11443TIP3    H258309   2.640   0.058   2.658
11444TIP3   OH258310   3.209   0.066   2.764
11444TIP3    H158311   3.209   0.096   2.670
11444TIP3    H258312   3.166  -0.019   2.748
11445TIP3   OH258313   3.315   0.084   2.237
11445TIP3    H158314   3.259   0.152   2.281
11445TIP3    H258315   3.302   0.023   2.313
11446TIP3   OH258316   2.055   1.656   2.264
11446TIP3    H158317   1.991   1.654   2.191
11446TIP3    H258318   2.055   1.752   2.280
11447TIP3   OH258319   2.244   0.259   2.007
11447TIP3    H158320   2.298   0.197   1.955
11447TIP3    H258321   2.310   0.284   2.075
11448TIP3   OH258322   2.743   0.284   2.252
11448TIP3    H158323   2.778   0.225   2.322
11448TIP3    H258324   2.760   0.369   2.298
11449TIP3   OH258325   2.943   1.788   2.097
11449TIP3    H158326   3.035   1.809   2.076
11449TIP3    H258327   2.921   1.735   2.017
11450TIP3   OH258328   3.618   1.735   2.367
11450TIP3    H158329   3.594   1.658   2.311
11450TIP3    H258330   3.606   1.810   2.305
11451TIP3   OH258331   2.235   1.759   1.959
11451TIP3    H158332   2.209   1.781   2.049
11451TIP3    H258333   2.311   1.699   1.970
11452TIP3   OH258334   4.984   1.001   2.571
11452TIP3    H158335   4.980   1.099   2.573
11452TIP3    H258336   4.909   0.978   2.513
11453TIP3   OH258337   4.871   0.924   2.925
11453TIP3    H158338   4.864   0.860   2.998
11453TIP3    H258339   4.833   0.874   2.851
11454TIP3   OH258340   4.101   0.894   3.085
11454TIP3    H158341   4.116   0.820   3.148
11454TIP3    H258342   4.179   0.950   3.099
11455TIP3   OH258343   5.233   1.223   2.750
11455TIP3    H158344   5.196   1.150   2.801
11455TIP3    H258345   5.239   1.291   2.820
11456TIP3   OH258346   4.197   1.339   2.921
11456TIP3    H158347   4.165   1.250   2.897
11456TIP3    H258348   4.292   1.320   2.933
11457TIP3   OH258349   3.858   0.694   2.479
11457TIP3    H158350   3.816   0.781   2.471
11457TIP3    H258351   3.801   0.639   2.424
11458TIP3   OH258352   3.931   0.919   2.693
11458TIP3    H158353   3.958   0.835   2.737
11458TIP3    H258354   3.999   0.928   2.625
11459TIP3   OH258355   4.945   1.735   2.777
11459TIP3    H158356   5.012   1.669   2.747
11459TIP3    H258357   4.928   1.702   2.866
11460TIP3   OH258358   4.706   1.168   2.976
11460TIP3    H158359   4.736   1.107   2.907
11460TIP3    H258360   4.790   1.181   3.023
11461TIP3   OH258361   5.572   0.328   3.048
11461TIP3    H158362   5.579   0.393   3.120
11461TIP3    H258363   5.619   0.374   2.977
11462TIP3   OH258364   5.016   0.609   3.004
11462TIP3    H158365   5.040   0.515   3.004
11462TIP3    H258366   5.011   0.625   2.908
11463TIP3   OH258367   4.334   0.422   2.723
11463TIP3    H158368   4.346   0.507   2.674
11463TIP3    H258369   4.293   0.366   2.655
11464TIP3   OH258370   5.106   0.430   2.561
11464TIP3    H158371   5.170   0.399   2.628
11464TIP3    H258372   5.163   0.487   2.508
11465TIP3   OH258373   3.994   0.664   2.796
11465TIP3    H158374   4.061   0.610   2.842
11465TIP3    H258375   4.006   0.632   2.705
11466TIP3   OH258376   4.511   0.818   2.730
11466TIP3    H158377   4.579   0.760   2.769
11466TIP3    H258378   4.460   0.753   2.679
11467TIP3   OH258379   4.218   0.309   3.123
11467TIP3    H158380   4.192   0.374   3.054
11467TIP3    H258381   4.158   0.332   3.196
11468TIP3   OH258382   4.952   1.259   2.481
11468TIP3    H158383   4.926   1.232   2.392
11468TIP3    H258384   4.923   1.352   2.487
11469TIP3   OH258385   4.472   1.080   3.141
11469TIP3    H158386   4.402   1.143   3.169
11469TIP3    H258387   4.546   1.137   3.115
11470TIP3   OH258388   5.286   0.367   2.759
11470TIP3    H158389   5.265   0.290   2.814
11470TIP3    H258390   5.356   0.409   2.812
11471TIP3   OH258391   4.179   0.502   2.928
11471TIP3    H158392   4.245   0.568   2.961
11471TIP3    H258393   4.232   0.458   2.857
11472TIP3   OH258394   4.314   1.274   3.234
11472TIP3    H158395   4.313   1.368   3.204
11472TIP3    H258396   4.231   1.273   3.282
11473TIP3   OH258397   3.932   1.237   2.311
11473TIP3    H158398   3.899   1.269   2.226
11473TIP3    H258399   3.932   1.317   2.366
11474TIP3   OH258400   5.287   1.404   2.979
11474TIP3    H158401   5.193   1.418   3.001
11474TIP3    H258402   5.316   1.497   2.971
11475TIP3   OH258403   5.318   0.236   3.134
11475TIP3    H158404   5.248   0.300   3.118
11475TIP3    H258405   5.393   0.272   3.082
11476TIP3   OH258406   4.609   0.055   2.837
11476TIP3    H158407   4.619  -0.034   2.875
11476TIP3    H258408   4.539   0.084   2.898
11477TIP3   OH258409   5.114   1.583   2.646
11477TIP3    H158410   5.158   1.511   2.596
11477TIP3    H258411   5.161   1.661   2.610
11478TIP3   OH258412   5.238   1.375   2.498
11478TIP3    H158413   5.206   1.306   2.439
11478TIP3    H258414   5.240   1.327   2.583
11479TIP3   OH258415   4.848   0.923   2.325
11479TIP3    H158416   4.779   0.981   2.289
11479TIP3    H258417   4.920   0.934   2.260
11480TIP3   OH258418   4.856   0.782   2.024
11480TIP3    H158419   4.924   0.780   2.093
11480TIP3    H258420   4.887   0.709   1.969
11481TIP3   OH258421   5.587   0.867   3.149
11481TIP3    H158422   5.520   0.939   3.159
11481TIP3    H258423   5.637   0.894   3.072
11482TIP3   OH258424   5.193   0.943   2.417
11482TIP3    H158425   5.119   0.969   2.476
11482TIP3    H258426   5.241   0.877   2.470
11483TIP3   OH258427   5.181   0.774   3.307
11483TIP3    H158428   5.184   0.844   3.373
11483TIP3    H258429   5.106   0.801   3.251
11484TIP3   OH258430   4.353   1.011   2.608
11484TIP3    H158431   4.322   0.971   2.523
11484TIP3    H258432   4.415   0.942   2.642
11485TIP3   OH258433   4.487   1.350   2.879
11485TIP3    H158434   4.485   1.297   2.798
11485TIP3    H258435   4.565   1.314   2.923
11486TIP3   OH258436   4.384   0.887   2.971
11486TIP3    H158437   4.441   0.896   2.892
11486TIP3    H258438   4.425   0.950   3.034
11487TIP3   OH258439   5.028   1.443   3.048
11487TIP3    H158440   5.002   1.508   3.114
11487TIP3    H258441   5.003   1.357   3.089
11488TIP3   OH258442   5.081   0.866   2.183
11488TIP3    H158443   5.136   0.883   2.263
11488TIP3    H258444   5.127   0.916   2.111
11489TIP3   OH258445   4.169   0.937   3.371
11489TIP3    H158446   4.178   1.010   3.433
11489TIP3    H258447   4.087   0.959   3.329
11490TIP3   OH258448   4.852   1.538   2.530
11490TIP3    H158449   4.895   1.568   2.612
11490TIP3    H258450   4.796   1.613   2.507
11491TIP3   OH258451   5.455   0.046   2.184
11491TIP3    H158452   5.358   0.052   2.192
11491TIP3    H258453   5.476   0.122   2.125
11492TIP3   OH258454   4.253   0.911   2.366
11492TIP3    H158455   4.222   0.992   2.322
11492TIP3    H258456   4.182   0.848   2.349
11493TIP3   OH258457   5.562   1.474   2.004
11493TIP3    H158458   5.581   1.567   2.025
11493TIP3    H258459   5.654   1.441   2.009
11494TIP3   OH258460   3.872   1.152   3.247
11494TIP3    H158461   3.811   1.153   3.171
11494TIP3    H258462   3.854   1.065   3.281
11495TIP3   OH258463   3.837   1.435   2.930
11495TIP3    H158464   3.931   1.415   2.942
11495TIP3    H258465   3.822   1.505   2.994
11496TIP3   OH258466   4.800   1.828   2.371
11496TIP3    H158467   4.789   1.821   2.275
11496TIP3    H258468   4.800   1.924   2.388
11497TIP3   OH258469   4.161   1.712   2.556
11497TIP3    H158470   4.178   1.678   2.648
11497TIP3    H258471   4.070   1.676   2.547
11498TIP3   OH258472   5.103   1.751   2.070
11498TIP3    H158473   5.151   1.676   2.028
11498TIP3    H258474   5.108   1.725   2.165
11499TIP3   OH258475   5.073   1.743   2.347
11499TIP3    H158476   4.978   1.751   2.365
11499TIP3    H258477   5.097   1.669   2.405
11500TIP3   OH258478   4.356   0.138   2.944
11500TIP3    H158479   4.268   0.137   2.903
11500TIP3    H258480   4.347   0.216   3.001
11501TIP3   OH258481   4.825   0.107   3.291
11501TIP3    H158482   4.854   0.065   3.371
11501TIP3    H258483   4.726   0.098   3.295
11502TIP3   OH258484   5.223   0.973   1.966
11502TIP3    H158485   5.222   0.949   1.871
11502TIP3    H258486   5.312   1.012   1.971
11503TIP3   OH258487   4.784   0.362   2.017
11503TIP3    H158488   4.756   0.352   2.109
11503TIP3    H258489   4.754   0.275   1.986
11504TIP3   OH258490   4.364   0.635   3.067
11504TIP3    H158491   4.300   0.631   3.141
11504TIP3    H258492   4.362   0.729   3.038
11505TIP3   OH258493   4.362   0.643   2.561
11505TIP3    H158494   4.268   0.619   2.549
11505TIP3    H258495   4.400   0.615   2.476
11506TIP3   OH258496   4.915   0.695   2.438
11506TIP3    H158497   4.877   0.778   2.401
11506TIP3    H258498   4.984   0.677   2.372
11507TIP3   OH258499   5.019   0.645   2.723
11507TIP3    H158500   4.989   0.701   2.649
11507TIP3    H258501   5.027   0.559   2.676
11508TIP3   OH258502   4.136   0.668   3.234
11508TIP3    H158503   4.146   0.700   3.326
11508TIP3    H258504   4.093   0.583   3.252
11509TIP3   OH258505   4.464   0.406   1.932
11509TIP3    H158506   4.424   0.350   2.002
11509TIP3    H258507   4.396   0.431   1.869
11510TIP3   OH258508   3.797   0.376   2.641
11510TIP3    H158509   3.863   0.369   2.713
11510TIP3    H258510   3.840   0.334   2.565
11511TIP3   OH258511   3.924   0.446   2.180
11511TIP3    H158512   3.966   0.508   2.119
11511TIP3    H258513   3.850   0.505   2.210
11512TIP3   OH258514   4.937   0.801   3.182
11512TIP3    H158515   4.975   0.734   3.121
11512TIP3    H258516   4.886   0.743   3.242
11513TIP3   OH258517   4.619   0.403   2.664
11513TIP3    H158518   4.525   0.397   2.691
11513TIP3    H258519   4.666   0.381   2.745
11514TIP3   OH258520   4.101   0.556   2.545
11514TIP3    H158521   4.010   0.568   2.510
11514TIP3    H258522   4.126   0.469   2.510
11515TIP3   OH258523   4.461   0.560   2.310
11515TIP3    H158524   4.557   0.568   2.328
11515TIP3    H258525   4.442   0.633   2.248
11516TIP3   OH258526   5.061   0.324   2.987
11516TIP3    H158527   4.991   0.328   3.055
11516TIP3    H258528   5.013   0.292   2.910
11517TIP3   OH258529   4.342   0.681   2.068
11517TIP3    H158530   4.291   0.678   1.986
11517TIP3    H258531   4.428   0.707   2.028
11518TIP3   OH258532   4.745   0.675   2.851
11518TIP3    H158533   4.806   0.622   2.799
11518TIP3    H258534   4.732   0.620   2.930
11519TIP3   OH258535   4.243   0.291   2.487
11519TIP3    H158536   4.215   0.198   2.497
11519TIP3    H258537   4.327   0.279   2.441
11520TIP3   OH258538   4.613   0.511   3.091
11520TIP3    H158539   4.530   0.562   3.100
11520TIP3    H258540   4.665   0.541   3.167
11521TIP3   OH258541   4.669   1.131   2.262
11521TIP3    H158542   4.589   1.084   2.229
11521TIP3    H258543   4.646   1.143   2.356
11522TIP3   OH258544   5.388   1.044   3.141
11522TIP3    H158545   5.445   1.100   3.086
11522TIP3    H258546   5.303   1.055   3.097
11523TIP3   OH258547   5.049   0.410   2.081
11523TIP3    H158548   4.955   0.429   2.064
11523TIP3    H258549   5.086   0.495   2.114
11524TIP3   OH258550   5.125   0.603   2.241
11524TIP3    H158551   5.212   0.591   2.283
11524TIP3    H258552   5.136   0.685   2.190
11525TIP3   OH258553   4.179   1.071   2.841
11525TIP3    H158554   4.248   1.062   2.773
11525TIP3    H258555   4.185   0.985   2.886
11526TIP3   OH258556   4.878   1.277   2.164
11526TIP3    H158557   4.845   1.361   2.201
11526TIP3    H258558   4.805   1.215   2.188
11527TIP3   OH258559   5.614   0.620   2.220
11527TIP3    H158560   5.560   0.589   2.145
11527TIP3    H258561   5.622   0.714   2.195
11528TIP3   OH258562   5.440   1.500   2.258
11528TIP3    H158563   5.408   1.417   2.294
11528TIP3    H258564   5.475   1.477   2.170
11529TIP3   OH258565   5.165   0.985   2.969
11529TIP3    H158566   5.071   0.961   2.961
11529TIP3    H258567   5.208   0.907   2.931
11530TIP3   OH258568   4.418   1.415   2.579
11530TIP3    H158569   4.469   1.496   2.562
11530TIP3    H258570   4.329   1.437   2.550
11531TIP3   OH258571   3.995   0.896   2.041
11531TIP3    H158572   4.051   0.967   2.079
11531TIP3    H258573   3.905   0.929   2.060
11532TIP3   OH258574   4.559   1.182   2.531
11532TIP3    H158575   4.528   1.273   2.542
11532TIP3    H258576   4.488   1.132   2.576
11533TIP3   OH258577   4.609   1.597   3.166
11533TIP3    H158578   4.648   1.683   3.146
11533TIP3    H258579   4.660   1.573   3.243
11534TIP3   OH258580   4.419   1.686   2.478
11534TIP3    H158581   4.332   1.697   2.520
11534TIP3    H258582   4.468   1.761   2.518
11535TIP3   OH258583   4.952   1.199   3.135
11535TIP3    H158584   4.931   1.181   3.227
11535TIP3    H258585   5.022   1.134   3.119
11536TIP3   OH258586   5.191   1.308   2.042
11536TIP3    H158587   5.220   1.261   2.123
11536TIP3    H258588   5.096   1.289   2.052
11537TIP3   OH258589   5.636   1.743   2.070
11537TIP3    H158590   5.704   1.810   2.049
11537TIP3    H258591   5.565   1.804   2.098
11538TIP3   OH258592   5.267   1.172   2.268
11538TIP3    H158593   5.243   1.092   2.321
11538TIP3    H258594   5.363   1.175   2.285
11539TIP3   OH258595   4.597   1.417   1.892
11539TIP3    H158596   4.614   1.340   1.834
11539TIP3    H258597   4.561   1.369   1.970
11540TIP3   OH258598   4.472   1.370   2.143
11540TIP3    H158599   4.513   1.313   2.212
11540TIP3    H258600   4.494   1.460   2.173
11541TIP3   OH258601   4.132   1.092   2.182
11541TIP3    H158602   4.062   1.128   2.241
11541TIP3    H258603   4.187   1.167   2.160
11542TIP3   OH258604   4.912   0.362   3.223
11542TIP3    H158605   4.990   0.358   3.277
11542TIP3    H258606   4.873   0.272   3.233
11543TIP3   OH258607   5.000   0.312   2.331
11543TIP3    H158608   5.013   0.363   2.248
11543TIP3    H258609   5.048   0.369   2.394
11544TIP3   OH258610   4.757   1.533   2.208
11544TIP3    H158611   4.680   1.590   2.220
11544TIP3    H258612   4.814   1.589   2.152
11545TIP3   OH258613   4.715   0.492   2.411
11545TIP3    H158614   4.792   0.552   2.416
11545TIP3    H258615   4.686   0.481   2.504
11546TIP3   OH258616   4.789   0.609   3.317
11546TIP3    H158617   4.767   0.647   3.403
11546TIP3    H258618   4.822   0.519   3.336
11547TIP3   OH258619   4.803   0.200   2.503
11547TIP3    H158620   4.767   0.268   2.562
11547TIP3    H258621   4.869   0.254   2.455
11548TIP3   OH258622   4.483   1.640   2.211
11548TIP3    H158623   4.517   1.717   2.157
11548TIP3    H258624   4.486   1.675   2.302
11549TIP3   OH258625   4.361   0.315   2.165
11549TIP3    H158626   4.365   0.397   2.218
11549TIP3    H258627   4.451   0.283   2.192
11550TIP3   OH258628   5.249   0.762   2.809
11550TIP3    H158629   5.165   0.717   2.787
11550TIP3    H258630   5.298   0.695   2.863
11551TIP3   OH258631   4.190   1.369   2.061
11551TIP3    H158632   4.265   1.405   2.111
11551TIP3    H258633   4.239   1.300   2.009
11552TIP3   OH258634   4.025   0.622   1.988
11552TIP3    H158635   4.022   0.719   2.008
11552TIP3    H258636   3.935   0.605   1.957
11553TIP3   OH258637   5.353   1.685   2.974
11553TIP3    H158638   5.346   1.758   2.912
11553TIP3    H258639   5.447   1.693   3.001
11554TIP3   OH258640   4.093   0.125   2.849
11554TIP3    H158641   4.076   0.111   2.752
11554TIP3    H258642   4.070   0.036   2.883
11555TIP3   OH258643   4.000   1.497   2.482
11555TIP3    H158644   3.911   1.532   2.476
11555TIP3    H258645   4.036   1.533   2.402
11556TIP3   OH258646   4.802   1.601   1.906
11556TIP3    H158647   4.734   1.534   1.929
11556TIP3    H258648   4.873   1.541   1.883
11557TIP3   OH258649   5.256   1.571   1.920
11557TIP3    H158650   5.287   1.499   1.977
11557TIP3    H258651   5.336   1.598   1.873
11558TIP3   OH258652   4.346   1.172   1.906
11558TIP3    H158653   4.359   1.094   1.964
11558TIP3    H258654   4.421   1.156   1.846
11559TIP3   OH258655   4.892   1.281   1.883
11559TIP3    H158656   4.861   1.288   1.976
11559TIP3    H258657   4.871   1.185   1.869
11560TIP3   OH258658   4.466   0.971   2.150
11560TIP3    H158659   4.416   0.916   2.213
11560TIP3    H258660   4.499   0.905   2.085
11561TIP3   OH258661   4.390   0.747   3.370
11561TIP3    H158662   4.336   0.818   3.408
11561TIP3    H258663   4.436   0.787   3.296
11562TIP3   OH258664   4.574   0.789   1.969
11562TIP3    H158665   4.562   0.786   1.872
11562TIP3    H258666   4.672   0.798   1.977
11563TIP3   OH258667   5.504   1.025   1.910
11563TIP3    H158668   5.489   0.986   1.822
11563TIP3    H258669   5.518   1.120   1.892
11564TIP3   OH258670   4.459   0.355   3.242
11564TIP3    H158671   4.526   0.377   3.174
11564TIP3    H258672   4.383   0.320   3.192
11565TIP3   OH258673   4.565   0.131   3.212
11565TIP3    H158674   4.538   0.205   3.273
11565TIP3    H258675   4.506   0.060   3.247
11566TIP3   OH258676   4.556   1.860   2.076
11566TIP3    H158677   4.653   1.871   2.085
11566TIP3    H258678   4.545   1.923   2.003
11567TIP3   OH258679   3.915   1.325   2.021
11567TIP3    H158680   4.010   1.324   2.043
11567TIP3    H258681   3.914   1.255   1.951
11568TIP3   OH258682   3.795   1.855   2.517
11568TIP3    H158683   3.718   1.810   2.475
11568TIP3    H258684   3.816   1.794   2.589
11569TIP3   OH258685   3.879   1.670   2.705
11569TIP3    H158686   3.837   1.586   2.729
11569TIP3    H258687   3.896   1.706   2.794
11570TIP3   OH258688   5.626   1.755   3.001
11570TIP3    H158689   5.629   1.763   3.099
11570TIP3    H258690   5.701   1.808   2.972
11571TIP3   OH258691   5.592   1.710   3.289
11571TIP3    H158692   5.537   1.634   3.257
11571TIP3    H258693   5.635   1.669   3.364
11572TIP3   OH258694   5.561   1.117   2.305
11572TIP3    H158695   5.648   1.155   2.324
11572TIP3    H258696   5.558   1.045   2.372
11573TIP3   OH258697   5.596   0.925   2.495
11573TIP3    H158698   5.521   0.875   2.535
11573TIP3    H258699   5.656   0.936   2.571
11574TIP3   OH258700   5.569   1.192   2.987
11574TIP3    H158701   5.653   1.154   2.957
11574TIP3    H258702   5.584   1.288   2.978
11575TIP3   OH258703   5.428   1.493   3.219
11575TIP3    H158704   5.359   1.511   3.285
11575TIP3    H258705   5.376   1.440   3.156
11576TIP3   OH258706   5.627   0.906   2.133
11576TIP3    H158707   5.569   0.939   2.061
11576TIP3    H258708   5.616   0.977   2.199
11577TIP3   OH258709   5.464   0.630   1.983
11577TIP3    H158710   5.472   0.695   1.913
11577TIP3    H258711   5.444   0.547   1.934
11578TIP3   OH258712   5.378   0.771   2.554
11578TIP3    H158713   5.364   0.676   2.547
11578TIP3    H258714   5.346   0.791   2.644
11579TIP3   OH258715   3.878   0.978   2.958
11579TIP3    H158716   3.896   0.972   2.862
11579TIP3    H258717   3.967   0.964   2.994
11580TIP3   OH258718   5.387   0.380   1.903
11580TIP3    H158719   5.449   0.333   1.962
11580TIP3    H258720   5.303   0.332   1.913
11581TIP3   OH258721   5.342   0.533   2.393
11581TIP3    H158722   5.373   0.440   2.409
11581TIP3    H258723   5.426   0.571   2.363
11582TIP3   OH258724   5.408   0.586   2.937
11582TIP3    H158725   5.505   0.606   2.941
11582TIP3    H258726   5.390   0.596   3.033
11583TIP3   OH258727   5.409   0.660   3.201
11583TIP3    H158728   5.331   0.685   3.256
11583TIP3    H258729   5.466   0.740   3.204
11584TIP3   OH258730   5.407   0.262   2.401
11584TIP3    H158731   5.432   0.217   2.485
11584TIP3    H258732   5.351   0.195   2.357
11585TIP3   OH258733   3.956   0.345   2.860
11585TIP3    H158734   4.002   0.261   2.882
11585TIP3    H258735   4.017   0.410   2.897
11586TIP3   OH258736   3.790   0.638   2.962
11586TIP3    H158737   3.845   0.614   2.884
11586TIP3    H258738   3.835   0.720   2.987
11587TIP3   OH258739   5.597   0.260   2.064
11587TIP3    H158740   5.633   0.190   2.004
11587TIP3    H258741   5.666   0.328   2.062
11588TIP3   OH258742   3.825   0.263   2.371
11588TIP3    H158743   3.731   0.283   2.355
11588TIP3    H258744   3.868   0.312   2.299
11589TIP3   OH258745   5.299   1.760   2.562
11589TIP3    H158746   5.368   1.730   2.501
11589TIP3    H258747   5.351   1.809   2.628
11590TIP3   OH258748   3.828   0.145   3.193
11590TIP3    H158749   3.767   0.123   3.264
11590TIP3    H258750   3.775   0.208   3.141
11591TIP3   OH258751   4.333   1.546   3.231
11591TIP3    H158752   4.299   1.636   3.221
11591TIP3    H258753   4.427   1.563   3.218
11592TIP3   OH258754   5.471   0.091   3.381
11592TIP3    H158755   5.395   0.122   3.333
11592TIP3    H258756   5.492   0.004   3.346
11593TIP3   OH258757   4.070   1.867   3.239
11593TIP3    H158758   4.002   1.929   3.208
11593TIP3    H258759   4.049   1.858   3.334
11594TIP3   OH258760   4.322   1.835   3.138
11594TIP3    H158761   4.241   1.847   3.194
11594TIP3    H258762   4.315   1.900   3.068
11595TIP3   OH258763   4.797   1.825   3.066
11595TIP3    H158764   4.749   1.878   3.000
11595TIP3    H258765   4.803   1.889   3.140
11596TIP3   OH258766   5.024   1.708   3.166
11596TIP3    H158767   4.937   1.729   3.131
11596TIP3    H258768   5.069   1.791   3.152
11597TIP3   OH258769   4.025   1.740   2.934
11597TIP3    H158770   4.017   1.699   3.022
11597TIP3    H258771   4.106   1.700   2.899
11598TIP3   OH258772   4.233   1.610   2.797
11598TIP3    H158773   4.215   1.518   2.825
11598TIP3    H258774   4.315   1.626   2.849
11599TIP3   OH258775   4.491   1.658   2.888
11599TIP3    H158776   4.506   1.565   2.864
11599TIP3    H258777   4.495   1.653   2.985
11600TIP3   OH258778   4.832   0.231   2.799
11600TIP3    H158779   4.770   0.163   2.829
11600TIP3    H258780   4.894   0.175   2.750
11601TIP3   OH258781   5.354   0.056   2.824
11601TIP3    H158782   5.413   0.094   2.755
11601TIP3    H258783   5.264   0.063   2.786
11602TIP3   OH258784   5.518   0.159   2.632
11602TIP3    H158785   5.582   0.097   2.596
11602TIP3    H258786   5.570   0.241   2.648
11603TIP3   OH258787   4.068   0.083   2.587
11603TIP3    H158788   3.991   0.070   2.531
11603TIP3    H258789   4.117   0.000   2.579
11604TIP3   OH258790   3.979   0.110   2.173
11604TIP3    H158791   3.992   0.155   2.089
11604TIP3    H258792   3.889   0.134   2.201
11605TIP3   OH258793   4.515   0.091   2.567
11605TIP3    H158794   4.608   0.117   2.557
11605TIP3    H258795   4.522   0.058   2.658
11606TIP3   OH258796   5.090   0.083   2.732
11606TIP3    H158797   5.087   0.090   2.635
11606TIP3    H258798   5.057  -0.008   2.743
11607TIP3   OH258799   5.199   0.097   2.263
11607TIP3    H158800   5.128   0.159   2.280
11607TIP3    H258801   5.178   0.018   2.314
11608TIP3   OH258802   3.954   1.661   2.259
11608TIP3    H158803   3.875   1.652   2.200
11608TIP3    H258804   3.934   1.754   2.281
11609TIP3   OH258805   4.143   0.275   2.003
11609TIP3    H158806   4.180   0.197   1.957
11609TIP3    H258807   4.198   0.270   2.084
11610TIP3   OH258808   4.628   0.285   2.252
11610TIP3    H158809   4.661   0.224   2.320
11610TIP3    H258810   4.645   0.370   2.298
11611TIP3   OH258811   4.829   1.788   2.096
11611TIP3    H158812   4.921   1.809   2.074
11611TIP3    H258813   4.807   1.735   2.016
11612TIP3   OH258814   5.497   1.737   2.369
11612TIP3    H158815   5.479   1.659   2.312
11612TIP3    H258816   5.491   1.811   2.304
11613TIP3   OH258817   4.120   1.743   1.962
11613TIP3    H158818   4.087   1.790   2.041
11613TIP3    H258819   4.210   1.718   1.989
11614TIP3   OH258820   6.868   1.001   2.573
11614TIP3    H158821   6.865   1.099   2.570
11614TIP3    H258822   6.795   0.977   2.514
11615TIP3   OH258823   6.753   0.927   2.925
11615TIP3    H158824   6.751   0.861   2.996
11615TIP3    H258825   6.720   0.876   2.849
11616TIP3   OH258826   5.990   0.891   3.082
11616TIP3    H158827   5.993   0.830   3.157
11616TIP3    H258828   6.063   0.951   3.103
11617TIP3   OH258829   7.128   1.219   2.754
11617TIP3    H158830   7.076   1.151   2.798
11617TIP3    H258831   7.123   1.293   2.817
11618TIP3   OH258832   6.080   1.339   2.925
11618TIP3    H158833   6.050   1.250   2.896
11618TIP3    H258834   6.176   1.322   2.933
11619TIP3   OH258835   5.744   0.693   2.478
11619TIP3    H158836   5.701   0.780   2.471
11619TIP3    H258837   5.688   0.639   2.421
11620TIP3   OH258838   5.816   0.919   2.693
11620TIP3    H158839   5.843   0.835   2.736
11620TIP3    H258840   5.885   0.928   2.625
11621TIP3   OH258841   6.851   1.736   2.784
11621TIP3    H158842   6.902   1.660   2.749
11621TIP3    H258843   6.807   1.703   2.862
11622TIP3   OH258844   6.593   1.167   2.976
11622TIP3    H158845   6.620   1.104   2.906
11622TIP3    H258846   6.676   1.178   3.020
11623TIP3   OH258847   7.460   0.327   3.049
11623TIP3    H158848   7.462   0.397   3.115
11623TIP3    H258849   7.506   0.371   2.976
11624TIP3   OH258850   6.901   0.607   3.005
11624TIP3    H158851   6.930   0.514   2.999
11624TIP3    H258852   6.896   0.629   2.910
11625TIP3   OH258853   6.220   0.423   2.723
11625TIP3    H158854   6.231   0.507   2.673
11625TIP3    H258855   6.179   0.366   2.655
11626TIP3   OH258856   6.999   0.469   2.581
11626TIP3    H158857   7.053   0.400   2.625
11626TIP3    H258858   7.052   0.483   2.502
11627TIP3   OH258859   5.880   0.663   2.797
11627TIP3    H158860   5.949   0.609   2.841
11627TIP3    H258861   5.891   0.632   2.705
11628TIP3   OH258862   6.397   0.818   2.729
11628TIP3    H158863   6.464   0.760   2.769
11628TIP3    H258864   6.346   0.753   2.677
11629TIP3   OH258865   6.110   0.317   3.118
11629TIP3    H158866   6.080   0.379   3.050
11629TIP3    H258867   6.047   0.334   3.191
11630TIP3   OH258868   6.838   1.258   2.482
11630TIP3    H158869   6.813   1.232   2.393
11630TIP3    H258870   6.808   1.352   2.487
11631TIP3   OH258871   6.366   1.079   3.152
11631TIP3    H158872   6.290   1.139   3.172
11631TIP3    H258873   6.430   1.142   3.116
11632TIP3   OH258874   7.173   0.367   2.767
11632TIP3    H158875   7.151   0.288   2.817
11632TIP3    H258876   7.244   0.407   2.818
11633TIP3   OH258877   6.063   0.504   2.925
11633TIP3    H158878   6.129   0.566   2.963
11633TIP3    H258879   6.118   0.458   2.856
11634TIP3   OH258880   6.210   1.276   3.234
11634TIP3    H158881   6.201   1.367   3.200
11634TIP3    H258882   6.119   1.269   3.273
11635TIP3   OH258883   5.814   1.236   2.312
11635TIP3    H158884   5.789   1.272   2.225
11635TIP3    H258885   5.822   1.318   2.365
11636TIP3   OH258886   7.174   1.404   2.986
11636TIP3    H158887   7.078   1.419   2.997
11636TIP3    H258888   7.202   1.496   2.968
11637TIP3   OH258889   7.196   0.244   3.133
11637TIP3    H158890   7.127   0.307   3.113
11637TIP3    H258891   7.273   0.270   3.078
11638TIP3   OH258892   6.499   0.055   2.843
11638TIP3    H158893   6.503  -0.036   2.875
11638TIP3    H258894   6.422   0.082   2.897
11639TIP3   OH258895   7.004   1.580   2.648
11639TIP3    H158896   7.044   1.511   2.593
11639TIP3    H258897   7.042   1.662   2.610
11640TIP3   OH258898   7.122   1.375   2.499
11640TIP3    H158899   7.092   1.306   2.439
11640TIP3    H258900   7.126   1.326   2.583
11641TIP3   OH258901   7.278   1.231   3.350
11641TIP3    H158902   7.295   1.170   3.278
11641TIP3    H258903   7.302   1.318   3.313
11642TIP3   OH258904   6.733   0.928   2.325
11642TIP3    H158905   6.665   0.984   2.286
11642TIP3    H258906   6.805   0.930   2.259
11643TIP3   OH258907   6.742   0.783   2.025
11643TIP3    H158908   6.812   0.780   2.092
11643TIP3    H258909   6.772   0.709   1.970
11644TIP3   OH258910   7.478   0.849   3.167
11644TIP3    H158911   7.412   0.917   3.187
11644TIP3    H258912   7.533   0.871   3.090
11645TIP3   OH258913   7.080   0.944   2.417
11645TIP3    H158914   7.005   0.969   2.477
11645TIP3    H258915   7.127   0.878   2.470
11646TIP3   OH258916   7.079   0.770   3.319
11646TIP3    H158917   7.074   0.838   3.387
11646TIP3    H258918   7.002   0.792   3.265
11647TIP3   OH258919   6.239   1.011   2.608
11647TIP3    H158920   6.207   0.972   2.523
11647TIP3    H258921   6.300   0.942   2.642
11648TIP3   OH258922   6.373   1.351   2.877
11648TIP3    H158923   6.370   1.299   2.795
11648TIP3    H258924   6.451   1.315   2.921
11649TIP3   OH258925   6.270   0.889   2.971
11649TIP3    H158926   6.328   0.897   2.892
11649TIP3    H258927   6.311   0.951   3.036
11650TIP3   OH258928   6.906   1.437   3.048
11650TIP3    H158929   6.888   1.511   3.109
11650TIP3    H258930   6.890   1.356   3.095
11651TIP3   OH258931   6.357   1.321   3.454
11651TIP3    H158932   6.330   1.409   3.481
11651TIP3    H258933   6.301   1.311   3.372
11652TIP3   OH258934   6.967   0.866   2.183
11652TIP3    H158935   7.022   0.883   2.263
11652TIP3    H258936   7.012   0.915   2.111
11653TIP3   OH258937   6.737   1.536   2.531
11653TIP3    H158938   6.778   1.569   2.612
11653TIP3    H258939   6.681   1.612   2.508
11654TIP3   OH258940   7.341   0.045   2.180
11654TIP3    H158941   7.245   0.056   2.188
11654TIP3    H258942   7.365   0.122   2.125
11655TIP3   OH258943   6.135   0.912   2.371
11655TIP3    H158944   6.107   0.991   2.320
11655TIP3    H258945   6.071   0.846   2.346
11656TIP3   OH258946   7.450   1.474   2.009
11656TIP3    H158947   7.467   1.568   2.026
11656TIP3    H258948   7.542   1.442   2.009
11657TIP3   OH258949   5.755   1.154   3.251
11657TIP3    H158950   5.699   1.146   3.172
11657TIP3    H258951   5.748   1.062   3.285
11658TIP3   OH258952   5.723   1.432   2.940
11658TIP3    H158953   5.818   1.417   2.938
11658TIP3    H258954   5.714   1.512   2.993
11659TIP3   OH258955   6.687   1.827   2.370
11659TIP3    H158956   6.673   1.823   2.275
11659TIP3    H258957   6.685   1.923   2.391
11660TIP3   OH258958   6.051   1.717   2.556
11660TIP3    H158959   6.065   1.675   2.644
11660TIP3    H258960   5.966   1.676   2.531
11661TIP3   OH258961   6.991   1.750   2.070
11661TIP3    H158962   7.037   1.674   2.027
11661TIP3    H258963   6.995   1.725   2.165
11662TIP3   OH258964   6.961   1.741   2.345
11662TIP3    H158965   6.865   1.752   2.364
11662TIP3    H258966   6.982   1.669   2.407
11663TIP3   OH258967   5.974   1.284   3.356
11663TIP3    H158968   5.987   1.245   3.442
11663TIP3    H258969   5.885   1.249   3.329
11664TIP3   OH258970   6.244   0.139   2.945
11664TIP3    H158971   6.155   0.137   2.904
11664TIP3    H258972   6.231   0.219   2.998
11665TIP3   OH258973   7.110   0.969   1.968
11665TIP3    H158974   7.107   0.948   1.872
11665TIP3    H258975   7.197   1.014   1.970
11666TIP3   OH258976   6.670   0.362   2.015
11666TIP3    H158977   6.642   0.353   2.108
11666TIP3    H258978   6.637   0.275   1.985
11667TIP3   OH258979   6.250   0.633   3.068
11667TIP3    H158980   6.186   0.631   3.141
11667TIP3    H258981   6.249   0.727   3.039
11668TIP3   OH258982   6.248   0.642   2.562
11668TIP3    H158983   6.154   0.619   2.548
11668TIP3    H258984   6.285   0.615   2.475
11669TIP3   OH258985   6.800   0.699   2.440
11669TIP3    H158986   6.761   0.779   2.400
11669TIP3    H258987   6.868   0.674   2.374
11670TIP3   OH258988   6.896   0.649   2.731
11670TIP3    H158989   6.874   0.701   2.651
11670TIP3    H258990   6.916   0.565   2.681
11671TIP3   OH258991   6.350   0.400   1.929
11671TIP3    H158992   6.305   0.356   2.004
11671TIP3    H258993   6.278   0.442   1.880
11672TIP3   OH258994   5.682   0.376   2.640
11672TIP3    H158995   5.749   0.370   2.711
11672TIP3    H258996   5.725   0.334   2.564
11673TIP3   OH258997   5.806   0.444   2.179
11673TIP3    H158998   5.859   0.501   2.119
11673TIP3    H258999   5.738   0.508   2.208
11674TIP3   OH259000   6.820   0.805   3.179
11674TIP3    H159001   6.860   0.735   3.122
11674TIP3    H259002   6.775   0.750   3.247
11675TIP3   OH259003   6.502   0.405   2.664
11675TIP3    H159004   6.408   0.398   2.691
11675TIP3    H259005   6.552   0.381   2.744
11676TIP3   OH259006   5.984   0.555   2.549
11676TIP3    H159007   5.896   0.569   2.508
11676TIP3    H259008   6.014   0.472   2.508
11677TIP3   OH259009   6.348   0.560   2.312
11677TIP3    H159010   6.444   0.568   2.327
11677TIP3    H259011   6.327   0.628   2.245
11678TIP3   OH259012   6.943   0.331   2.989
11678TIP3    H159013   6.873   0.328   3.054
11678TIP3    H259014   6.901   0.296   2.908
11679TIP3   OH259015   6.220   0.677   2.070
11679TIP3    H159016   6.166   0.639   1.998
11679TIP3    H259017   6.302   0.699   2.022
11680TIP3   OH259018   6.629   0.673   2.849
11680TIP3    H159019   6.692   0.622   2.797
11680TIP3    H259020   6.618   0.620   2.928
11681TIP3   OH259021   6.132   0.289   2.493
11681TIP3    H159022   6.101   0.198   2.495
11681TIP3    H259023   6.211   0.281   2.439
11682TIP3   OH259024   6.502   0.504   3.094
11682TIP3    H159025   6.418   0.557   3.095
11682TIP3    H259026   6.550   0.546   3.168
11683TIP3   OH259027   6.554   1.130   2.262
11683TIP3    H159028   6.474   1.083   2.229
11683TIP3    H259029   6.531   1.144   2.356
11684TIP3   OH259030   7.252   1.056   3.144
11684TIP3    H159031   7.294   1.127   3.095
11684TIP3    H259032   7.164   1.051   3.097
11685TIP3   OH259033   6.941   0.419   2.067
11685TIP3    H159034   6.843   0.427   2.068
11685TIP3    H259035   6.972   0.497   2.116
11686TIP3   OH259036   7.012   0.602   2.238
11686TIP3    H159037   7.098   0.589   2.284
11686TIP3    H259038   7.023   0.686   2.190
11687TIP3   OH259039   6.065   1.070   2.844
11687TIP3    H159040   6.132   1.061   2.773
11687TIP3    H259041   6.071   0.984   2.889
11688TIP3   OH259042   6.763   1.277   2.165
11688TIP3    H159043   6.728   1.362   2.201
11688TIP3    H259044   6.690   1.215   2.188
11689TIP3   OH259045   5.762   0.912   3.368
11689TIP3    H159046   5.791   0.861   3.446
11689TIP3    H259047   5.702   0.849   3.327
11690TIP3   OH259048   7.497   0.620   2.221
11690TIP3    H159049   7.445   0.589   2.145
11690TIP3    H259050   7.509   0.714   2.194
11691TIP3   OH259051   7.326   1.500   2.258
11691TIP3    H159052   7.294   1.417   2.294
11691TIP3    H259053   7.363   1.478   2.171
11692TIP3   OH259054   7.051   0.983   2.972
11692TIP3    H159055   6.956   0.962   2.961
11692TIP3    H259056   7.089   0.904   2.927
11693TIP3   OH259057   6.303   1.415   2.579
11693TIP3    H159058   6.353   1.497   2.562
11693TIP3    H259059   6.215   1.439   2.547
11694TIP3   OH259060   5.880   0.899   2.036
11694TIP3    H159061   5.937   0.966   2.078
11694TIP3    H259062   5.791   0.930   2.062
11695TIP3   OH259063   6.443   1.182   2.530
11695TIP3    H159064   6.411   1.274   2.541
11695TIP3    H259065   6.373   1.132   2.576
11696TIP3   OH259066   6.499   1.592   3.171
11696TIP3    H159067   6.529   1.682   3.145
11696TIP3    H259068   6.552   1.575   3.249
11697TIP3   OH259069   6.312   1.680   2.482
11697TIP3    H159070   6.217   1.696   2.500
11697TIP3    H259071   6.351   1.761   2.519
11698TIP3   OH259072   7.077   1.309   2.044
11698TIP3    H159073   7.106   1.261   2.124
11698TIP3    H259074   6.981   1.290   2.051
11699TIP3   OH259075   7.121   1.657   3.382
11699TIP3    H159076   7.051   1.617   3.331
11699TIP3    H259077   7.144   1.730   3.323
11700TIP3   OH259078   7.522   1.743   2.069
11700TIP3    H159079   7.591   1.810   2.049
11700TIP3    H259080   7.450   1.804   2.098
11701TIP3   OH259081   7.153   1.172   2.269
11701TIP3    H159082   7.129   1.092   2.322
11701TIP3    H259083   7.248   1.175   2.285
11702TIP3   OH259084   5.899   1.567   3.163
11702TIP3    H159085   5.921   1.472   3.165
11702TIP3    H259086   5.922   1.593   3.253
11703TIP3   OH259087   6.489   1.417   1.895
11703TIP3    H159088   6.499   1.341   1.836
11703TIP3    H259089   6.443   1.373   1.970
11704TIP3   OH259090   6.365   1.368   2.139
11704TIP3    H159091   6.394   1.316   2.216
11704TIP3    H259092   6.375   1.460   2.172
11705TIP3   OH259093   6.020   1.092   2.187
11705TIP3    H159094   5.948   1.132   2.240
11705TIP3    H259095   6.070   1.170   2.157
11706TIP3   OH259096   6.846   0.366   2.302
11706TIP3    H159097   6.903   0.378   2.224
11706TIP3    H259098   6.913   0.356   2.373
11707TIP3   OH259099   6.646   1.535   2.209
11707TIP3    H159100   6.564   1.588   2.218
11707TIP3    H259101   6.700   1.589   2.150
11708TIP3   OH259102   6.593   0.500   2.411
11708TIP3    H159103   6.679   0.548   2.414
11708TIP3    H259104   6.574   0.478   2.503
11709TIP3   OH259105   6.670   0.610   3.312
11709TIP3    H159106   6.655   0.655   3.397
11709TIP3    H259107   6.720   0.532   3.339
11710TIP3   OH259108   6.672   0.201   2.498
11710TIP3    H159109   6.652   0.269   2.565
11710TIP3    H259110   6.752   0.244   2.460
11711TIP3   OH259111   6.387   1.637   2.213
11711TIP3    H159112   6.395   1.718   2.156
11711TIP3    H259113   6.360   1.675   2.300
11712TIP3   OH259114   6.248   0.308   2.166
11712TIP3    H159115   6.244   0.397   2.207
11712TIP3    H259116   6.340   0.286   2.193
11713TIP3   OH259117   7.274   0.388   3.415
11713TIP3    H159118   7.180   0.414   3.406
11713TIP3    H259119   7.299   0.379   3.322
11714TIP3   OH259120   7.135   0.763   2.811
11714TIP3    H159121   7.052   0.718   2.787
11714TIP3    H259122   7.182   0.694   2.862
11715TIP3   OH259123   6.074   1.353   2.073
11715TIP3    H159124   6.141   1.415   2.105
11715TIP3    H259125   6.126   1.306   2.005
11716TIP3   OH259126   5.908   0.621   1.988
11716TIP3    H159127   5.910   0.716   2.010
11716TIP3    H259128   5.819   0.604   1.956
11717TIP3   OH259129   7.241   1.686   2.981
11717TIP3    H159130   7.229   1.754   2.912
11717TIP3    H259131   7.336   1.692   2.997
11718TIP3   OH259132   5.974   0.126   2.849
11718TIP3    H159133   5.960   0.111   2.752
11718TIP3    H259134   5.957   0.036   2.883
11719TIP3   OH259135   5.886   1.491   2.478
11719TIP3    H159136   5.800   1.535   2.472
11719TIP3    H259137   5.932   1.536   2.406
11720TIP3   OH259138   6.689   1.600   1.906
11720TIP3    H159139   6.619   1.534   1.927
11720TIP3    H259140   6.760   1.540   1.881
11721TIP3   OH259141   7.144   1.574   1.924
11721TIP3    H159142   7.173   1.496   1.975
11721TIP3    H259143   7.220   1.595   1.869
11722TIP3   OH259144   6.230   1.166   1.903
11722TIP3    H159145   6.244   1.094   1.967
11722TIP3    H259146   6.311   1.156   1.850
11723TIP3   OH259147   6.775   1.280   1.884
11723TIP3    H159148   6.749   1.287   1.977
11723TIP3    H259149   6.757   1.184   1.869
11724TIP3   OH259150   6.352   0.971   2.150
11724TIP3    H159151   6.301   0.916   2.212
11724TIP3    H259152   6.383   0.904   2.085
11725TIP3   OH259153   6.461   0.793   1.969
11725TIP3    H159154   6.446   0.783   1.873
11725TIP3    H259155   6.558   0.797   1.976
11726TIP3   OH259156   7.391   1.024   1.910
11726TIP3    H159157   7.373   0.988   1.822
11726TIP3    H259158   7.401   1.121   1.892
11727TIP3   OH259159   6.360   0.320   3.241
11727TIP3    H159160   6.407   0.375   3.176
11727TIP3    H259161   6.270   0.316   3.202
11728TIP3   OH259162   6.516   0.878   3.264
11728TIP3    H159163   6.589   0.855   3.205
11728TIP3    H259164   6.474   0.955   3.225
11729TIP3   OH259165   6.443   1.863   2.078
11729TIP3    H159166   6.540   1.870   2.084
11729TIP3    H259167   6.429   1.922   2.003
11730TIP3   OH259168   5.797   1.319   2.025
11730TIP3    H159169   5.894   1.329   2.042
11730TIP3    H259170   5.802   1.256   1.949
11731TIP3   OH259171   5.677   1.858   2.519
11731TIP3    H159172   5.604   1.809   2.474
11731TIP3    H259173   5.704   1.793   2.587
11732TIP3   OH259174   5.758   1.671   2.707
11732TIP3    H159175   5.722   1.584   2.729
11732TIP3    H259176   5.781   1.704   2.795
11733TIP3   OH259177   7.517   1.744   3.005
11733TIP3    H159178   7.510   1.776   3.094
11733TIP3    H259179   7.578   1.809   2.966
11734TIP3   OH259180   7.447   1.117   2.304
11734TIP3    H159181   7.533   1.155   2.324
11734TIP3    H259182   7.444   1.046   2.372
11735TIP3   OH259183   7.479   0.926   2.495
11735TIP3    H159184   7.405   0.872   2.532
11735TIP3    H259185   7.543   0.933   2.568
11736TIP3   OH259186   7.464   1.206   2.990
11736TIP3    H159187   7.548   1.176   2.950
11736TIP3    H259188   7.474   1.302   2.972
11737TIP3   OH259189   7.310   1.480   3.218
11737TIP3    H159190   7.245   1.517   3.281
11737TIP3    H259191   7.253   1.445   3.148
11738TIP3   OH259192   7.513   0.906   2.133
11738TIP3    H159193   7.455   0.939   2.061
11738TIP3    H259194   7.501   0.977   2.199
11739TIP3   OH259195   7.351   0.629   1.984
11739TIP3    H159196   7.357   0.695   1.915
11739TIP3    H259197   7.330   0.547   1.936
11740TIP3   OH259198   7.265   0.770   2.555
11740TIP3    H159199   7.247   0.675   2.546
11740TIP3    H259200   7.229   0.789   2.643
11741TIP3   OH259201   5.766   0.982   2.959
11741TIP3    H159202   5.782   0.971   2.863
11741TIP3    H259203   5.853   0.960   2.998
11742TIP3   OH259204   7.273   0.379   1.903
11742TIP3    H159205   7.334   0.333   1.962
11742TIP3    H259206   7.188   0.332   1.913
11743TIP3   OH259207   7.229   0.535   2.391
11743TIP3    H159208   7.257   0.442   2.409
11743TIP3    H259209   7.313   0.572   2.361
11744TIP3   OH259210   7.294   0.588   2.938
11744TIP3    H159211   7.391   0.600   2.937
11744TIP3    H259212   7.277   0.592   3.035
11745TIP3   OH259213   7.295   0.656   3.203
11745TIP3    H159214   7.214   0.684   3.255
11745TIP3    H259215   7.345   0.739   3.198
11746TIP3   OH259216   7.298   0.261   2.397
11746TIP3    H159217   7.316   0.220   2.485
11746TIP3    H259218   7.233   0.199   2.360
11747TIP3   OH259219   5.840   0.346   2.863
11747TIP3    H159220   5.887   0.262   2.879
11747TIP3    H259221   5.903   0.411   2.896
11748TIP3   OH259222   5.672   0.637   2.958
11748TIP3    H159223   5.732   0.615   2.883
11748TIP3    H259224   5.718   0.716   2.992
11749TIP3   OH259225   7.483   0.260   2.064
11749TIP3    H159226   7.518   0.190   2.004
11749TIP3    H259227   7.551   0.329   2.061
11750TIP3   OH259228   5.711   0.263   2.372
11750TIP3    H159229   5.618   0.284   2.354
11750TIP3    H259230   5.755   0.311   2.299
11751TIP3   OH259231   7.183   1.762   2.563
11751TIP3    H159232   7.252   1.730   2.502
11751TIP3    H259233   7.235   1.810   2.629
11752TIP3   OH259234   5.704   0.138   3.187
11752TIP3    H159235   5.653   0.129   3.268
11752TIP3    H259236   5.655   0.208   3.140
11753TIP3   OH259237   6.223   1.546   3.241
11753TIP3    H159238   6.186   1.634   3.221
11753TIP3    H259239   6.314   1.561   3.211
11754TIP3   OH259240   7.365   0.132   3.295
11754TIP3    H159241   7.272   0.124   3.324
11754TIP3    H259242   7.394   0.041   3.311
11755TIP3   OH259243   6.204   1.830   3.145
11755TIP3    H159244   6.123   1.846   3.197
11755TIP3    H259245   6.206   1.892   3.070
11756TIP3   OH259246   6.690   1.824   3.065
11756TIP3    H159247   6.631   1.870   3.000
11756TIP3    H259248   6.687   1.887   3.139
11757TIP3   OH259249   6.911   1.703   3.162
11757TIP3    H159250   6.825   1.735   3.129
11757TIP3    H259251   6.956   1.789   3.160
11758TIP3   OH259252   7.175   1.860   3.191
11758TIP3    H159253   7.161   1.955   3.168
11758TIP3    H259254   7.188   1.822   3.103
11759TIP3   OH259255   5.911   1.742   2.935
11759TIP3    H159256   5.898   1.688   3.017
11759TIP3    H259257   5.991   1.699   2.897
11760TIP3   OH259258   6.112   1.610   2.804
11760TIP3    H159259   6.101   1.515   2.826
11760TIP3    H259260   6.201   1.627   2.847
11761TIP3   OH259261   6.361   1.649   2.891
11761TIP3    H159262   6.395   1.563   2.864
11761TIP3    H259263   6.383   1.656   2.984
11762TIP3   OH259264   6.719   0.230   2.806
11762TIP3    H159265   6.654   0.160   2.824
11762TIP3    H259266   6.778   0.182   2.747
11763TIP3   OH259267   7.242   0.052   2.824
11763TIP3    H159268   7.297   0.097   2.757
11763TIP3    H259269   7.150   0.062   2.791
11764TIP3   OH259270   7.405   0.158   2.636
11764TIP3    H159271   7.470   0.098   2.596
11764TIP3    H259272   7.453   0.243   2.645
11765TIP3   OH259273   5.954   0.084   2.588
11765TIP3    H159274   5.876   0.069   2.532
11765TIP3    H259275   6.002   0.001   2.579
11766TIP3   OH259276   5.862   0.106   2.173
11766TIP3    H159277   5.882   0.157   2.093
11766TIP3    H259278   5.774   0.137   2.201
11767TIP3   OH259279   6.400   0.089   2.568
11767TIP3    H159280   6.493   0.117   2.555
11767TIP3    H259281   6.408   0.058   2.658
11768TIP3   OH259282   6.975   0.071   2.751
11768TIP3    H159283   6.972   0.098   2.656
11768TIP3    H259284   6.937  -0.016   2.745
11769TIP3   OH259285   7.083   0.091   2.236
11769TIP3    H159286   7.035   0.169   2.273
11769TIP3    H259287   7.062   0.049   2.319
11770TIP3   OH259288   5.827   1.656   2.265
11770TIP3    H159289   5.761   1.655   2.193
11770TIP3    H259290   5.827   1.752   2.280
11771TIP3   OH259291   6.015   0.259   2.007
11771TIP3    H159292   6.069   0.197   1.955
11771TIP3    H259293   6.081   0.284   2.075
11772TIP3   OH259294   6.517   0.283   2.253
11772TIP3    H159295   6.550   0.224   2.323
11772TIP3    H259296   6.533   0.369   2.298
11773TIP3   OH259297   6.715   1.789   2.096
11773TIP3    H159298   6.807   1.809   2.074
11773TIP3    H259299   6.693   1.736   2.017
11774TIP3   OH259300   7.384   1.737   2.368
11774TIP3    H159301   7.364   1.659   2.312
11774TIP3    H259302   7.376   1.811   2.304
11775TIP3   OH259303   6.006   1.755   1.958
11775TIP3    H159304   5.980   1.781   2.047
11775TIP3    H259305   6.084   1.699   1.973
11776TIP3   OH259306   7.867   0.898   3.091
11776TIP3    H159307   7.890   0.818   3.142
11776TIP3    H259308   7.950   0.948   3.098
11777TIP3   OH259309   7.943   1.327   2.932
11777TIP3    H159310   7.933   1.238   2.894
11777TIP3    H259311   8.041   1.328   2.936
11778TIP3   OH259312   7.625   0.694   2.476
11778TIP3    H159313   7.584   0.782   2.471
11778TIP3    H259314   7.569   0.640   2.421
11779TIP3   OH259315   7.703   0.919   2.696
11779TIP3    H159316   7.732   0.834   2.736
11779TIP3    H259317   7.773   0.926   2.627
11780TIP3   OH259318   7.754   0.654   2.799
11780TIP3    H159319   7.835   0.617   2.840
11780TIP3    H259320   7.784   0.636   2.707
11781TIP3   OH259321   7.978   0.309   3.124
11781TIP3    H159322   7.966   0.375   3.050
11781TIP3    H259323   7.917   0.341   3.193
11782TIP3   OH259324   7.939   0.488   2.928
11782TIP3    H159325   7.997   0.561   2.960
11782TIP3    H259326   7.992   0.461   2.850
11783TIP3   OH259327   8.059   1.300   3.186
11783TIP3    H159328   8.073   1.393   3.195
11783TIP3    H259329   7.995   1.279   3.259
11784TIP3   OH259330   7.705   1.238   2.313
11784TIP3    H159331   7.675   1.270   2.226
11784TIP3    H259332   7.706   1.320   2.365
11785TIP3   OH259333   8.021   0.919   2.364
11785TIP3    H159334   7.987   0.998   2.319
11785TIP3    H259335   7.955   0.850   2.350
11786TIP3   OH259336   7.635   1.153   3.250
11786TIP3    H159337   7.587   1.147   3.168
11786TIP3    H259338   7.637   1.063   3.285
11787TIP3   OH259339   7.610   1.433   2.943
11787TIP3    H159340   7.706   1.419   2.933
11787TIP3    H259341   7.601   1.517   2.987
11788TIP3   OH259342   7.923   1.707   2.555
11788TIP3    H159343   7.940   1.669   2.644
11788TIP3    H259344   7.837   1.666   2.536
11789TIP3   OH259345   7.859   1.285   3.360
11789TIP3    H159346   7.870   1.248   3.449
11789TIP3    H259347   7.773   1.245   3.333
11790TIP3   OH259348   7.898   0.666   3.252
11790TIP3    H159349   7.897   0.701   3.342
11790TIP3    H259350   7.864   0.576   3.261
11791TIP3   OH259351   7.565   0.372   2.640
11791TIP3    H159352   7.633   0.372   2.710
11791TIP3    H259353   7.613   0.335   2.564
11792TIP3   OH259354   7.688   0.444   2.181
11792TIP3    H159355   7.742   0.501   2.122
11792TIP3    H259356   7.619   0.509   2.207
11793TIP3   OH259357   7.857   0.556   2.540
11793TIP3    H159358   7.770   0.563   2.501
11793TIP3    H259359   7.895   0.471   2.516
11794TIP3   OH259360   7.964   0.285   2.473
11794TIP3    H159361   7.966   0.192   2.502
11794TIP3    H259362   8.059   0.302   2.471
11795TIP3   OH259363   7.945   1.070   2.836
11795TIP3    H159364   8.019   1.061   2.775
11795TIP3    H259365   7.956   0.985   2.883
11796TIP3   OH259366   7.771   0.898   2.039
11796TIP3    H159367   7.824   0.968   2.081
11796TIP3    H259368   7.679   0.926   2.060
11797TIP3   OH259369   7.814   0.386   3.334
11797TIP3    H159370   7.726   0.411   3.304
11797TIP3    H259371   7.803   0.294   3.361
11798TIP3   OH259372   7.904   1.093   2.183
11798TIP3    H159373   7.834   1.129   2.240
11798TIP3    H259374   7.956   1.173   2.165
11799TIP3   OH259375   7.956   1.354   2.067
11799TIP3    H159376   8.020   1.415   2.107
11799TIP3    H259377   8.017   1.310   2.007
11800TIP3   OH259378   7.795   0.619   1.994
11800TIP3    H159379   7.798   0.716   2.005
11800TIP3    H259380   7.709   0.603   1.956
11801TIP3   OH259381   7.853   0.129   2.847
11801TIP3    H159382   7.854   0.109   2.751
11801TIP3    H259383   7.842   0.039   2.884
11802TIP3   OH259384   7.765   1.491   2.476
11802TIP3    H159385   7.681   1.540   2.470
11802TIP3    H259386   7.818   1.535   2.409
11803TIP3   OH259387   7.686   1.321   2.023
11803TIP3    H159388   7.782   1.330   2.041
11803TIP3    H259389   7.690   1.256   1.949
11804TIP3   OH259390   7.561   1.856   2.521
11804TIP3    H159391   7.488   1.808   2.476
11804TIP3    H259392   7.591   1.792   2.588
11805TIP3   OH259393   7.644   1.669   2.706
11805TIP3    H159394   7.608   1.582   2.728
11805TIP3    H259395   7.670   1.704   2.793
11806TIP3   OH259396   7.645   0.978   2.955
11806TIP3    H159397   7.673   0.968   2.861
11806TIP3    H259398   7.735   0.963   2.996
11807TIP3   OH259399   7.720   0.346   2.864
11807TIP3    H159400   7.774   0.264   2.874
11807TIP3    H259401   7.788   0.411   2.890
11808TIP3   OH259402   7.555   0.640   2.960
11808TIP3    H159403   7.616   0.611   2.887
11808TIP3    H259404   7.610   0.714   2.989
11809TIP3   OH259405   7.591   0.261   2.370
11809TIP3    H159406   7.499   0.287   2.354
11809TIP3    H259407   7.638   0.312   2.300
11810TIP3   OH259408   7.602   0.142   3.205
11810TIP3    H159409   7.526   0.113   3.256
11810TIP3    H259410   7.554   0.199   3.141
11811TIP3   OH259411   8.062   1.798   3.116
11811TIP3    H159412   8.020   1.843   3.190
11811TIP3    H259413   8.101   1.878   3.076
11812TIP3   OH259414   7.786   1.739   2.941
11812TIP3    H159415   7.796   1.691   3.022
11812TIP3    H259416   7.868   1.707   2.895
11813TIP3   OH259417   7.981   1.608   2.821
11813TIP3    H159418   7.978   1.511   2.829
11813TIP3    H259419   8.072   1.621   2.851
11814TIP3   OH259420   7.834   0.078   2.589
11814TIP3    H159421   7.758   0.062   2.531
11814TIP3    H259422   7.891   0.000   2.580
11815TIP3   OH259423   7.745   0.105   2.175
11815TIP3    H159424   7.766   0.158   2.096
11815TIP3    H259425   7.657   0.136   2.203
11816TIP3   OH259426   7.715   1.657   2.260
11816TIP3    H159427   7.644   1.655   2.192
11816TIP3    H259428   7.716   1.752   2.278
11817TIP3   OH259429   7.901   0.256   2.011
11817TIP3    H159430   7.957   0.199   1.954
11817TIP3    H259431   7.965   0.289   2.075
11818TIP3   OH259432   7.898   1.762   1.957
11818TIP3    H159433   7.868   1.785   2.047
11818TIP3    H259434   7.968   1.699   1.975
11819TIP3   OH259435   1.209   2.886   2.574
11819TIP3    H159436   1.209   2.984   2.570
11819TIP3    H259437   1.138   2.861   2.511
11820TIP3   OH259438   1.092   2.815   2.927
11820TIP3    H159439   1.098   2.747   2.997
11820TIP3    H259440   1.065   2.761   2.850
11821TIP3   OH259441   0.339   2.774   3.073
11821TIP3    H159442   0.338   2.707   3.144
11821TIP3    H259443   0.409   2.836   3.098
11822TIP3   OH259444   1.461   3.105   2.751
11822TIP3    H159445   1.425   3.033   2.804
11822TIP3    H259446   1.470   3.175   2.818
11823TIP3   OH259447   0.422   3.222   2.932
11823TIP3    H159448   0.391   3.136   2.896
11823TIP3    H259449   0.516   3.204   2.932
11824TIP3   OH259450   0.093   2.581   2.472
11824TIP3    H159451   0.048   2.667   2.474
11824TIP3    H259452   0.029   2.526   2.427
11825TIP3   OH259453   0.160   2.803   2.694
11825TIP3    H159454   0.182   2.718   2.736
11825TIP3    H259455   0.228   2.809   2.626
11826TIP3   OH259456   1.173   3.619   2.776
11826TIP3    H159457   1.243   3.555   2.748
11826TIP3    H259458   1.160   3.592   2.867
11827TIP3   OH259459   0.938   3.066   2.973
11827TIP3    H159460   0.962   2.993   2.912
11827TIP3    H259461   1.018   3.059   3.028
11828TIP3   OH259462   1.798   2.218   3.047
11828TIP3    H159463   1.805   2.283   3.116
11828TIP3    H259464   1.849   2.259   2.976
11829TIP3   OH259465   1.248   2.498   2.999
11829TIP3    H159466   1.269   2.403   3.002
11829TIP3    H259467   1.238   2.512   2.903
11830TIP3   OH259468   0.562   2.307   2.723
11830TIP3    H159469   0.573   2.390   2.673
11830TIP3    H259470   0.524   2.249   2.654
11831TIP3   OH259471   1.338   2.312   2.556
11831TIP3    H159472   1.399   2.283   2.627
11831TIP3    H259473   1.394   2.376   2.510
11832TIP3   OH259474   0.234   2.549   2.795
11832TIP3    H159475   0.297   2.490   2.840
11832TIP3    H259476   0.238   2.515   2.704
11833TIP3   OH259477   0.738   2.703   2.731
11833TIP3    H159478   0.807   2.645   2.768
11833TIP3    H259479   0.690   2.638   2.674
11834TIP3   OH259480   0.455   2.202   3.123
11834TIP3    H159481   0.421   2.258   3.050
11834TIP3    H259482   0.388   2.211   3.194
11835TIP3   OH259483   1.170   3.143   2.483
11835TIP3    H159484   1.162   3.117   2.390
11835TIP3    H259485   1.158   3.240   2.486
11836TIP3   OH259486   1.513   2.249   2.760
11836TIP3    H159487   1.496   2.172   2.816
11836TIP3    H259488   1.582   2.294   2.812
11837TIP3   OH259489   0.410   2.383   2.926
11837TIP3    H159490   0.474   2.450   2.959
11837TIP3    H259491   0.465   2.342   2.854
11838TIP3   OH259492   0.558   3.168   3.227
11838TIP3    H159493   0.541   3.256   3.194
11838TIP3    H259494   0.471   3.153   3.272
11839TIP3   OH259495   0.148   3.125   2.308
11839TIP3    H159496   0.143   3.152   2.214
11839TIP3    H259497   0.193   3.200   2.353
11840TIP3   OH259498   1.517   3.293   2.983
11840TIP3    H159499   1.422   3.303   2.999
11840TIP3    H259500   1.545   3.385   2.971
11841TIP3   OH259501   1.548   2.120   3.130
11841TIP3    H159502   1.476   2.182   3.118
11841TIP3    H259503   1.621   2.161   3.082
11842TIP3   OH259504   0.846   1.931   2.872
11842TIP3    H159505   0.830   1.834   2.867
11842TIP3    H259506   0.759   1.961   2.907
11843TIP3   OH259507   1.340   3.468   2.643
11843TIP3    H159508   1.388   3.396   2.598
11843TIP3    H259509   1.389   3.547   2.610
11844TIP3   OH259510   1.461   3.262   2.499
11844TIP3    H159511   1.439   3.190   2.438
11844TIP3    H259512   1.468   3.212   2.583
11845TIP3   OH259513   1.636   3.120   3.353
11845TIP3    H159514   1.639   3.056   3.280
11845TIP3    H259515   1.648   3.204   3.307
11846TIP3   OH259516   1.081   2.820   2.330
11846TIP3    H159517   1.006   2.861   2.285
11846TIP3    H259518   1.147   2.817   2.258
11847TIP3   OH259519   1.100   2.676   2.021
11847TIP3    H159520   1.158   2.662   2.096
11847TIP3    H259521   1.113   2.594   1.972
11848TIP3   OH259522   1.420   2.831   2.417
11848TIP3    H159523   1.346   2.855   2.478
11848TIP3    H259524   1.469   2.765   2.469
11849TIP3   OH259525   0.589   2.898   2.605
11849TIP3    H159526   0.549   2.855   2.525
11849TIP3    H259527   0.644   2.824   2.641
11850TIP3   OH259528   0.722   3.236   2.881
11850TIP3    H159529   0.703   3.189   2.798
11850TIP3    H259530   0.796   3.182   2.910
11851TIP3   OH259531   0.616   2.774   2.976
11851TIP3    H159532   0.668   2.778   2.891
11851TIP3    H259533   0.658   2.840   3.031
11852TIP3   OH259534   1.246   3.321   3.049
11852TIP3    H159535   1.235   3.391   3.115
11852TIP3    H259536   1.237   3.239   3.099
11853TIP3   OH259537   1.312   2.750   2.184
11853TIP3    H159538   1.367   2.771   2.264
11853TIP3    H259539   1.354   2.800   2.111
11854TIP3   OH259540   1.062   3.420   2.536
11854TIP3    H159541   1.125   3.449   2.605
11854TIP3    H259542   1.029   3.507   2.508
11855TIP3   OH259543   1.679   1.923   2.172
11855TIP3    H159544   1.586   1.934   2.201
11855TIP3    H259545   1.709   2.008   2.137
11856TIP3   OH259546   0.480   2.799   2.376
11856TIP3    H159547   0.454   2.874   2.318
11856TIP3    H259548   0.418   2.731   2.349
11857TIP3   OH259549   1.793   3.359   2.009
11857TIP3    H159550   1.811   3.453   2.026
11857TIP3    H259551   1.885   3.327   2.010
11858TIP3   OH259552   0.081   3.046   3.256
11858TIP3    H159553   0.048   3.032   3.166
11858TIP3    H259554   0.091   2.951   3.283
11859TIP3   OH259555   0.091   3.336   2.925
11859TIP3    H159556   0.181   3.306   2.943
11859TIP3    H259557   0.069   3.396   2.996
11860TIP3   OH259558   1.029   3.713   2.370
11860TIP3    H159559   1.019   3.709   2.273
11860TIP3    H259560   1.029   3.810   2.388
11861TIP3   OH259561   0.397   3.599   2.552
11861TIP3    H159562   0.408   3.563   2.643
11861TIP3    H259563   0.311   3.561   2.530
11862TIP3   OH259564   1.335   3.636   2.068
11862TIP3    H159565   1.381   3.560   2.026
11862TIP3    H259566   1.337   3.610   2.163
11863TIP3   OH259567   1.304   3.628   2.347
11863TIP3    H159568   1.208   3.639   2.365
11863TIP3    H259569   1.328   3.556   2.406
11864TIP3   OH259570   0.314   3.180   3.360
11864TIP3    H159571   0.336   3.140   3.446
11864TIP3    H259572   0.231   3.136   3.334
11865TIP3   OH259573   0.584   2.023   2.950
11865TIP3    H159574   0.493   2.009   2.914
11865TIP3    H259575   0.571   2.105   2.999
11866TIP3   OH259576   1.454   2.856   1.967
11866TIP3    H159577   1.451   2.837   1.870
11866TIP3    H259578   1.540   2.899   1.971
11867TIP3   OH259579   1.021   2.240   2.017
11867TIP3    H159580   0.980   2.243   2.106
11867TIP3    H259581   0.979   2.157   1.986
11868TIP3   OH259582   0.592   2.518   3.073
11868TIP3    H159583   0.519   2.515   3.137
11868TIP3    H259584   0.588   2.610   3.038
11869TIP3   OH259585   0.591   2.532   2.565
11869TIP3    H159586   0.498   2.507   2.548
11869TIP3    H259587   0.629   2.502   2.479
11870TIP3   OH259588   1.143   2.583   2.438
11870TIP3    H159589   1.101   2.663   2.398
11870TIP3    H259590   1.210   2.563   2.371
11871TIP3   OH259591   1.247   2.530   2.721
11871TIP3    H159592   1.218   2.586   2.648
11871TIP3    H259593   1.256   2.445   2.675
11872TIP3   OH259594   0.363   2.550   3.247
11872TIP3    H159595   0.355   2.583   3.338
11872TIP3    H259596   0.311   2.468   3.255
11873TIP3   OH259597   0.693   2.280   1.924
11873TIP3    H159598   0.650   2.242   2.004
11873TIP3    H259599   0.620   2.323   1.879
11874TIP3   OH259600   0.053   2.285   2.649
11874TIP3    H159601   0.104   2.250   2.725
11874TIP3    H259602   0.064   2.217   2.584
11875TIP3   OH259603   0.151   2.340   2.184
11875TIP3    H159604   0.202   2.388   2.115
11875TIP3    H259605   0.079   2.399   2.204
11876TIP3   OH259606   1.150   2.691   3.173
11876TIP3    H159607   1.204   2.627   3.123
11876TIP3    H259608   1.123   2.633   3.246
11877TIP3   OH259609   0.846   2.285   2.665
11877TIP3    H159610   0.751   2.286   2.693
11877TIP3    H259611   0.895   2.268   2.746
11878TIP3   OH259612   0.332   2.438   2.548
11878TIP3    H159613   0.244   2.457   2.510
11878TIP3    H259614   0.352   2.352   2.509
11879TIP3   OH259615   0.679   2.432   2.339
11879TIP3    H159616   0.776   2.447   2.331
11879TIP3    H259617   0.665   2.496   2.263
11880TIP3   OH259618   1.290   2.214   2.988
11880TIP3    H159619   1.220   2.215   3.057
11880TIP3    H259620   1.240   2.183   2.910
11881TIP3   OH259621   0.522   2.576   2.053
11881TIP3    H159622   0.495   2.518   1.981
11881TIP3    H259623   0.619   2.579   2.040
11882TIP3   OH259624   0.972   2.558   2.848
11882TIP3    H159625   1.037   2.508   2.797
11882TIP3    H259626   0.963   2.504   2.928
11883TIP3   OH259627   0.481   2.176   2.497
11883TIP3    H159628   0.444   2.085   2.492
11883TIP3    H259629   0.556   2.169   2.436
11884TIP3   OH259630   0.840   2.393   3.090
11884TIP3    H159631   0.759   2.445   3.098
11884TIP3    H259632   0.895   2.424   3.165
11885TIP3   OH259633   0.891   3.025   2.265
11885TIP3    H159634   0.821   2.966   2.225
11885TIP3    H259635   0.873   3.014   2.360
11886TIP3   OH259636   1.609   2.945   3.145
11886TIP3    H159637   1.674   2.983   3.083
11886TIP3    H259638   1.529   2.939   3.091
11887TIP3   OH259639   1.284   2.296   2.077
11887TIP3    H159640   1.187   2.309   2.067
11887TIP3    H259641   1.311   2.383   2.116
11888TIP3   OH259642   1.357   2.487   2.235
11888TIP3    H159643   1.441   2.481   2.285
11888TIP3    H259644   1.361   2.574   2.193
11889TIP3   OH259645   0.412   2.958   2.842
11889TIP3    H159646   0.473   2.946   2.767
11889TIP3    H259647   0.414   2.871   2.884
11890TIP3   OH259648   1.108   3.163   2.171
11890TIP3    H159649   1.072   3.249   2.198
11890TIP3    H259650   1.034   3.099   2.184
11891TIP3   OH259651   0.122   2.787   3.354
11891TIP3    H159652   0.129   2.758   3.447
11891TIP3    H259653   0.044   2.737   3.328
11892TIP3   OH259654   1.826   2.502   2.224
11892TIP3    H159655   1.787   2.476   2.139
11892TIP3    H259656   1.856   2.593   2.200
11893TIP3   OH259657   1.668   3.386   2.258
11893TIP3    H159658   1.637   3.302   2.294
11893TIP3    H259659   1.706   3.363   2.171
11894TIP3   OH259660   1.392   2.871   2.966
11894TIP3    H159661   1.298   2.847   2.964
11894TIP3    H259662   1.436   2.792   2.930
11895TIP3   OH259663   0.654   3.302   2.575
11895TIP3    H159664   0.686   3.393   2.566
11895TIP3    H259665   0.560   3.319   2.552
11896TIP3   OH259666   0.224   2.782   2.039
11896TIP3    H159667   0.287   2.845   2.078
11896TIP3    H259668   0.138   2.816   2.067
11897TIP3   OH259669   0.788   3.075   2.529
11897TIP3    H159670   0.741   3.157   2.550
11897TIP3    H259671   0.723   3.012   2.570
11898TIP3   OH259672   0.843   3.482   3.164
11898TIP3    H159673   0.880   3.571   3.146
11898TIP3    H259674   0.890   3.462   3.247
11899TIP3   OH259675   0.658   3.563   2.486
11899TIP3    H159676   0.561   3.579   2.497
11899TIP3    H259677   0.691   3.650   2.518
11900TIP3   OH259678   1.419   3.195   2.044
11900TIP3    H159679   1.448   3.146   2.124
11900TIP3    H259680   1.325   3.175   2.051
11901TIP3   OH259681   1.865   3.629   2.070
11901TIP3    H159682   1.933   3.695   2.049
11901TIP3    H259683   1.793   3.689   2.098
11902TIP3   OH259684   1.495   3.057   2.269
11902TIP3    H159685   1.472   2.978   2.322
11902TIP3    H259686   1.591   3.061   2.285
11903TIP3   OH259687   0.834   3.303   1.897
11903TIP3    H159688   0.841   3.228   1.835
11903TIP3    H259689   0.785   3.258   1.968
11904TIP3   OH259690   0.709   3.256   2.140
11904TIP3    H159691   0.733   3.199   2.213
11904TIP3    H259692   0.717   3.349   2.171
11905TIP3   OH259693   0.363   2.977   2.188
11905TIP3    H159694   0.293   3.015   2.242
11905TIP3    H259695   0.411   3.055   2.155
11906TIP3   OH259696   1.147   2.244   3.214
11906TIP3    H159697   1.213   2.251   3.284
11906TIP3    H259698   1.105   2.161   3.239
11907TIP3   OH259699   1.231   2.196   2.325
11907TIP3    H159700   1.238   2.254   2.247
11907TIP3    H259701   1.275   2.247   2.394
11908TIP3   OH259702   0.986   3.419   2.216
11908TIP3    H159703   0.906   3.477   2.211
11908TIP3    H259704   1.042   3.470   2.154
11909TIP3   OH259705   0.947   2.376   2.411
11909TIP3    H159706   1.022   2.438   2.415
11909TIP3    H259707   0.916   2.368   2.503
11910TIP3   OH259708   1.002   2.491   3.318
11910TIP3    H159709   1.011   2.535   3.402
11910TIP3    H259710   1.054   2.409   3.334
11911TIP3   OH259711   1.028   2.084   2.496
11911TIP3    H159712   0.995   2.149   2.560
11911TIP3    H259713   1.099   2.137   2.454
11912TIP3   OH259714   0.734   3.521   2.217
11912TIP3    H159715   0.737   3.600   2.156
11912TIP3    H259716   0.699   3.563   2.298
11913TIP3   OH259717   0.596   2.199   2.168
11913TIP3    H159718   0.591   2.287   2.208
11913TIP3    H259719   0.685   2.170   2.196
11914TIP3   OH259720   1.478   2.645   2.809
11914TIP3    H159721   1.393   2.602   2.788
11914TIP3    H259722   1.525   2.580   2.866
11915TIP3   OH259723   0.418   3.237   2.076
11915TIP3    H159724   0.485   3.302   2.101
11915TIP3    H259725   0.468   3.189   2.006
11916TIP3   OH259726   0.249   2.505   1.984
11916TIP3    H159727   0.253   2.599   2.009
11916TIP3    H259728   0.159   2.491   1.954
11917TIP3   OH259729   1.582   3.574   2.981
11917TIP3    H159730   1.574   3.641   2.911
11917TIP3    H259731   1.678   3.577   2.997
11918TIP3   OH259732   0.331   1.988   2.856
11918TIP3    H159733   0.310   1.984   2.760
11918TIP3    H259734   0.295   1.902   2.887
11919TIP3   OH259735   0.216   3.363   2.464
11919TIP3    H159736   0.151   3.433   2.478
11919TIP3    H259737   0.279   3.418   2.413
11920TIP3   OH259738   1.032   3.486   1.908
11920TIP3    H159739   0.961   3.420   1.924
11920TIP3    H259740   1.103   3.426   1.881
11921TIP3   OH259741   1.487   3.459   1.924
11921TIP3    H159742   1.516   3.382   1.975
11921TIP3    H259743   1.563   3.481   1.869
11922TIP3   OH259744   0.575   3.054   1.905
11922TIP3    H159745   0.590   2.978   1.964
11922TIP3    H259746   0.652   3.042   1.845
11923TIP3   OH259747   1.120   3.164   1.882
11923TIP3    H159748   1.093   3.172   1.975
11923TIP3    H259749   1.100   3.068   1.867
11924TIP3   OH259750   0.695   2.862   2.153
11924TIP3    H159751   0.649   2.799   2.211
11924TIP3    H259752   0.733   2.796   2.091
11925TIP3   OH259753   0.842   2.740   1.915
11925TIP3    H159754   0.786   2.670   1.879
11925TIP3    H259755   0.895   2.688   1.981
11926TIP3   OH259756   1.735   2.909   1.910
11926TIP3    H159757   1.717   2.871   1.822
11926TIP3    H259758   1.745   3.005   1.891
11927TIP3   OH259759   0.703   2.214   3.243
11927TIP3    H159760   0.753   2.259   3.173
11927TIP3    H259761   0.614   2.201   3.203
11928TIP3   OH259762   0.858   2.768   3.262
11928TIP3    H159763   0.933   2.737   3.207
11928TIP3    H259764   0.834   2.850   3.224
11929TIP3   OH259765   0.788   1.959   3.269
11929TIP3    H159766   0.764   2.053   3.275
11929TIP3    H259767   0.704   1.923   3.238
11930TIP3   OH259768   0.787   3.746   2.079
11930TIP3    H159769   0.883   3.757   2.084
11930TIP3    H259770   0.772   3.805   2.004
11931TIP3   OH259771   0.146   3.201   2.030
11931TIP3    H159772   0.244   3.216   2.040
11931TIP3    H259773   0.149   3.140   1.953
11932TIP3   OH259774   0.037   3.756   2.511
11932TIP3    H159775  -0.044   3.711   2.481
11932TIP3    H259776   0.053   3.694   2.585
11933TIP3   OH259777   0.125   3.559   2.696
11933TIP3    H159778   0.075   3.478   2.716
11933TIP3    H259779   0.135   3.596   2.786
11934TIP3   OH259780   1.857   3.638   3.001
11934TIP3    H159781   1.861   3.654   3.095
11934TIP3    H259782   1.927   3.695   2.969
11935TIP3   OH259783   1.789   3.005   2.305
11935TIP3    H159784   1.877   3.040   2.323
11935TIP3    H259785   1.787   2.931   2.371
11936TIP3   OH259786   1.817   2.827   2.500
11936TIP3    H159787   1.753   2.759   2.532
11936TIP3    H259788   1.886   2.821   2.569
11937TIP3   OH259789   1.797   3.081   2.994
11937TIP3    H159790   1.879   3.038   2.960
11937TIP3    H259791   1.815   3.174   2.974
11938TIP3   OH259792   1.655   3.371   3.222
11938TIP3    H159793   1.583   3.397   3.280
11938TIP3    H259794   1.607   3.326   3.150
11939TIP3   OH259795   1.857   2.793   2.132
11939TIP3    H159796   1.797   2.824   2.061
11939TIP3    H259797   1.845   2.862   2.199
11940TIP3   OH259798   1.687   2.514   1.982
11940TIP3    H159799   1.703   2.585   1.919
11940TIP3    H259800   1.681   2.435   1.926
11941TIP3   OH259801   1.601   2.658   2.550
11941TIP3    H159802   1.595   2.561   2.546
11941TIP3    H259803   1.575   2.677   2.642
11942TIP3   OH259804   0.108   2.862   2.959
11942TIP3    H159805   0.125   2.859   2.863
11942TIP3    H259806   0.197   2.848   2.995
11943TIP3   OH259807   1.634   2.287   1.870
11943TIP3    H159808   1.698   2.237   1.924
11943TIP3    H259809   1.548   2.242   1.860
11944TIP3   OH259810   1.571   2.412   2.388
11944TIP3    H159811   1.606   2.323   2.413
11944TIP3    H259812   1.654   2.457   2.365
11945TIP3   OH259813   1.639   2.466   2.944
11945TIP3    H159814   1.733   2.495   2.940
11945TIP3    H259815   1.617   2.483   3.036
11946TIP3   OH259816   1.642   2.142   2.398
11946TIP3    H159817   1.664   2.103   2.487
11946TIP3    H259818   1.581   2.075   2.361
11947TIP3   OH259819   0.191   2.223   2.865
11947TIP3    H159820   0.239   2.141   2.888
11947TIP3    H259821   0.246   2.293   2.902
11948TIP3   OH259822   0.041   2.532   2.973
11948TIP3    H159823   0.084   2.508   2.888
11948TIP3    H259824   0.073   2.622   2.985
11949TIP3   OH259825   1.815   2.149   2.054
11949TIP3    H159826   1.866   2.079   2.007
11949TIP3    H259827   1.889   2.213   2.068
11950TIP3   OH259828   0.076   2.132   2.320
11950TIP3    H159829  -0.018   2.157   2.335
11950TIP3    H259830   0.114   2.212   2.277
11951TIP3   OH259831   1.528   3.645   2.565
11951TIP3    H159832   1.596   3.616   2.502
11951TIP3    H259833   1.580   3.696   2.629
11952TIP3   OH259834   0.066   2.029   3.213
11952TIP3    H159835  -0.005   2.003   3.271
11952TIP3    H259836   0.015   2.091   3.156
11953TIP3   OH259837   1.014   3.703   3.067
11953TIP3    H159838   0.980   3.764   2.999
11953TIP3    H259839   1.037   3.771   3.137
11954TIP3   OH259840   1.249   3.588   3.166
11954TIP3    H159841   1.165   3.622   3.131
11954TIP3    H259842   1.300   3.670   3.158
11955TIP3   OH259843   1.515   3.749   3.197
11955TIP3    H159844   1.506   3.844   3.170
11955TIP3    H259845   1.530   3.710   3.108
11956TIP3   OH259846   0.257   3.629   2.934
11956TIP3    H159847   0.241   3.583   3.017
11956TIP3    H259848   0.334   3.585   2.893
11957TIP3   OH259849   0.458   3.493   2.805
11957TIP3    H159850   0.442   3.399   2.826
11957TIP3    H259851   0.545   3.511   2.846
11958TIP3   OH259852   0.712   3.544   2.889
11958TIP3    H159853   0.733   3.455   2.859
11958TIP3    H259854   0.730   3.541   2.984
11959TIP3   OH259855   1.065   2.109   2.804
11959TIP3    H159856   0.997   2.046   2.831
11959TIP3    H259857   1.119   2.056   2.744
11960TIP3   OH259858   1.581   1.913   2.809
11960TIP3    H159859   1.641   1.974   2.760
11960TIP3    H259860   1.492   1.950   2.789
11961TIP3   OH259861   1.744   2.038   2.637
11961TIP3    H159862   1.814   1.982   2.597
11961TIP3    H259863   1.795   2.122   2.648
11962TIP3   OH259864   0.305   1.971   2.587
11962TIP3    H159865   0.226   1.952   2.532
11962TIP3    H259866   0.352   1.885   2.579
11963TIP3   OH259867   0.171   1.944   2.155
11963TIP3    H159868   0.233   2.004   2.108
11963TIP3    H259869   0.129   2.006   2.218
11964TIP3   OH259870   0.749   1.964   2.568
11964TIP3    H159871   0.838   2.000   2.559
11964TIP3    H259872   0.746   1.944   2.662
11965TIP3   OH259873   1.322   1.966   2.728
11965TIP3    H159874   1.315   1.977   2.633
11965TIP3    H259875   1.283   1.876   2.741
11966TIP3   OH259876   1.446   1.971   2.292
11966TIP3    H159877   1.367   2.028   2.287
11966TIP3    H259878   1.407   1.886   2.323
11967TIP3   OH259879   0.162   3.548   2.269
11967TIP3    H159880   0.113   3.547   2.186
11967TIP3    H259881   0.171   3.644   2.278
11968TIP3   OH259882   0.365   2.169   2.004
11968TIP3    H159883   0.403   2.084   1.971
11968TIP3    H259884   0.431   2.175   2.076
11969TIP3   OH259885   0.869   2.166   2.249
11969TIP3    H159886   0.888   2.109   2.325
11969TIP3    H259887   0.871   2.252   2.295
11970TIP3   OH259888   1.058   3.670   2.098
11970TIP3    H159889   1.149   3.695   2.075
11970TIP3    H259890   1.036   3.622   2.016
11971TIP3   OH259891   1.727   3.622   2.369
11971TIP3    H159892   1.708   3.544   2.312
11971TIP3    H259893   1.720   3.696   2.304
11972TIP3   OH259894   0.346   3.635   1.955
11972TIP3    H159895   0.326   3.667   2.044
11972TIP3    H259896   0.430   3.586   1.969
11973TIP3   OH259897   3.098   2.887   2.571
11973TIP3    H159898   3.095   2.985   2.572
11973TIP3    H259899   3.024   2.864   2.512
11974TIP3   OH259900   2.984   2.809   2.924
11974TIP3    H159901   2.979   2.744   2.995
11974TIP3    H259902   2.948   2.760   2.849
11975TIP3   OH259903   2.182   2.775   3.085
11975TIP3    H159904   2.192   2.711   3.159
11975TIP3    H259905   2.224   2.859   3.108
11976TIP3   OH259906   3.347   3.107   2.748
11976TIP3    H159907   3.309   3.036   2.800
11976TIP3    H259908   3.354   3.177   2.817
11977TIP3   OH259909   2.308   3.224   2.927
11977TIP3    H159910   2.280   3.135   2.898
11977TIP3    H259911   2.405   3.211   2.933
11978TIP3   OH259912   1.934   2.588   2.520
11978TIP3    H159913   1.931   2.673   2.474
11978TIP3    H259914   1.933   2.531   2.440
11979TIP3   OH259915   2.051   2.805   2.697
11979TIP3    H159916   2.070   2.716   2.733
11979TIP3    H259917   2.110   2.810   2.621
11980TIP3   OH259918   3.062   3.622   2.776
11980TIP3    H159919   3.127   3.553   2.746
11980TIP3    H259920   3.040   3.587   2.862
11981TIP3   OH259921   2.817   3.045   2.973
11981TIP3    H159922   2.856   2.991   2.903
11981TIP3    H259923   2.898   3.070   3.020
11982TIP3   OH259924   3.681   2.216   3.046
11982TIP3    H159925   3.696   2.277   3.120
11982TIP3    H259926   3.735   2.258   2.977
11983TIP3   OH259927   3.133   2.497   3.004
11983TIP3    H159928   3.155   2.403   3.002
11983TIP3    H259929   3.125   2.513   2.908
11984TIP3   OH259930   2.448   2.307   2.724
11984TIP3    H159931   2.458   2.389   2.673
11984TIP3    H259932   2.407   2.250   2.655
11985TIP3   OH259933   3.221   2.314   2.561
11985TIP3    H159934   3.285   2.283   2.628
11985TIP3    H259935   3.277   2.373   2.509
11986TIP3   OH259936   2.113   2.552   2.801
11986TIP3    H159937   2.176   2.489   2.840
11986TIP3    H259938   2.118   2.519   2.708
11987TIP3   OH259939   2.623   2.702   2.730
11987TIP3    H159940   2.695   2.645   2.764
11987TIP3    H259941   2.575   2.638   2.674
11988TIP3   OH259942   3.729   2.366   3.269
11988TIP3    H159943   3.656   2.432   3.259
11988TIP3    H259944   3.720   2.339   3.362
11989TIP3   OH259945   2.330   2.195   3.122
11989TIP3    H159946   2.309   2.257   3.049
11989TIP3    H259947   2.271   2.225   3.194
11990TIP3   OH259948   3.066   3.145   2.482
11990TIP3    H159949   3.041   3.118   2.392
11990TIP3    H259950   3.036   3.238   2.487
11991TIP3   OH259951   3.402   2.250   2.761
11991TIP3    H159952   3.380   2.173   2.814
11991TIP3    H259953   3.470   2.293   2.816
11992TIP3   OH259954   2.292   2.385   2.928
11992TIP3    H159955   2.359   2.447   2.961
11992TIP3    H259956   2.343   2.339   2.857
11993TIP3   OH259957   2.043   3.121   2.311
11993TIP3    H159958   2.018   3.157   2.224
11993TIP3    H259959   2.050   3.204   2.363
11994TIP3   OH259960   3.398   3.289   2.978
11994TIP3    H159961   3.304   3.303   3.002
11994TIP3    H259962   3.429   3.382   2.971
11995TIP3   OH259963   3.430   2.120   3.129
11995TIP3    H159964   3.361   2.187   3.114
11995TIP3    H259965   3.505   2.159   3.081
11996TIP3   OH259966   2.733   1.931   2.872
11996TIP3    H159967   2.717   1.835   2.867
11996TIP3    H259968   2.646   1.962   2.904
11997TIP3   OH259969   3.229   3.469   2.646
11997TIP3    H159970   3.273   3.397   2.597
11997TIP3    H259971   3.277   3.547   2.610
11998TIP3   OH259972   3.346   3.260   2.498
11998TIP3    H159973   3.319   3.189   2.438
11998TIP3    H259974   3.354   3.212   2.582
11999TIP3   OH259975   2.961   2.809   2.325
11999TIP3    H159976   2.893   2.868   2.288
11999TIP3    H259977   3.033   2.819   2.259
12000TIP3   OH259978   2.969   2.667   2.027
12000TIP3    H159979   3.042   2.666   2.090
12000TIP3    H259980   2.999   2.596   1.970
12001TIP3   OH259981   3.703   2.751   3.158
12001TIP3    H159982   3.637   2.825   3.163
12001TIP3    H259983   3.747   2.779   3.075
12002TIP3   OH259984   3.309   2.830   2.417
12002TIP3    H159985   3.234   2.855   2.476
12002TIP3    H259986   3.356   2.763   2.470
12003TIP3   OH259987   3.293   2.644   3.329
12003TIP3    H159988   3.309   2.727   3.376
12003TIP3    H259989   3.236   2.674   3.255
12004TIP3   OH259990   2.466   2.896   2.611
12004TIP3    H159991   2.434   2.857   2.526
12004TIP3    H259992   2.530   2.828   2.641
12005TIP3   OH259993   2.597   3.232   2.876
12005TIP3    H159994   2.602   3.183   2.793
12005TIP3    H259995   2.677   3.201   2.922
12006TIP3   OH259996   2.518   2.775   2.967
12006TIP3    H159997   2.565   2.782   2.880
12006TIP3    H259998   2.562   2.845   3.015
12007TIP3   OH259999   3.144   3.329   3.049
12007TIP3    H160000   3.111   3.394   3.113
12007TIP3    H260001   3.116   3.244   3.088
12008TIP3   OH260002   3.194   2.754   2.185
12008TIP3    H160003   3.251   2.770   2.265
12008TIP3    H260004   3.240   2.801   2.112
12009TIP3   OH260005   2.291   2.837   3.347
12009TIP3    H160006   2.297   2.890   3.429
12009TIP3    H260007   2.193   2.842   3.339
12010TIP3   OH260008   2.966   3.423   2.531
12010TIP3    H160009   3.009   3.454   2.611
12010TIP3    H260010   2.911   3.498   2.506
12011TIP3   OH260011   3.568   1.923   2.173
12011TIP3    H160012   3.473   1.934   2.197
12011TIP3    H260013   3.588   2.008   2.130
12012TIP3   OH260014   2.363   2.798   2.373
12012TIP3    H160015   2.334   2.874   2.320
12012TIP3    H260016   2.300   2.729   2.346
12013TIP3   OH260017   3.678   3.360   2.008
12013TIP3    H160018   3.696   3.454   2.025
12013TIP3    H260019   3.770   3.327   2.010
12014TIP3   OH260020   1.986   3.035   3.246
12014TIP3    H160021   1.924   3.034   3.171
12014TIP3    H260022   1.973   2.948   3.286
12015TIP3   OH260023   1.953   3.319   2.936
12015TIP3    H160024   2.048   3.302   2.938
12015TIP3    H260025   1.942   3.396   2.993
12016TIP3   OH260026   2.872   3.347   3.389
12016TIP3    H160027   2.878   3.421   3.452
12016TIP3    H260028   2.786   3.310   3.412
12017TIP3   OH260029   2.914   3.713   2.371
12017TIP3    H160030   2.903   3.706   2.275
12017TIP3    H260031   2.914   3.810   2.388
12018TIP3   OH260032   2.278   3.602   2.555
12018TIP3    H160033   2.293   3.561   2.643
12018TIP3    H260034   2.193   3.561   2.531
12019TIP3   OH260035   3.220   3.635   2.070
12019TIP3    H160036   3.266   3.559   2.027
12019TIP3    H260037   3.224   3.610   2.165
12020TIP3   OH260038   3.188   3.629   2.347
12020TIP3    H160039   3.092   3.636   2.364
12020TIP3    H260040   3.212   3.555   2.405
12021TIP3   OH260041   2.470   2.022   2.947
12021TIP3    H160042   2.379   2.010   2.911
12021TIP3    H260043   2.459   2.105   2.997
12022TIP3   OH260044   3.244   2.366   3.372
12022TIP3    H160045   3.214   2.361   3.463
12022TIP3    H260046   3.253   2.462   3.355
12023TIP3   OH260047   3.340   2.854   1.967
12023TIP3    H160048   3.337   2.834   1.870
12023TIP3    H260049   3.425   2.900   1.970
12024TIP3   OH260050   2.899   2.247   2.016
12024TIP3    H160051   2.867   2.240   2.108
12024TIP3    H260052   2.868   2.159   1.985
12025TIP3   OH260053   2.479   2.517   3.071
12025TIP3    H160054   2.410   2.513   3.140
12025TIP3    H260055   2.482   2.605   3.030
12026TIP3   OH260056   2.479   2.528   2.562
12026TIP3    H160057   2.385   2.507   2.549
12026TIP3    H260058   2.515   2.502   2.476
12027TIP3   OH260059   3.029   2.581   2.439
12027TIP3    H160060   2.990   2.663   2.401
12027TIP3    H260061   3.097   2.562   2.372
12028TIP3   OH260062   3.133   2.530   2.723
12028TIP3    H160063   3.104   2.586   2.649
12028TIP3    H260064   3.142   2.445   2.676
12029TIP3   OH260065   2.245   2.552   3.242
12029TIP3    H160066   2.252   2.585   3.334
12029TIP3    H260067   2.205   2.465   3.261
12030TIP3   OH260068   2.579   2.282   1.928
12030TIP3    H160069   2.532   2.242   2.005
12030TIP3    H260070   2.508   2.326   1.879
12031TIP3   OH260071   1.907   2.248   2.639
12031TIP3    H160072   1.978   2.252   2.706
12031TIP3    H260073   1.955   2.220   2.560
12032TIP3   OH260074   2.011   2.314   2.144
12032TIP3    H160075   2.087   2.373   2.123
12032TIP3    H260076   1.974   2.378   2.209
12033TIP3   OH260077   3.054   2.688   3.183
12033TIP3    H160078   3.088   2.621   3.120
12033TIP3    H260079   3.001   2.630   3.243
12034TIP3   OH260080   2.732   2.287   2.662
12034TIP3    H160081   2.638   2.286   2.691
12034TIP3    H260082   2.780   2.267   2.744
12035TIP3   OH260083   2.209   2.424   2.574
12035TIP3    H160084   2.142   2.462   2.512
12035TIP3    H260085   2.246   2.361   2.510
12036TIP3   OH260086   2.578   2.444   2.310
12036TIP3    H160087   2.672   2.458   2.326
12036TIP3    H260088   2.551   2.513   2.247
12037TIP3   OH260089   3.174   2.208   2.987
12037TIP3    H160090   3.103   2.217   3.054
12037TIP3    H260091   3.124   2.183   2.907
12038TIP3   OH260092   2.452   2.562   2.069
12038TIP3    H160093   2.395   2.525   1.999
12038TIP3    H260094   2.532   2.584   2.020
12039TIP3   OH260095   2.856   2.562   2.853
12039TIP3    H160096   2.917   2.511   2.798
12039TIP3    H260097   2.847   2.504   2.930
12040TIP3   OH260098   2.365   2.173   2.498
12040TIP3    H160099   2.330   2.082   2.492
12040TIP3    H260100   2.440   2.169   2.438
12041TIP3   OH260101   2.726   2.395   3.092
12041TIP3    H160102   2.642   2.443   3.103
12041TIP3    H260103   2.780   2.425   3.166
12042TIP3   OH260104   2.784   3.015   2.263
12042TIP3    H160105   2.703   2.970   2.228
12042TIP3    H260106   2.760   3.029   2.356
12043TIP3   OH260107   3.502   2.922   3.133
12043TIP3    H160108   3.559   2.986   3.086
12043TIP3    H260109   3.417   2.941   3.091
12044TIP3   OH260110   3.165   2.297   2.080
12044TIP3    H160111   3.070   2.313   2.065
12044TIP3    H260112   3.200   2.382   2.115
12045TIP3   OH260113   3.238   2.491   2.245
12045TIP3    H160114   3.327   2.476   2.284
12045TIP3    H260115   3.250   2.572   2.192
12046TIP3   OH260116   2.305   2.955   2.852
12046TIP3    H160117   2.359   2.952   2.770
12046TIP3    H260118   2.297   2.862   2.874
12047TIP3   OH260119   2.992   3.162   2.165
12047TIP3    H160120   2.958   3.247   2.200
12047TIP3    H260121   2.919   3.101   2.188
12048TIP3   OH260122   2.010   2.780   3.357
12048TIP3    H160123   2.006   2.759   3.453
12048TIP3    H260124   1.925   2.741   3.329
12049TIP3   OH260125   3.150   3.275   3.388
12049TIP3    H160126   3.064   3.311   3.360
12049TIP3    H260127   3.164   3.316   3.474
12050TIP3   OH260128   3.730   2.501   2.218
12050TIP3    H160129   3.673   2.476   2.143
12050TIP3    H260130   3.738   2.597   2.198
12051TIP3   OH260131   3.557   3.385   2.259
12051TIP3    H160132   3.522   3.303   2.294
12051TIP3    H260133   3.589   3.363   2.170
12052TIP3   OH260134   3.276   2.867   2.971
12052TIP3    H160135   3.183   2.845   2.955
12052TIP3    H260136   3.322   2.793   2.926
12053TIP3   OH260137   2.532   3.301   2.581
12053TIP3    H160138   2.582   3.382   2.560
12053TIP3    H260139   2.444   3.324   2.548
12054TIP3   OH260140   2.108   2.791   2.029
12054TIP3    H160141   2.166   2.848   2.082
12054TIP3    H260142   2.019   2.812   2.065
12055TIP3   OH260143   2.671   3.069   2.529
12055TIP3    H160144   2.640   3.160   2.542
12055TIP3    H260145   2.602   3.018   2.576
12056TIP3   OH260146   2.719   3.492   3.175
12056TIP3    H160147   2.770   3.564   3.140
12056TIP3    H260148   2.781   3.448   3.237
12057TIP3   OH260149   2.541   3.566   2.484
12057TIP3    H160150   2.445   3.581   2.498
12057TIP3    H260151   2.578   3.650   2.518
12058TIP3   OH260152   3.064   3.081   3.131
12058TIP3    H160153   3.043   3.072   3.224
12058TIP3    H260154   3.137   3.018   3.117
12059TIP3   OH260155   3.305   3.195   2.043
12059TIP3    H160156   3.334   3.146   2.123
12059TIP3    H260157   3.210   3.175   2.051
12060TIP3   OH260158   3.346   3.539   3.386
12060TIP3    H160159   3.279   3.494   3.335
12060TIP3    H260160   3.371   3.611   3.326
12061TIP3   OH260161   3.747   3.629   2.066
12061TIP3    H160162   3.817   3.693   2.047
12061TIP3    H260163   3.678   3.690   2.100
12062TIP3   OH260164   2.159   2.271   3.317
12062TIP3    H160165   2.068   2.303   3.314
12062TIP3    H260166   2.161   2.192   3.370
12063TIP3   OH260167   3.382   3.057   2.269
12063TIP3    H160168   3.358   2.978   2.321
12063TIP3    H260169   3.477   3.061   2.286
12064TIP3   OH260170   2.120   3.451   3.167
12064TIP3    H160171   2.146   3.357   3.167
12064TIP3    H260172   2.148   3.476   3.256
12065TIP3   OH260173   2.718   3.301   1.894
12065TIP3    H160174   2.727   3.225   1.835
12065TIP3    H260175   2.672   3.258   1.970
12066TIP3   OH260176   2.593   3.253   2.139
12066TIP3    H160177   2.622   3.202   2.216
12066TIP3    H260178   2.604   3.346   2.172
12067TIP3   OH260179   2.249   2.978   2.189
12067TIP3    H160180   2.176   3.016   2.241
12067TIP3    H260181   2.298   3.056   2.158
12068TIP3   OH260182   3.031   2.244   3.217
12068TIP3    H160183   3.106   2.252   3.279
12068TIP3    H260184   2.987   2.163   3.237
12069TIP3   OH260185   3.108   2.200   2.327
12069TIP3    H160186   3.129   2.249   2.245
12069TIP3    H260187   3.163   2.247   2.391
12070TIP3   OH260188   2.875   3.419   2.208
12070TIP3    H160189   2.793   3.472   2.216
12070TIP3    H260190   2.929   3.475   2.150
12071TIP3   OH260191   2.829   2.377   2.410
12071TIP3    H160192   2.906   2.437   2.415
12071TIP3    H260193   2.802   2.365   2.503
12072TIP3   OH260194   2.910   2.503   3.320
12072TIP3    H160195   2.877   2.532   3.407
12072TIP3    H260196   2.933   2.411   3.339
12073TIP3   OH260197   2.914   2.083   2.497
12073TIP3    H160198   2.880   2.148   2.562
12073TIP3    H260199   2.983   2.138   2.454
12074TIP3   OH260200   2.615   3.522   2.212
12074TIP3    H160201   2.624   3.604   2.156
12074TIP3    H260202   2.587   3.559   2.298
12075TIP3   OH260203   2.480   2.194   2.168
12075TIP3    H160204   2.471   2.284   2.208
12075TIP3    H260205   2.571   2.172   2.197
12076TIP3   OH260206   3.499   2.269   3.414
12076TIP3    H160207   3.409   2.301   3.400
12076TIP3    H260208   3.533   2.267   3.324
12077TIP3   OH260209   3.364   2.647   2.813
12077TIP3    H160210   3.281   2.602   2.787
12077TIP3    H260211   3.412   2.579   2.865
12078TIP3   OH260212   2.302   3.239   2.073
12078TIP3    H160213   2.370   3.300   2.105
12078TIP3    H260214   2.355   3.192   2.005
12079TIP3   OH260215   2.141   2.509   1.972
12079TIP3    H160216   2.141   2.597   2.017
12079TIP3    H260217   2.048   2.488   1.963
12080TIP3   OH260218   3.469   3.582   2.983
12080TIP3    H160219   3.462   3.642   2.907
12080TIP3    H260220   3.565   3.579   2.998
12081TIP3   OH260221   2.218   1.985   2.862
12081TIP3    H160222   2.201   1.987   2.766
12081TIP3    H260223   2.179   1.898   2.884
12082TIP3   OH260224   2.114   3.377   2.478
12082TIP3    H160225   2.029   3.421   2.471
12082TIP3    H260226   2.161   3.422   2.406
12083TIP3   OH260227   2.917   3.486   1.906
12083TIP3    H160228   2.847   3.420   1.927
12083TIP3    H260229   2.989   3.425   1.881
12084TIP3   OH260230   3.372   3.459   1.923
12084TIP3    H160231   3.402   3.383   1.976
12084TIP3    H260232   3.449   3.481   1.870
12085TIP3   OH260233   2.461   3.054   1.905
12085TIP3    H160234   2.475   2.978   1.964
12085TIP3    H260235   2.536   3.042   1.844
12086TIP3   OH260236   3.004   3.165   1.884
12086TIP3    H160237   2.977   3.172   1.977
12086TIP3    H260238   2.986   3.069   1.869
12087TIP3   OH260239   2.583   2.857   2.151
12087TIP3    H160240   2.528   2.802   2.210
12087TIP3    H260241   2.611   2.789   2.085
12088TIP3   OH260242   2.487   2.639   3.358
12088TIP3    H160243   2.459   2.711   3.418
12088TIP3    H260244   2.562   2.673   3.307
12089TIP3   OH260245   2.689   2.679   1.969
12089TIP3    H160246   2.674   2.670   1.872
12089TIP3    H260247   2.787   2.683   1.976
12090TIP3   OH260248   3.620   2.912   1.911
12090TIP3    H160249   3.604   2.872   1.824
12090TIP3    H260250   3.630   3.008   1.891
12091TIP3   OH260251   2.586   2.201   3.234
12091TIP3    H160252   2.640   2.259   3.176
12091TIP3    H260253   2.497   2.205   3.195
12092TIP3   OH260254   2.736   2.766   3.252
12092TIP3    H160255   2.818   2.740   3.206
12092TIP3    H260256   2.716   2.855   3.225
12093TIP3   OH260257   2.676   1.954   3.270
12093TIP3    H160258   2.652   2.050   3.278
12093TIP3    H260259   2.593   1.919   3.234
12094TIP3   OH260260   2.672   3.749   2.077
12094TIP3    H160261   2.768   3.756   2.084
12094TIP3    H260262   2.658   3.807   2.002
12095TIP3   OH260263   2.026   3.205   2.025
12095TIP3    H160264   2.123   3.214   2.042
12095TIP3    H260265   2.031   3.141   1.949
12096TIP3   OH260266   1.905   3.744   2.520
12096TIP3    H160267   1.833   3.695   2.475
12096TIP3    H260268   1.933   3.679   2.587
12097TIP3   OH260269   1.988   3.558   2.708
12097TIP3    H160270   1.952   3.470   2.729
12097TIP3    H260271   2.012   3.590   2.796
12098TIP3   OH260272   3.702   3.588   3.302
12098TIP3    H160273   3.648   3.515   3.266
12098TIP3    H260274   3.754   3.544   3.369
12099TIP3   OH260275   3.674   3.000   2.305
12099TIP3    H160276   3.760   3.040   2.323
12099TIP3    H260277   3.672   2.929   2.373
12100TIP3   OH260278   3.711   2.810   2.496
12100TIP3    H160279   3.635   2.761   2.535
12100TIP3    H260280   3.771   2.822   2.572
12101TIP3   OH260281   3.686   3.076   2.990
12101TIP3    H160282   3.771   3.040   2.958
12101TIP3    H260283   3.701   3.172   2.980
12102TIP3   OH260284   3.540   3.371   3.220
12102TIP3    H160285   3.474   3.400   3.285
12102TIP3    H260286   3.488   3.325   3.153
12103TIP3   OH260287   3.740   2.791   2.133
12103TIP3    H160288   3.683   2.826   2.062
12103TIP3    H260289   3.730   2.862   2.199
12104TIP3   OH260290   3.579   2.513   1.985
12104TIP3    H160291   3.586   2.581   1.917
12104TIP3    H260292   3.560   2.431   1.934
12105TIP3   OH260293   3.493   2.656   2.553
12105TIP3    H160294   3.478   2.561   2.547
12105TIP3    H260295   3.461   2.676   2.643
12106TIP3   OH260296   1.989   2.881   2.950
12106TIP3    H160297   2.007   2.857   2.857
12106TIP3    H260298   2.069   2.847   2.994
12107TIP3   OH260299   3.504   2.259   1.898
12107TIP3    H160300   3.563   2.218   1.963
12107TIP3    H260301   3.416   2.222   1.915
12108TIP3   OH260302   3.457   2.415   2.393
12108TIP3    H160303   3.489   2.323   2.409
12108TIP3    H260304   3.540   2.455   2.363
12109TIP3   OH260305   3.525   2.469   2.941
12109TIP3    H160306   3.620   2.492   2.941
12109TIP3    H260307   3.505   2.484   3.035
12110TIP3   OH260308   3.531   2.540   3.213
12110TIP3    H160309   3.445   2.568   3.253
12110TIP3    H260310   3.575   2.627   3.196
12111TIP3   OH260311   3.528   2.144   2.402
12111TIP3    H160312   3.549   2.101   2.488
12111TIP3    H260313   3.468   2.079   2.359
12112TIP3   OH260314   2.074   2.222   2.861
12112TIP3    H160315   2.124   2.141   2.881
12112TIP3    H260316   2.130   2.293   2.894
12113TIP3   OH260317   1.908   2.518   2.967
12113TIP3    H160318   1.958   2.500   2.885
12113TIP3    H260319   1.946   2.605   2.988
12114TIP3   OH260320   3.706   2.148   2.056
12114TIP3    H160321   3.747   2.078   2.000
12114TIP3    H260322   3.777   2.214   2.061
12115TIP3   OH260323   1.938   2.145   2.362
12115TIP3    H160324   1.846   2.173   2.355
12115TIP3    H260325   1.982   2.203   2.297
12116TIP3   OH260326   3.415   3.646   2.565
12116TIP3    H160327   3.483   3.617   2.501
12116TIP3    H260328   3.469   3.693   2.629
12117TIP3   OH260329   3.613   1.967   3.366
12117TIP3    H160330   3.524   1.990   3.334
12117TIP3    H260331   3.623   1.883   3.321
12118TIP3   OH260332   2.191   3.763   3.251
12118TIP3    H160333   2.118   3.807   3.202
12118TIP3    H260334   2.152   3.736   3.334
12119TIP3   OH260335   2.440   3.728   3.151
12119TIP3    H160336   2.350   3.727   3.189
12119TIP3    H260337   2.429   3.778   3.068
12120TIP3   OH260338   2.903   3.708   3.065
12120TIP3    H160339   2.866   3.765   2.995
12120TIP3    H260340   2.926   3.772   3.135
12121TIP3   OH260341   3.135   3.592   3.169
12121TIP3    H160342   3.050   3.618   3.129
12121TIP3    H260343   3.187   3.674   3.160
12122TIP3   OH260344   3.389   3.753   3.185
12122TIP3    H160345   3.395   3.846   3.166
12122TIP3    H260346   3.423   3.708   3.105
12123TIP3   OH260347   2.140   3.625   2.934
12123TIP3    H160348   2.131   3.577   3.019
12123TIP3    H260349   2.222   3.586   2.898
12124TIP3   OH260350   2.346   3.494   2.799
12124TIP3    H160351   2.330   3.401   2.824
12124TIP3    H260352   2.430   3.511   2.847
12125TIP3   OH260353   2.607   3.544   2.890
12125TIP3    H160354   2.620   3.450   2.864
12125TIP3    H260355   2.607   3.534   2.987
12126TIP3   OH260356   2.952   2.109   2.805
12126TIP3    H160357   2.882   2.046   2.830
12126TIP3    H260358   3.005   2.056   2.744
12127TIP3   OH260359   3.466   1.913   2.809
12127TIP3    H160360   3.526   1.973   2.758
12127TIP3    H260361   3.377   1.949   2.787
12128TIP3   OH260362   3.631   2.039   2.636
12128TIP3    H160363   3.700   1.982   2.595
12128TIP3    H260364   3.682   2.123   2.648
12129TIP3   OH260365   2.188   1.972   2.585
12129TIP3    H160366   2.107   1.952   2.535
12129TIP3    H260367   2.233   1.885   2.581
12130TIP3   OH260368   2.059   1.949   2.154
12130TIP3    H160369   2.117   2.013   2.109
12130TIP3    H260370   2.011   2.006   2.216
12131TIP3   OH260371   2.634   1.964   2.567
12131TIP3    H160372   2.724   2.000   2.557
12131TIP3    H260373   2.632   1.943   2.660
12132TIP3   OH260374   3.208   1.966   2.728
12132TIP3    H160375   3.201   1.978   2.632
12132TIP3    H260376   3.168   1.876   2.741
12133TIP3   OH260377   3.332   1.969   2.298
12133TIP3    H160378   3.258   2.028   2.282
12133TIP3    H260379   3.288   1.884   2.322
12134TIP3   OH260380   2.055   3.542   2.264
12134TIP3    H160381   1.990   3.540   2.191
12134TIP3    H260382   2.056   3.637   2.280
12135TIP3   OH260383   2.247   2.139   2.012
12135TIP3    H160384   2.301   2.080   1.958
12135TIP3    H260385   2.313   2.174   2.074
12136TIP3   OH260386   2.748   2.165   2.252
12136TIP3    H160387   2.775   2.108   2.326
12136TIP3    H260388   2.758   2.253   2.296
12137TIP3   OH260389   2.944   3.674   2.096
12137TIP3    H160390   3.036   3.695   2.074
12137TIP3    H260391   2.922   3.621   2.017
12138TIP3   OH260392   3.618   3.622   2.369
12138TIP3    H160393   3.594   3.544   2.313
12138TIP3    H260394   3.608   3.695   2.305
12139TIP3   OH260395   2.235   3.641   1.957
12139TIP3    H160396   2.209   3.667   2.047
12139TIP3    H260397   2.313   3.584   1.972
12140TIP3   OH260398   4.984   2.887   2.570
12140TIP3    H160399   4.978   2.985   2.572
12140TIP3    H260400   4.908   2.864   2.514
12141TIP3   OH260401   4.865   2.811   2.927
12141TIP3    H160402   4.863   2.738   2.988
12141TIP3    H260403   4.835   2.766   2.845
12142TIP3   OH260404   4.106   2.769   3.079
12142TIP3    H160405   4.115   2.719   3.159
12142TIP3    H260406   4.173   2.838   3.095
12143TIP3   OH260407   5.233   3.107   2.749
12143TIP3    H160408   5.194   3.036   2.800
12143TIP3    H260409   5.241   3.175   2.818
12144TIP3   OH260410   3.858   2.578   2.479
12144TIP3    H160411   3.817   2.666   2.471
12144TIP3    H260412   3.802   2.525   2.420
12145TIP3   OH260413   3.931   2.802   2.693
12145TIP3    H160414   3.957   2.718   2.736
12145TIP3    H260415   4.000   2.811   2.626
12146TIP3   OH260416   4.950   3.626   2.780
12146TIP3    H160417   5.011   3.556   2.746
12146TIP3    H260418   4.926   3.589   2.864
12147TIP3   OH260419   5.577   2.212   3.046
12147TIP3    H160420   5.578   2.279   3.118
12147TIP3    H260421   5.618   2.263   2.975
12148TIP3   OH260422   5.016   2.498   3.005
12148TIP3    H160423   5.039   2.403   3.004
12148TIP3    H260424   5.012   2.512   2.908
12149TIP3   OH260425   4.332   2.305   2.723
12149TIP3    H160426   4.344   2.389   2.674
12149TIP3    H260427   4.293   2.249   2.653
12150TIP3   OH260428   5.106   2.314   2.560
12150TIP3    H160429   5.171   2.283   2.628
12150TIP3    H260430   5.163   2.374   2.508
12151TIP3   OH260431   3.995   2.548   2.797
12151TIP3    H160432   4.063   2.493   2.840
12151TIP3    H260433   4.005   2.518   2.706
12152TIP3   OH260434   4.510   2.703   2.733
12152TIP3    H160435   4.580   2.645   2.767
12152TIP3    H260436   4.461   2.640   2.676
12153TIP3   OH260437   5.610   2.357   3.273
12153TIP3    H160438   5.548   2.432   3.261
12153TIP3    H260439   5.609   2.346   3.370
12154TIP3   OH260440   4.224   2.201   3.123
12154TIP3    H160441   4.193   2.256   3.048
12154TIP3    H260442   4.158   2.211   3.193
12155TIP3   OH260443   4.959   3.145   2.481
12155TIP3    H160444   4.921   3.117   2.397
12155TIP3    H260445   4.923   3.236   2.489
12156TIP3   OH260446   5.289   2.250   2.760
12156TIP3    H160447   5.267   2.173   2.814
12156TIP3    H260448   5.355   2.294   2.815
12157TIP3   OH260449   4.180   2.384   2.931
12157TIP3    H160450   4.247   2.451   2.958
12157TIP3    H260451   4.230   2.341   2.856
12158TIP3   OH260452   3.927   3.121   2.308
12158TIP3    H160453   3.900   3.159   2.222
12158TIP3    H260454   3.929   3.200   2.364
12159TIP3   OH260455   5.290   3.290   2.981
12159TIP3    H160456   5.194   3.302   2.998
12159TIP3    H260457   5.319   3.383   2.970
12160TIP3   OH260458   4.617   1.932   2.871
12160TIP3    H160459   4.603   1.835   2.867
12160TIP3    H260460   4.530   1.962   2.905
12161TIP3   OH260461   5.114   3.470   2.646
12161TIP3    H160462   5.157   3.396   2.597
12161TIP3    H260463   5.162   3.547   2.609
12162TIP3   OH260464   5.235   3.262   2.499
12162TIP3    H160465   5.205   3.192   2.439
12162TIP3    H260466   5.240   3.212   2.583
12163TIP3   OH260467   4.849   2.807   2.325
12163TIP3    H160468   4.776   2.861   2.292
12163TIP3    H260469   4.918   2.821   2.258
12164TIP3   OH260470   4.857   2.668   2.025
12164TIP3    H160471   4.927   2.665   2.092
12164TIP3    H260472   4.886   2.594   1.969
12165TIP3   OH260473   5.591   2.749   3.153
12165TIP3    H160474   5.525   2.822   3.158
12165TIP3    H260475   5.636   2.776   3.071
12166TIP3   OH260476   5.193   2.829   2.416
12166TIP3    H160477   5.120   2.855   2.477
12166TIP3    H260478   5.241   2.763   2.469
12167TIP3   OH260479   5.172   2.648   3.329
12167TIP3    H160480   5.192   2.728   3.382
12167TIP3    H260481   5.129   2.683   3.251
12168TIP3   OH260482   4.349   2.894   2.615
12168TIP3    H160483   4.325   2.862   2.525
12168TIP3    H260484   4.417   2.828   2.641
12169TIP3   OH260485   4.391   2.769   2.978
12169TIP3    H160486   4.441   2.777   2.893
12169TIP3    H260487   4.425   2.840   3.032
12170TIP3   OH260488   5.033   3.332   3.048
12170TIP3    H160489   4.992   3.391   3.110
12170TIP3    H260490   5.002   3.245   3.083
12171TIP3   OH260491   5.081   2.752   2.183
12171TIP3    H160492   5.136   2.769   2.263
12171TIP3    H260493   5.127   2.801   2.111
12172TIP3   OH260494   4.167   2.820   3.370
12172TIP3    H160495   4.181   2.896   3.429
12172TIP3    H260496   4.078   2.844   3.338
12173TIP3   OH260497   4.855   3.425   2.529
12173TIP3    H160498   4.894   3.453   2.612
12173TIP3    H260499   4.795   3.497   2.507
12174TIP3   OH260500   5.453   1.924   2.175
12174TIP3    H160501   5.358   1.935   2.198
12174TIP3    H260502   5.473   2.008   2.130
12175TIP3   OH260503   4.250   2.799   2.371
12175TIP3    H160504   4.224   2.877   2.318
12175TIP3    H260505   4.186   2.732   2.345
12176TIP3   OH260506   5.564   3.359   2.009
12176TIP3    H160507   5.582   3.453   2.026
12176TIP3    H260508   5.656   3.327   2.010
12177TIP3   OH260509   3.870   3.039   3.240
12177TIP3    H160510   3.809   3.035   3.166
12177TIP3    H260511   3.857   2.952   3.283
12178TIP3   OH260512   3.834   3.317   2.940
12178TIP3    H160513   3.930   3.304   2.936
12178TIP3    H260514   3.829   3.395   2.996
12179TIP3   OH260515   4.812   3.715   2.371
12179TIP3    H160516   4.787   3.703   2.277
12179TIP3    H260517   4.797   3.810   2.388
12180TIP3   OH260518   5.105   3.636   2.070
12180TIP3    H160519   5.150   3.559   2.028
12180TIP3    H260520   5.105   3.609   2.164
12181TIP3   OH260521   5.076   3.628   2.348
12181TIP3    H160522   4.979   3.637   2.364
12181TIP3    H260523   5.097   3.553   2.406
12182TIP3   OH260524   4.356   2.025   2.940
12182TIP3    H160525   4.264   2.011   2.909
12182TIP3    H260526   4.344   2.101   3.000
12183TIP3   OH260527   4.826   1.995   3.285
12183TIP3    H160528   4.852   1.949   3.364
12183TIP3    H260529   4.727   1.981   3.289
12184TIP3   OH260530   5.135   2.361   3.374
12184TIP3    H160531   5.097   2.363   3.463
12184TIP3    H260532   5.141   2.457   3.353
12185TIP3   OH260533   5.226   2.854   1.967
12185TIP3    H160534   5.222   2.836   1.871
12185TIP3    H260535   5.311   2.899   1.970
12186TIP3   OH260536   4.784   2.247   2.016
12186TIP3    H160537   4.753   2.240   2.108
12186TIP3    H260538   4.754   2.159   1.985
12187TIP3   OH260539   4.363   2.518   3.074
12187TIP3    H160540   4.294   2.517   3.140
12187TIP3    H260541   4.360   2.607   3.033
12188TIP3   OH260542   4.363   2.529   2.560
12188TIP3    H160543   4.268   2.507   2.548
12188TIP3    H260544   4.400   2.502   2.474
12189TIP3   OH260545   4.913   2.580   2.438
12189TIP3    H160546   4.876   2.664   2.401
12189TIP3    H260547   4.982   2.563   2.372
12190TIP3   OH260548   5.019   2.531   2.722
12190TIP3    H160549   4.989   2.586   2.648
12190TIP3    H260550   5.028   2.445   2.676
12191TIP3   OH260551   4.465   2.282   1.928
12191TIP3    H160552   4.419   2.241   2.004
12191TIP3    H260553   4.394   2.327   1.879
12192TIP3   OH260554   3.795   2.253   2.642
12192TIP3    H160555   3.863   2.249   2.712
12192TIP3    H260556   3.839   2.216   2.563
12193TIP3   OH260557   3.921   2.325   2.178
12193TIP3    H160558   3.973   2.386   2.121
12193TIP3    H260559   3.853   2.388   2.208
12194TIP3   OH260560   4.618   2.287   2.663
12194TIP3    H160561   4.524   2.286   2.691
12194TIP3    H260562   4.666   2.268   2.745
12195TIP3   OH260563   4.099   2.440   2.549
12195TIP3    H160564   4.011   2.456   2.509
12195TIP3    H260565   4.127   2.356   2.508
12196TIP3   OH260566   4.463   2.444   2.311
12196TIP3    H160567   4.558   2.456   2.327
12196TIP3    H260568   4.438   2.513   2.246
12197TIP3   OH260569   5.058   2.207   2.989
12197TIP3    H160570   4.986   2.216   3.055
12197TIP3    H260571   5.011   2.184   2.908
12198TIP3   OH260572   4.335   2.563   2.070
12198TIP3    H160573   4.281   2.526   1.999
12198TIP3    H260574   4.417   2.584   2.022
12199TIP3   OH260575   4.747   2.562   2.855
12199TIP3    H160576   4.803   2.509   2.796
12199TIP3    H260577   4.731   2.502   2.928
12200TIP3   OH260578   4.247   2.175   2.494
12200TIP3    H160579   4.216   2.083   2.495
12200TIP3    H260580   4.327   2.169   2.439
12201TIP3   OH260581   4.612   2.395   3.087
12201TIP3    H160582   4.529   2.444   3.101
12201TIP3    H260583   4.665   2.419   3.163
12202TIP3   OH260584   5.387   2.929   3.142
12202TIP3    H160585   5.445   2.985   3.086
12202TIP3    H260586   5.302   2.941   3.095
12203TIP3   OH260587   5.051   2.297   2.080
12203TIP3    H160588   4.956   2.313   2.066
12203TIP3    H260589   5.086   2.382   2.115
12204TIP3   OH260590   5.125   2.490   2.241
12204TIP3    H160591   5.212   2.477   2.283
12204TIP3    H260592   5.136   2.573   2.190
12205TIP3   OH260593   4.185   2.957   2.842
12205TIP3    H160594   4.247   2.944   2.768
12205TIP3    H260595   4.181   2.870   2.884
12206TIP3   OH260596   4.881   3.161   2.165
12206TIP3    H160597   4.843   3.243   2.202
12206TIP3    H260598   4.806   3.104   2.186
12207TIP3   OH260599   3.882   2.808   3.364
12207TIP3    H160600   3.893   2.768   3.451
12207TIP3    H260601   3.812   2.752   3.324
12208TIP3   OH260602   5.616   2.502   2.219
12208TIP3    H160603   5.558   2.475   2.145
12208TIP3    H260604   5.623   2.597   2.196
12209TIP3   OH260605   5.442   3.386   2.258
12209TIP3    H160606   5.408   3.303   2.294
12209TIP3    H260607   5.475   3.363   2.170
12210TIP3   OH260608   5.161   2.867   2.977
12210TIP3    H160609   5.069   2.850   2.950
12210TIP3    H260610   5.208   2.796   2.928
12211TIP3   OH260611   3.994   2.783   2.038
12211TIP3    H160612   4.052   2.850   2.079
12211TIP3    H260613   3.905   2.815   2.061
12212TIP3   OH260614   4.953   3.087   3.135
12212TIP3    H160615   4.929   3.068   3.226
12212TIP3    H260616   5.022   3.020   3.117
12213TIP3   OH260617   5.190   3.194   2.044
12213TIP3    H160618   5.222   3.146   2.123
12213TIP3    H260619   5.094   3.175   2.053
12214TIP3   OH260620   5.241   3.558   3.379
12214TIP3    H160621   5.181   3.497   3.334
12214TIP3    H260622   5.275   3.616   3.309
12215TIP3   OH260623   5.636   3.629   2.070
12215TIP3    H160624   5.705   3.695   2.049
12215TIP3    H260625   5.565   3.689   2.098
12216TIP3   OH260626   5.266   3.057   2.269
12216TIP3    H160627   5.244   2.978   2.322
12216TIP3    H260628   5.362   3.061   2.285
12217TIP3   OH260629   4.010   3.447   3.168
12217TIP3    H160630   4.031   3.353   3.172
12217TIP3    H260631   4.032   3.474   3.258
12218TIP3   OH260632   4.599   3.302   1.893
12218TIP3    H160633   4.612   3.225   1.834
12218TIP3    H260634   4.561   3.258   1.970
12219TIP3   OH260635   4.135   2.976   2.189
12219TIP3    H160636   4.062   3.016   2.240
12219TIP3    H260637   4.186   3.053   2.158
12220TIP3   OH260638   4.911   2.250   3.221
12220TIP3    H160639   4.984   2.257   3.283
12220TIP3    H260640   4.874   2.161   3.240
12221TIP3   OH260641   4.991   2.203   2.329
12221TIP3    H160642   5.014   2.248   2.245
12221TIP3    H260643   5.048   2.250   2.391
12222TIP3   OH260644   4.715   2.378   2.410
12222TIP3    H160645   4.792   2.438   2.415
12222TIP3    H260646   4.687   2.365   2.503
12223TIP3   OH260647   4.798   2.084   2.497
12223TIP3    H160648   4.767   2.148   2.563
12223TIP3    H260649   4.869   2.138   2.454
12224TIP3   OH260650   4.365   2.195   2.168
12224TIP3    H160651   4.359   2.284   2.208
12224TIP3    H260652   4.456   2.172   2.194
12225TIP3   OH260653   5.248   2.649   2.814
12225TIP3    H160654   5.167   2.602   2.787
12225TIP3    H260655   5.298   2.580   2.865
12226TIP3   OH260656   4.188   3.238   2.071
12226TIP3    H160657   4.254   3.302   2.102
12226TIP3    H260658   4.242   3.190   2.005
12227TIP3   OH260659   4.023   2.506   1.988
12227TIP3    H160660   4.024   2.602   2.007
12227TIP3    H260661   3.935   2.489   1.954
12228TIP3   OH260662   5.354   3.573   2.983
12228TIP3    H160663   5.346   3.640   2.912
12228TIP3    H260664   5.451   3.578   3.000
12229TIP3   OH260665   4.103   1.986   2.864
12229TIP3    H160666   4.085   1.990   2.768
12229TIP3    H260667   4.064   1.898   2.885
12230TIP3   OH260668   4.802   3.487   1.904
12230TIP3    H160669   4.734   3.422   1.931
12230TIP3    H260670   4.875   3.427   1.881
12231TIP3   OH260671   5.257   3.458   1.925
12231TIP3    H160672   5.289   3.382   1.976
12231TIP3    H260673   5.333   3.482   1.870
12232TIP3   OH260674   4.348   3.058   1.911
12232TIP3    H160675   4.359   2.978   1.965
12232TIP3    H260676   4.421   3.044   1.848
12233TIP3   OH260677   4.890   3.165   1.885
12233TIP3    H160678   4.863   3.173   1.978
12233TIP3    H260679   4.871   3.070   1.870
12234TIP3   OH260680   5.146   3.013   3.361
12234TIP3    H160681   5.231   3.057   3.381
12234TIP3    H260682   5.086   3.072   3.408
12235TIP3   OH260683   4.465   2.854   2.145
12235TIP3    H160684   4.418   2.803   2.213
12235TIP3    H260685   4.498   2.785   2.085
12236TIP3   OH260686   4.390   2.642   3.369
12236TIP3    H160687   4.334   2.713   3.406
12236TIP3    H260688   4.430   2.677   3.289
12237TIP3   OH260689   4.575   2.675   1.968
12237TIP3    H160690   4.560   2.669   1.871
12237TIP3    H260691   4.672   2.683   1.976
12238TIP3   OH260692   5.506   2.909   1.910
12238TIP3    H160693   5.489   2.872   1.822
12238TIP3    H260694   5.516   3.006   1.892
12239TIP3   OH260695   4.470   2.214   3.242
12239TIP3    H160696   4.525   2.257   3.175
12239TIP3    H260697   4.384   2.203   3.198
12240TIP3   OH260698   4.564   1.962   3.260
12240TIP3    H160699   4.531   2.054   3.275
12240TIP3    H260700   4.479   1.918   3.241
12241TIP3   OH260701   4.555   3.747   2.076
12241TIP3    H160702   4.652   3.753   2.085
12241TIP3    H260703   4.543   3.807   2.001
12242TIP3   OH260704   3.914   3.203   2.026
12242TIP3    H160705   4.011   3.214   2.040
12242TIP3    H260706   3.916   3.142   1.949
12243TIP3   OH260707   5.629   3.636   2.998
12243TIP3    H160708   5.627   3.650   3.095
12243TIP3    H260709   5.699   3.697   2.973
12244TIP3   OH260710   5.591   3.596   3.281
12244TIP3    H160711   5.536   3.520   3.253
12244TIP3    H260712   5.636   3.564   3.360
12245TIP3   OH260713   5.561   3.002   2.305
12245TIP3    H160714   5.648   3.041   2.324
12245TIP3    H260715   5.559   2.931   2.372
12246TIP3   OH260716   5.596   2.810   2.495
12246TIP3    H160717   5.521   2.761   2.534
12246TIP3    H260718   5.657   2.822   2.571
12247TIP3   OH260719   5.569   3.075   2.984
12247TIP3    H160720   5.655   3.039   2.957
12247TIP3    H260721   5.586   3.171   2.977
12248TIP3   OH260722   5.429   3.375   3.217
12248TIP3    H160723   5.365   3.396   3.286
12248TIP3    H260724   5.376   3.325   3.152
12249TIP3   OH260725   5.626   2.792   2.134
12249TIP3    H160726   5.569   2.825   2.061
12249TIP3    H260727   5.616   2.863   2.199
12250TIP3   OH260728   5.465   2.514   1.984
12250TIP3    H160729   5.472   2.580   1.915
12250TIP3    H260730   5.445   2.432   1.935
12251TIP3   OH260731   5.378   2.657   2.553
12251TIP3    H160732   5.364   2.561   2.547
12251TIP3    H260733   5.346   2.677   2.643
12252TIP3   OH260734   3.877   2.860   2.960
12252TIP3    H160735   3.895   2.857   2.863
12252TIP3    H260736   3.967   2.853   2.994
12253TIP3   OH260737   5.389   2.262   1.898
12253TIP3    H160738   5.448   2.218   1.962
12253TIP3    H260739   5.303   2.221   1.913
12254TIP3   OH260740   5.343   2.415   2.392
12254TIP3    H160741   5.374   2.323   2.409
12254TIP3    H260742   5.425   2.456   2.363
12255TIP3   OH260743   5.407   2.471   2.940
12255TIP3    H160744   5.503   2.492   2.939
12255TIP3    H260745   5.390   2.481   3.035
12256TIP3   OH260746   5.412   2.542   3.216
12256TIP3    H160747   5.329   2.573   3.258
12256TIP3    H260748   5.462   2.625   3.202
12257TIP3   OH260749   5.413   2.144   2.402
12257TIP3    H160750   5.435   2.102   2.488
12257TIP3    H260751   5.354   2.079   2.359
12258TIP3   OH260752   3.959   2.225   2.863
12258TIP3    H160753   4.006   2.141   2.882
12258TIP3    H260754   4.019   2.293   2.894
12259TIP3   OH260755   3.795   2.521   2.966
12259TIP3    H160756   3.843   2.500   2.884
12259TIP3    H260757   3.832   2.608   2.984
12260TIP3   OH260758   5.594   2.148   2.058
12260TIP3    H160759   5.636   2.077   2.004
12260TIP3    H260760   5.665   2.214   2.063
12261TIP3   OH260761   3.826   2.153   2.370
12261TIP3    H160762   3.732   2.168   2.353
12261TIP3    H260763   3.867   2.200   2.296
12262TIP3   OH260764   5.300   3.645   2.565
12262TIP3    H160765   5.368   3.616   2.502
12262TIP3    H260766   5.351   3.695   2.629
12263TIP3   OH260767   3.821   2.015   3.197
12263TIP3    H160768   3.756   2.002   3.270
12263TIP3    H260769   3.772   2.082   3.144
12264TIP3   OH260770   4.798   3.710   3.064
12264TIP3    H160771   4.750   3.761   2.996
12264TIP3    H260772   4.805   3.771   3.138
12265TIP3   OH260773   5.267   3.750   3.186
12265TIP3    H160774   5.282   3.844   3.163
12265TIP3    H260775   5.307   3.708   3.106
12266TIP3   OH260776   4.836   2.110   2.802
12266TIP3    H160777   4.770   2.046   2.832
12266TIP3    H260778   4.893   2.055   2.746
12267TIP3   OH260779   5.351   1.915   2.808
12267TIP3    H160780   5.412   1.974   2.758
12267TIP3    H260781   5.262   1.950   2.787
12268TIP3   OH260782   5.515   2.041   2.633
12268TIP3    H160783   5.585   1.982   2.596
12268TIP3    H260784   5.568   2.124   2.647
12269TIP3   OH260785   4.075   1.971   2.587
12269TIP3    H160786   3.993   1.955   2.537
12269TIP3    H260787   4.118   1.884   2.587
12270TIP3   OH260788   3.958   1.944   2.162
12270TIP3    H160789   3.998   2.014   2.106
12270TIP3    H260790   3.894   2.000   2.211
12271TIP3   OH260791   4.520   1.958   2.567
12271TIP3    H160792   4.607   2.000   2.557
12271TIP3    H260793   4.518   1.945   2.662
12272TIP3   OH260794   5.093   1.965   2.731
12272TIP3    H160795   5.087   1.978   2.635
12272TIP3    H260796   5.054   1.876   2.742
12273TIP3   OH260797   5.218   1.969   2.297
12273TIP3    H160798   5.143   2.028   2.282
12273TIP3    H260799   5.175   1.884   2.322
12274TIP3   OH260800   4.131   2.138   2.014
12274TIP3    H160801   4.187   2.085   1.955
12274TIP3    H260802   4.198   2.176   2.073
12275TIP3   OH260803   4.635   2.165   2.251
12275TIP3    H160804   4.661   2.108   2.325
12275TIP3    H260805   4.644   2.253   2.296
12276TIP3   OH260806   4.827   3.676   2.097
12276TIP3    H160807   4.920   3.691   2.076
12276TIP3    H260808   4.804   3.618   2.022
12277TIP3   OH260809   5.497   3.623   2.369
12277TIP3    H160810   5.479   3.544   2.312
12277TIP3    H260811   5.491   3.696   2.304
12278TIP3   OH260812   4.118   3.637   1.956
12278TIP3    H160813   4.100   3.670   2.045
12278TIP3    H260814   4.201   3.587   1.966
12279TIP3   OH260815   6.869   2.887   2.572
12279TIP3    H160816   6.866   2.985   2.572
12279TIP3    H260817   6.795   2.863   2.514
12280TIP3   OH260818   6.752   2.812   2.920
12280TIP3    H160819   6.752   2.750   2.996
12280TIP3    H260820   6.716   2.757   2.848
12281TIP3   OH260821   5.984   2.785   3.093
12281TIP3    H160822   6.001   2.704   3.144
12281TIP3    H260823   6.068   2.834   3.094
12282TIP3   OH260824   7.121   3.108   2.753
12282TIP3    H160825   7.081   3.035   2.801
12282TIP3    H260826   7.123   3.177   2.822
12283TIP3   OH260827   6.084   3.226   2.929
12283TIP3    H160828   6.051   3.139   2.899
12283TIP3    H260829   6.179   3.207   2.932
12284TIP3   OH260830   5.744   2.579   2.478
12284TIP3    H160831   5.701   2.666   2.471
12284TIP3    H260832   5.688   2.525   2.420
12285TIP3   OH260833   5.816   2.801   2.692
12285TIP3    H160834   5.844   2.721   2.739
12285TIP3    H260835   5.885   2.813   2.625
12286TIP3   OH260836   6.834   3.622   2.776
12286TIP3    H160837   6.898   3.553   2.747
12286TIP3    H260838   6.816   3.590   2.864
12287TIP3   OH260839   6.592   3.053   2.978
12287TIP3    H160840   6.620   2.990   2.909
12287TIP3    H260841   6.677   3.061   3.025
12288TIP3   OH260842   7.454   2.215   3.040
12288TIP3    H160843   7.467   2.274   3.118
12288TIP3    H260844   7.509   2.261   2.976
12289TIP3   OH260845   6.906   2.495   3.005
12289TIP3    H160846   6.926   2.401   3.005
12289TIP3    H260847   6.897   2.512   2.910
12290TIP3   OH260848   6.212   2.308   2.725
12290TIP3    H160849   6.228   2.391   2.674
12290TIP3    H260850   6.183   2.249   2.653
12291TIP3   OH260851   6.994   2.317   2.559
12291TIP3    H160852   7.056   2.282   2.628
12291TIP3    H260853   7.053   2.375   2.508
12292TIP3   OH260854   5.879   2.546   2.797
12292TIP3    H160855   5.949   2.496   2.842
12292TIP3    H260856   5.892   2.516   2.705
12293TIP3   OH260857   6.397   2.704   2.729
12293TIP3    H160858   6.464   2.646   2.769
12293TIP3    H260859   6.346   2.639   2.677
12294TIP3   OH260860   7.486   2.354   3.271
12294TIP3    H160861   7.434   2.437   3.259
12294TIP3    H260862   7.509   2.361   3.363
12295TIP3   OH260863   6.104   2.196   3.124
12295TIP3    H160864   6.089   2.261   3.052
12295TIP3    H260865   6.057   2.236   3.201
12296TIP3   OH260866   6.838   3.145   2.482
12296TIP3    H160867   6.812   3.118   2.392
12296TIP3    H260868   6.806   3.237   2.487
12297TIP3   OH260869   6.359   2.963   3.155
12297TIP3    H160870   6.290   3.030   3.173
12297TIP3    H260871   6.430   3.018   3.119
12298TIP3   OH260872   7.175   2.250   2.759
12298TIP3    H160873   7.152   2.174   2.815
12298TIP3    H260874   7.241   2.294   2.815
12299TIP3   OH260875   6.065   2.382   2.931
12299TIP3    H160876   6.129   2.452   2.960
12299TIP3    H260877   6.118   2.342   2.856
12300TIP3   OH260878   6.210   3.160   3.231
12300TIP3    H160879   6.202   3.253   3.203
12300TIP3    H260880   6.124   3.155   3.277
12301TIP3   OH260881   5.814   3.122   2.312
12301TIP3    H160882   5.789   3.158   2.225
12301TIP3    H260883   5.822   3.204   2.365
12302TIP3   OH260884   7.173   3.290   2.980
12302TIP3    H160885   7.078   3.302   3.001
12302TIP3    H260886   7.201   3.384   2.974
12303TIP3   OH260887   7.204   2.123   3.138
12303TIP3    H160888   7.131   2.182   3.115
12303TIP3    H260889   7.275   2.158   3.079
12304TIP3   OH260890   6.462   1.898   2.955
12304TIP3    H160891   6.492   1.848   2.876
12304TIP3    H260892   6.411   1.966   2.908
12305TIP3   OH260893   7.003   3.467   2.649
12305TIP3    H160894   7.039   3.394   2.595
12305TIP3    H260895   7.040   3.548   2.609
12306TIP3   OH260896   7.131   3.263   2.500
12306TIP3    H160897   7.093   3.196   2.439
12306TIP3    H260898   7.124   3.211   2.583
12307TIP3   OH260899   7.285   3.122   3.353
12307TIP3    H160900   7.297   3.055   3.282
12307TIP3    H260901   7.305   3.204   3.307
12308TIP3   OH260902   6.732   2.809   2.324
12308TIP3    H160903   6.664   2.868   2.288
12308TIP3    H260904   6.804   2.818   2.258
12309TIP3   OH260905   6.742   2.668   2.025
12309TIP3    H160906   6.812   2.666   2.092
12309TIP3    H260907   6.772   2.595   1.970
12310TIP3   OH260908   7.474   2.751   3.150
12310TIP3    H160909   7.411   2.825   3.159
12310TIP3    H260910   7.519   2.778   3.069
12311TIP3   OH260911   7.080   2.829   2.416
12311TIP3    H160912   7.005   2.855   2.476
12311TIP3    H260913   7.127   2.763   2.470
12312TIP3   OH260914   6.239   2.896   2.609
12312TIP3    H160915   6.207   2.857   2.524
12312TIP3    H260916   6.301   2.827   2.641
12313TIP3   OH260917   6.372   3.233   2.880
12313TIP3    H160918   6.370   3.185   2.796
12313TIP3    H260919   6.452   3.197   2.920
12314TIP3   OH260920   6.270   2.772   2.972
12314TIP3    H160921   6.326   2.780   2.892
12314TIP3    H260922   6.312   2.836   3.034
12315TIP3   OH260923   6.912   3.324   3.044
12315TIP3    H160924   6.893   3.394   3.108
12315TIP3    H260925   6.893   3.240   3.092
12316TIP3   OH260926   6.967   2.752   2.183
12316TIP3    H160927   7.022   2.769   2.263
12316TIP3    H260928   7.012   2.801   2.111
12317TIP3   OH260929   6.738   3.424   2.531
12317TIP3    H160930   6.775   3.454   2.614
12317TIP3    H260931   6.682   3.498   2.506
12318TIP3   OH260932   7.340   1.923   2.175
12318TIP3    H160933   7.245   1.934   2.198
12318TIP3    H260934   7.359   2.007   2.130
12319TIP3   OH260935   6.135   2.798   2.373
12319TIP3    H160936   6.107   2.876   2.320
12319TIP3    H260937   6.071   2.731   2.346
12320TIP3   OH260938   7.451   3.358   2.014
12320TIP3    H160939   7.469   3.453   2.023
12320TIP3    H260940   7.543   3.326   2.008
12321TIP3   OH260941   5.720   3.318   2.937
12321TIP3    H160942   5.816   3.303   2.938
12321TIP3    H260943   5.712   3.397   2.990
12322TIP3   OH260944   6.686   3.714   2.371
12322TIP3    H160945   6.673   3.707   2.275
12322TIP3    H260946   6.684   3.810   2.387
12323TIP3   OH260947   6.049   3.602   2.555
12323TIP3    H160948   6.064   3.560   2.642
12323TIP3    H260949   5.964   3.561   2.531
12324TIP3   OH260950   6.993   3.636   2.071
12324TIP3    H160951   7.035   3.560   2.026
12324TIP3    H260952   6.993   3.608   2.164
12325TIP3   OH260953   6.963   3.628   2.351
12325TIP3    H160954   6.865   3.639   2.363
12325TIP3    H260955   6.977   3.551   2.406
12326TIP3   OH260956   5.978   3.156   3.351
12326TIP3    H160957   5.992   3.152   3.447
12326TIP3    H260958   5.884   3.143   3.335
12327TIP3   OH260959   6.232   2.028   2.945
12327TIP3    H160960   6.144   2.012   2.908
12327TIP3    H260961   6.227   2.109   2.998
12328TIP3   OH260962   7.031   2.383   3.372
12328TIP3    H160963   6.976   2.363   3.449
12328TIP3    H260964   7.014   2.476   3.352
12329TIP3   OH260965   7.111   2.855   1.967
12329TIP3    H160966   7.108   2.836   1.871
12329TIP3    H260967   7.197   2.899   1.970
12330TIP3   OH260968   6.670   2.247   2.016
12330TIP3    H160969   6.638   2.240   2.108
12330TIP3    H260970   6.640   2.159   1.985
12331TIP3   OH260971   6.249   2.515   3.072
12331TIP3    H160972   6.180   2.516   3.140
12331TIP3    H260973   6.248   2.606   3.036
12332TIP3   OH260974   6.249   2.528   2.562
12332TIP3    H160975   6.154   2.505   2.549
12332TIP3    H260976   6.285   2.501   2.476
12333TIP3   OH260977   6.801   2.581   2.438
12333TIP3    H160978   6.761   2.663   2.401
12333TIP3    H260979   6.869   2.562   2.372
12334TIP3   OH260980   6.904   2.530   2.722
12334TIP3    H160981   6.875   2.587   2.648
12334TIP3    H260982   6.913   2.445   2.676
12335TIP3   OH260983   6.010   2.547   3.252
12335TIP3    H160984   6.018   2.573   3.343
12335TIP3    H260985   5.969   2.459   3.263
12336TIP3   OH260986   6.350   2.282   1.928
12336TIP3    H160987   6.305   2.241   2.004
12336TIP3    H260988   6.280   2.327   1.879
12337TIP3   OH260989   5.682   2.252   2.643
12337TIP3    H160990   5.749   2.250   2.713
12337TIP3    H260991   5.726   2.216   2.564
12338TIP3   OH260992   5.806   2.325   2.176
12338TIP3    H160993   5.859   2.386   2.120
12338TIP3    H260994   5.738   2.388   2.207
12339TIP3   OH260995   6.806   2.688   3.168
12339TIP3    H160996   6.861   2.621   3.124
12339TIP3    H260997   6.780   2.640   3.249
12340TIP3   OH260998   6.502   2.294   2.663
12340TIP3    H160999   6.409   2.283   2.692
12340TIP3    H261000   6.552   2.265   2.742
12341TIP3   OH261001   5.984   2.440   2.549
12341TIP3    H161002   5.896   2.456   2.509
12341TIP3    H261003   6.012   2.356   2.509
12342TIP3   OH261004   6.348   2.446   2.311
12342TIP3    H161005   6.444   2.456   2.327
12342TIP3    H261006   6.325   2.514   2.245
12343TIP3   OH261007   6.948   2.215   2.986
12343TIP3    H161008   6.878   2.215   3.055
12343TIP3    H261009   6.896   2.181   2.911
12344TIP3   OH261010   6.220   2.563   2.070
12344TIP3    H161011   6.166   2.525   1.998
12344TIP3    H261012   6.302   2.584   2.022
12345TIP3   OH261013   6.630   2.560   2.847
12345TIP3    H161014   6.693   2.507   2.798
12345TIP3    H261015   6.620   2.510   2.930
12346TIP3   OH261016   6.132   2.176   2.494
12346TIP3    H161017   6.102   2.083   2.494
12346TIP3    H261018   6.212   2.168   2.440
12347TIP3   OH261019   6.498   2.392   3.094
12347TIP3    H161020   6.415   2.443   3.101
12347TIP3    H261021   6.551   2.428   3.168
12348TIP3   OH261022   6.555   3.015   2.262
12348TIP3    H161023   6.474   2.970   2.228
12348TIP3    H261024   6.531   3.029   2.356
12349TIP3   OH261025   7.273   2.934   3.141
12349TIP3    H161026   7.329   2.987   3.081
12349TIP3    H261027   7.185   2.939   3.098
12350TIP3   OH261028   6.937   2.297   2.079
12350TIP3    H161029   6.842   2.313   2.066
12350TIP3    H261030   6.971   2.382   2.115
12351TIP3   OH261031   6.687   3.047   3.374
12351TIP3    H161032   6.676   2.991   3.454
12351TIP3    H261033   6.696   3.133   3.411
12352TIP3   OH261034   7.010   2.490   2.240
12352TIP3    H161035   7.098   2.477   2.283
12352TIP3    H261036   7.022   2.573   2.190
12353TIP3   OH261037   6.066   2.957   2.843
12353TIP3    H161038   6.132   2.949   2.772
12353TIP3    H261039   6.071   2.870   2.885
12354TIP3   OH261040   6.763   3.162   2.165
12354TIP3    H161041   6.729   3.247   2.200
12354TIP3    H261042   6.690   3.101   2.187
12355TIP3   OH261043   6.925   3.277   3.392
12355TIP3    H161044   6.847   3.315   3.356
12355TIP3    H261045   6.936   3.317   3.478
12356TIP3   OH261046   7.499   2.502   2.220
12356TIP3    H161047   7.443   2.475   2.145
12356TIP3    H261048   7.510   2.596   2.195
12357TIP3   OH261049   7.328   3.387   2.266
12357TIP3    H161050   7.292   3.301   2.290
12357TIP3    H261051   7.362   3.369   2.175
12358TIP3   OH261052   7.052   2.868   2.970
12358TIP3    H161053   6.957   2.847   2.961
12358TIP3    H261054   7.093   2.791   2.930
12359TIP3   OH261055   6.303   3.302   2.581
12359TIP3    H161056   6.353   3.383   2.560
12359TIP3    H261057   6.215   3.324   2.547
12360TIP3   OH261058   5.880   2.785   2.038
12360TIP3    H161059   5.937   2.851   2.079
12360TIP3    H261060   5.790   2.816   2.062
12361TIP3   OH261061   6.443   3.068   2.530
12361TIP3    H161062   6.411   3.160   2.541
12361TIP3    H261063   6.373   3.018   2.576
12362TIP3   OH261064   6.312   3.566   2.484
12362TIP3    H161065   6.216   3.581   2.498
12362TIP3    H261066   6.349   3.650   2.518
12363TIP3   OH261067   6.838   3.087   3.138
12363TIP3    H161068   6.812   3.058   3.227
12363TIP3    H261069   6.904   3.019   3.118
12364TIP3   OH261070   7.076   3.194   2.044
12364TIP3    H161071   7.104   3.144   2.123
12364TIP3    H261072   6.981   3.176   2.051
12365TIP3   OH261073   7.521   3.629   2.073
12365TIP3    H161074   7.590   3.694   2.048
12365TIP3    H261075   7.450   3.692   2.096
12366TIP3   OH261076   5.924   2.261   3.311
12366TIP3    H161077   5.838   2.306   3.323
12366TIP3    H261078   5.919   2.191   3.380
12367TIP3   OH261079   7.153   3.060   2.272
12367TIP3    H161080   7.129   2.978   2.320
12367TIP3    H261081   7.249   3.059   2.284
12368TIP3   OH261082   5.894   3.450   3.166
12368TIP3    H161083   5.921   3.358   3.169
12368TIP3    H261084   5.915   3.480   3.255
12369TIP3   OH261085   6.489   3.301   1.894
12369TIP3    H161086   6.498   3.225   1.834
12369TIP3    H261087   6.443   3.258   1.970
12370TIP3   OH261088   6.364   3.253   2.139
12370TIP3    H161089   6.394   3.202   2.216
12370TIP3    H261090   6.375   3.346   2.172
12371TIP3   OH261091   6.020   2.978   2.188
12371TIP3    H161092   5.948   3.018   2.240
12371TIP3    H261093   6.070   3.056   2.157
12372TIP3   OH261094   6.804   2.243   3.214
12372TIP3    H161095   6.871   2.247   3.284
12372TIP3    H261096   6.760   2.162   3.242
12373TIP3   OH261097   6.880   2.203   2.326
12373TIP3    H161098   6.902   2.250   2.244
12373TIP3    H261099   6.934   2.247   2.392
12374TIP3   OH261100   6.646   3.419   2.208
12374TIP3    H161101   6.564   3.472   2.216
12374TIP3    H261102   6.700   3.475   2.150
12375TIP3   OH261103   6.599   2.382   2.408
12375TIP3    H161104   6.678   2.438   2.415
12375TIP3    H261105   6.574   2.364   2.501
12376TIP3   OH261106   6.670   2.490   3.316
12376TIP3    H161107   6.661   2.534   3.402
12376TIP3    H261108   6.711   2.405   3.338
12377TIP3   OH261109   6.684   2.091   2.480
12377TIP3    H161110   6.654   2.140   2.559
12377TIP3    H261111   6.760   2.145   2.450
12378TIP3   OH261112   6.389   3.522   2.212
12378TIP3    H161113   6.395   3.604   2.156
12378TIP3    H261114   6.359   3.559   2.298
12379TIP3   OH261115   6.251   2.195   2.169
12379TIP3    H161116   6.246   2.284   2.208
12379TIP3    H261117   6.341   2.170   2.196
12380TIP3   OH261118   7.135   2.646   2.812
12380TIP3    H161119   7.053   2.602   2.785
12380TIP3    H261120   7.182   2.579   2.867
12381TIP3   OH261121   6.074   3.239   2.073
12381TIP3    H161122   6.141   3.300   2.105
12381TIP3    H261123   6.126   3.192   2.005
12382TIP3   OH261124   5.908   2.506   1.988
12382TIP3    H161125   5.911   2.602   2.009
12382TIP3    H261126   5.819   2.490   1.957
12383TIP3   OH261127   7.243   3.570   2.976
12383TIP3    H161128   7.232   3.645   2.915
12383TIP3    H261129   7.337   3.580   3.001
12384TIP3   OH261130   5.980   1.988   2.866
12384TIP3    H161131   5.973   1.986   2.767
12384TIP3    H261132   5.950   1.896   2.885
12385TIP3   OH261133   5.886   3.377   2.478
12385TIP3    H161134   5.800   3.421   2.472
12385TIP3    H261135   5.932   3.422   2.406
12386TIP3   OH261136   6.689   3.486   1.906
12386TIP3    H161137   6.619   3.420   1.927
12386TIP3    H261138   6.760   3.425   1.881
12387TIP3   OH261139   7.144   3.459   1.924
12387TIP3    H161140   7.173   3.380   1.973
12387TIP3    H261141   7.220   3.481   1.869
12388TIP3   OH261142   6.232   3.054   1.906
12388TIP3    H161143   6.247   2.978   1.965
12388TIP3    H261144   6.307   3.042   1.845
12389TIP3   OH261145   6.776   3.165   1.884
12389TIP3    H161146   6.749   3.172   1.977
12389TIP3    H261147   6.757   3.070   1.869
12390TIP3   OH261148   6.352   2.856   2.150
12390TIP3    H161149   6.301   2.801   2.212
12390TIP3    H261150   6.383   2.789   2.085
12391TIP3   OH261151   6.460   2.678   1.969
12391TIP3    H161152   6.446   2.670   1.873
12391TIP3    H261153   6.558   2.683   1.976
12392TIP3   OH261154   7.391   2.910   1.910
12392TIP3    H161155   7.374   2.872   1.822
12392TIP3    H261156   7.401   3.006   1.892
12393TIP3   OH261157   6.357   2.202   3.232
12393TIP3    H161158   6.413   2.261   3.178
12393TIP3    H261159   6.268   2.209   3.196
12394TIP3   OH261160   6.510   2.760   3.263
12394TIP3    H161161   6.592   2.740   3.214
12394TIP3    H261162   6.480   2.843   3.225
12395TIP3   OH261163   6.437   1.953   3.281
12395TIP3    H161164   6.425   2.050   3.276
12395TIP3    H261165   6.365   1.922   3.226
12396TIP3   OH261166   6.442   3.749   2.078
12396TIP3    H161167   6.539   3.756   2.084
12396TIP3    H261168   6.429   3.807   2.002
12397TIP3   OH261169   5.797   3.204   2.025
12397TIP3    H161170   5.894   3.214   2.042
12397TIP3    H261171   5.802   3.141   1.949
12398TIP3   OH261172   5.677   3.743   2.520
12398TIP3    H161173   5.604   3.695   2.475
12398TIP3    H261174   5.705   3.679   2.587
12399TIP3   OH261175   5.759   3.558   2.708
12399TIP3    H161176   5.723   3.470   2.730
12399TIP3    H261177   5.782   3.591   2.797
12400TIP3   OH261178   7.510   3.636   3.001
12400TIP3    H161179   7.513   3.653   3.096
12400TIP3    H261180   7.581   3.694   2.971
12401TIP3   OH261181   7.482   3.593   3.297
12401TIP3    H161182   7.421   3.525   3.259
12401TIP3    H261183   7.524   3.543   3.367
12402TIP3   OH261184   7.445   3.006   2.307
12402TIP3    H161185   7.534   3.039   2.323
12402TIP3    H261186   7.443   2.931   2.371
12403TIP3   OH261187   7.480   2.810   2.493
12403TIP3    H161188   7.405   2.760   2.534
12403TIP3    H261189   7.541   2.821   2.570
12404TIP3   OH261190   7.457   3.076   2.997
12404TIP3    H161191   7.538   3.039   2.957
12404TIP3    H261192   7.468   3.170   2.977
12405TIP3   OH261193   7.315   3.370   3.219
12405TIP3    H161194   7.243   3.402   3.276
12405TIP3    H261195   7.261   3.329   3.148
12406TIP3   OH261196   7.513   2.793   2.133
12406TIP3    H161197   7.455   2.825   2.061
12406TIP3    H261198   7.501   2.863   2.199
12407TIP3   OH261199   7.351   2.514   1.984
12407TIP3    H161200   7.357   2.580   1.915
12407TIP3    H261201   7.331   2.432   1.935
12408TIP3   OH261202   7.264   2.656   2.553
12408TIP3    H161203   7.250   2.561   2.548
12408TIP3    H261204   7.232   2.676   2.643
12409TIP3   OH261205   5.765   2.864   2.958
12409TIP3    H161206   5.781   2.857   2.862
12409TIP3    H261207   5.854   2.847   2.994
12410TIP3   OH261208   7.275   2.262   1.898
12410TIP3    H161209   7.333   2.218   1.962
12410TIP3    H261210   7.188   2.221   1.913
12411TIP3   OH261211   7.228   2.415   2.392
12411TIP3    H161212   7.259   2.322   2.409
12411TIP3    H261213   7.311   2.455   2.363
12412TIP3   OH261214   7.294   2.469   2.942
12412TIP3    H161215   7.390   2.491   2.941
12412TIP3    H261216   7.276   2.485   3.037
12413TIP3   OH261217   7.296   2.543   3.217
12413TIP3    H161218   7.213   2.577   3.254
12413TIP3    H261219   7.348   2.625   3.201
12414TIP3   OH261220   7.296   2.145   2.402
12414TIP3    H161221   7.320   2.102   2.487
12414TIP3    H261222   7.238   2.079   2.358
12415TIP3   OH261223   5.843   2.223   2.871
12415TIP3    H161224   5.896   2.141   2.875
12415TIP3    H261225   5.904   2.295   2.891
12416TIP3   OH261226   5.675   2.517   2.963
12416TIP3    H161227   5.730   2.499   2.884
12416TIP3    H261228   5.715   2.601   2.988
12417TIP3   OH261229   7.479   2.147   2.057
12417TIP3    H161230   7.521   2.076   2.004
12417TIP3    H261231   7.549   2.214   2.063
12418TIP3   OH261232   5.712   2.153   2.370
12418TIP3    H161233   5.618   2.167   2.353
12418TIP3    H261234   5.753   2.200   2.296
12419TIP3   OH261235   7.182   3.646   2.574
12419TIP3    H161236   7.226   3.652   2.490
12419TIP3    H261237   7.228   3.707   2.636
12420TIP3   OH261238   5.709   2.023   3.199
12420TIP3    H161239   5.646   1.992   3.266
12420TIP3    H261240   5.654   2.084   3.145
12421TIP3   OH261241   6.219   3.435   3.232
12421TIP3    H161242   6.180   3.522   3.216
12421TIP3    H261243   6.310   3.450   3.215
12422TIP3   OH261244   7.380   1.969   3.377
12422TIP3    H161245   7.298   1.995   3.332
12422TIP3    H261246   7.392   1.888   3.325
12423TIP3   OH261247   5.957   3.755   3.239
12423TIP3    H161248   5.887   3.812   3.206
12423TIP3    H261249   5.929   3.743   3.332
12424TIP3   OH261250   6.208   3.715   3.139
12424TIP3    H161251   6.126   3.732   3.192
12424TIP3    H261252   6.201   3.784   3.071
12425TIP3   OH261253   6.679   3.708   3.068
12425TIP3    H161254   6.635   3.763   3.002
12425TIP3    H261255   6.693   3.773   3.141
12426TIP3   OH261256   6.908   3.584   3.154
12426TIP3    H161257   6.822   3.623   3.131
12426TIP3    H261258   6.958   3.668   3.165
12427TIP3   OH261259   7.177   3.749   3.191
12427TIP3    H161260   7.161   3.843   3.170
12427TIP3    H261261   7.188   3.708   3.104
12428TIP3   OH261262   5.910   3.625   2.932
12428TIP3    H161263   5.902   3.582   3.020
12428TIP3    H261264   5.992   3.585   2.896
12429TIP3   OH261265   6.117   3.496   2.802
12429TIP3    H161266   6.100   3.402   2.825
12429TIP3    H261267   6.202   3.512   2.847
12430TIP3   OH261268   6.376   3.545   2.887
12430TIP3    H161269   6.389   3.452   2.862
12430TIP3    H261270   6.379   3.543   2.984
12431TIP3   OH261271   6.747   2.133   2.820
12431TIP3    H161272   6.672   2.074   2.837
12431TIP3    H261273   6.779   2.074   2.749
12432TIP3   OH261274   7.236   1.914   2.810
12432TIP3    H161275   7.296   1.973   2.758
12432TIP3    H261276   7.146   1.948   2.786
12433TIP3   OH261277   7.402   2.039   2.635
12433TIP3    H161278   7.471   1.981   2.595
12433TIP3    H261279   7.454   2.123   2.647
12434TIP3   OH261280   5.958   1.971   2.590
12434TIP3    H161281   5.879   1.954   2.536
12434TIP3    H261282   6.004   1.886   2.580
12435TIP3   OH261283   5.835   1.947   2.159
12435TIP3    H161284   5.885   2.012   2.106
12435TIP3    H261285   5.780   2.004   2.214
12436TIP3   OH261286   6.388   1.980   2.560
12436TIP3    H161287   6.485   1.992   2.551
12436TIP3    H261288   6.400   1.940   2.647
12437TIP3   OH261289   6.984   1.964   2.726
12437TIP3    H161290   6.969   1.977   2.632
12437TIP3    H261291   6.934   1.879   2.742
12438TIP3   OH261292   7.104   1.968   2.297
12438TIP3    H161293   7.029   2.028   2.282
12438TIP3    H261294   7.059   1.884   2.323
12439TIP3   OH261295   5.827   3.542   2.264
12439TIP3    H161296   5.762   3.540   2.191
12439TIP3    H261297   5.827   3.637   2.280
12440TIP3   OH261298   6.018   2.141   2.011
12440TIP3    H161299   6.071   2.080   1.959
12440TIP3    H261300   6.085   2.174   2.074
12441TIP3   OH261301   6.521   2.166   2.251
12441TIP3    H161302   6.548   2.108   2.325
12441TIP3    H261303   6.530   2.252   2.298
12442TIP3   OH261304   6.715   3.674   2.096
12442TIP3    H161305   6.807   3.695   2.073
12442TIP3    H261306   6.693   3.621   2.017
12443TIP3   OH261307   7.398   3.627   2.349
12443TIP3    H161308   7.372   3.554   2.288
12443TIP3    H261309   7.381   3.706   2.290
12444TIP3   OH261310   6.006   3.641   1.957
12444TIP3    H161311   5.980   3.667   2.047
12444TIP3    H261312   6.084   3.584   1.972
12445TIP3   OH261313   7.869   2.779   3.084
12445TIP3    H161314   7.884   2.709   3.150
12445TIP3    H261315   7.947   2.833   3.101
12446TIP3   OH261316   7.948   3.211   2.943
12446TIP3    H161317   7.929   3.127   2.897
12446TIP3    H261318   8.046   3.212   2.937
12447TIP3   OH261319   7.628   2.579   2.477
12447TIP3    H161320   7.586   2.667   2.471
12447TIP3    H261321   7.569   2.525   2.421
12448TIP3   OH261322   7.702   2.803   2.693
12448TIP3    H161323   7.728   2.720   2.736
12448TIP3    H261324   7.771   2.811   2.626
12449TIP3   OH261325   7.763   2.546   2.796
12449TIP3    H161326   7.832   2.495   2.842
12449TIP3    H261327   7.781   2.517   2.705
12450TIP3   OH261328   7.976   2.191   3.120
12450TIP3    H161329   7.964   2.258   3.050
12450TIP3    H261330   7.920   2.229   3.192
12451TIP3   OH261331   7.940   2.368   2.923
12451TIP3    H161332   7.995   2.441   2.963
12451TIP3    H261333   7.998   2.339   2.850
12452TIP3   OH261334   7.709   3.126   2.314
12452TIP3    H161335   7.675   3.153   2.226
12452TIP3    H261336   7.700   3.208   2.365
12453TIP3   OH261337   7.939   2.846   3.357
12453TIP3    H161338   7.940   2.892   3.441
12453TIP3    H261339   7.845   2.835   3.338
12454TIP3   OH261340   8.018   2.806   2.369
12454TIP3    H161341   7.988   2.881   2.315
12454TIP3    H261342   7.955   2.736   2.348
12455TIP3   OH261343   7.642   3.039   3.247
12455TIP3    H161344   7.584   3.035   3.169
12455TIP3    H261345   7.630   2.949   3.280
12456TIP3   OH261346   7.607   3.321   2.935
12456TIP3    H161347   7.702   3.303   2.935
12456TIP3    H261348   7.599   3.397   2.993
12457TIP3   OH261349   7.927   3.590   2.556
12457TIP3    H161350   7.938   3.555   2.647
12457TIP3    H261351   7.838   3.558   2.536
12458TIP3   OH261352   7.563   2.252   2.642
12458TIP3    H161353   7.631   2.249   2.713
12458TIP3    H261354   7.611   2.218   2.564
12459TIP3   OH261355   7.688   2.325   2.177
12459TIP3    H161356   7.741   2.386   2.122
12459TIP3    H261357   7.618   2.388   2.206
12460TIP3   OH261358   7.866   2.444   2.547
12460TIP3    H161359   7.777   2.453   2.507
12460TIP3    H261360   7.899   2.358   2.517
12461TIP3   OH261361   7.968   2.170   2.475
12461TIP3    H161362   7.964   2.076   2.502
12461TIP3    H261363   8.065   2.178   2.468
12462TIP3   OH261364   7.949   2.957   2.837
12462TIP3    H161365   8.024   2.949   2.776
12462TIP3    H261366   7.954   2.872   2.884
12463TIP3   OH261367   7.770   2.783   2.038
12463TIP3    H161368   7.823   2.852   2.080
12463TIP3    H261369   7.678   2.812   2.060
12464TIP3   OH261370   7.816   2.263   3.322
12464TIP3    H161371   7.730   2.309   3.315
12464TIP3    H261372   7.797   2.185   3.373
12465TIP3   OH261373   7.911   2.980   2.190
12465TIP3    H161374   7.832   3.014   2.237
12465TIP3    H261375   7.952   3.061   2.157
12466TIP3   OH261376   7.960   3.239   2.071
12466TIP3    H161377   8.023   3.306   2.100
12466TIP3    H261378   8.015   3.195   2.004
12467TIP3   OH261379   7.796   2.504   1.995
12467TIP3    H161380   7.797   2.602   2.004
12467TIP3    H261381   7.709   2.488   1.956
12468TIP3   OH261382   7.873   1.986   2.863
12468TIP3    H161383   7.862   1.991   2.766
12468TIP3    H261384   7.837   1.899   2.886
12469TIP3   OH261385   7.770   3.374   2.474
12469TIP3    H161386   7.685   3.421   2.474
12469TIP3    H261387   7.816   3.426   2.406
12470TIP3   OH261388   7.688   3.205   2.024
12470TIP3    H161389   7.784   3.215   2.040
12470TIP3    H261390   7.691   3.141   1.949
12471TIP3   OH261391   7.560   3.744   2.524
12471TIP3    H161392   7.497   3.697   2.466
12471TIP3    H261393   7.595   3.679   2.588
12472TIP3   OH261394   7.636   3.556   2.707
12472TIP3    H161395   7.614   3.466   2.734
12472TIP3    H261396   7.671   3.589   2.793
12473TIP3   OH261397   7.651   2.868   2.956
12473TIP3    H161398   7.674   2.855   2.861
12473TIP3    H261399   7.738   2.846   2.997
12474TIP3   OH261400   7.727   2.225   2.861
12474TIP3    H161401   7.779   2.143   2.879
12474TIP3    H261402   7.790   2.292   2.892
12475TIP3   OH261403   7.554   2.523   2.956
12475TIP3    H161404   7.617   2.498   2.885
12475TIP3    H261405   7.601   2.601   2.990
12476TIP3   OH261406   7.596   2.150   2.368
12476TIP3    H161407   7.502   2.167   2.354
12476TIP3    H261408   7.637   2.201   2.296
12477TIP3   OH261409   7.585   2.012   3.199
12477TIP3    H161410   7.518   2.006   3.268
12477TIP3    H261411   7.549   2.087   3.146
12478TIP3   OH261412   7.849   3.761   3.250
12478TIP3    H161413   7.777   3.805   3.201
12478TIP3    H261414   7.810   3.736   3.335
12479TIP3   OH261415   8.075   3.683   3.123
12479TIP3    H161416   8.009   3.723   3.185
12479TIP3    H261417   8.096   3.764   3.073
12480TIP3   OH261418   7.785   3.623   2.936
12480TIP3    H161419   7.789   3.585   3.024
12480TIP3    H261420   7.870   3.591   2.897
12481TIP3   OH261421   7.984   3.491   2.814
12481TIP3    H161422   7.978   3.396   2.833
12481TIP3    H261423   8.071   3.509   2.853
12482TIP3   OH261424   7.837   1.966   2.590
12482TIP3    H161425   7.759   1.947   2.535
12482TIP3    H261426   7.890   1.885   2.586
12483TIP3   OH261427   7.719   1.947   2.156
12483TIP3    H161428   7.770   2.015   2.107
12483TIP3    H261429   7.665   2.003   2.215
12484TIP3   OH261430   7.712   3.542   2.264
12484TIP3    H161431   7.646   3.541   2.192
12484TIP3    H261432   7.717   3.639   2.275
12485TIP3   OH261433   7.903   2.136   2.019
12485TIP3    H161434   7.958   2.084   1.958
12485TIP3    H261435   7.968   2.180   2.074
12486TIP3   OH261436   7.895   3.648   1.955
12486TIP3    H161437   7.867   3.672   2.046
12486TIP3    H261438   7.968   3.588   1.972
12487TIP3   OH261439   1.213   4.772   2.572
12487TIP3    H161440   1.211   4.870   2.576
12487TIP3    H261441   1.137   4.754   2.515
12488TIP3   OH261442   1.099   4.696   2.924
12488TIP3    H161443   1.094   4.633   2.997
12488TIP3    H261444   1.061   4.646   2.850
12489TIP3   OH261445   0.337   4.666   3.078
12489TIP3    H161446   0.340   4.592   3.142
12489TIP3    H261447   0.416   4.717   3.101
12490TIP3   OH261448   1.461   4.992   2.749
12490TIP3    H161449   1.424   4.920   2.801
12490TIP3    H261450   1.468   5.062   2.817
12491TIP3   OH261451   0.421   5.106   2.936
12491TIP3    H161452   0.393   5.021   2.897
12491TIP3    H261453   0.517   5.094   2.928
12492TIP3   OH261454   0.094   4.465   2.471
12492TIP3    H161455   0.051   4.554   2.473
12492TIP3    H261456   0.027   4.415   2.425
12493TIP3   OH261457   0.158   4.684   2.691
12493TIP3    H161458   0.185   4.602   2.737
12493TIP3    H261459   0.228   4.695   2.625
12494TIP3   OH261460   1.175   5.509   2.780
12494TIP3    H161461   1.240   5.441   2.748
12494TIP3    H261462   1.157   5.473   2.868
12495TIP3   OH261463   0.933   4.938   2.975
12495TIP3    H161464   0.968   4.877   2.907
12495TIP3    H261465   1.016   4.953   3.024
12496TIP3   OH261466   1.797   4.101   3.049
12496TIP3    H161467   1.806   4.168   3.119
12496TIP3    H261468   1.849   4.143   2.979
12497TIP3   OH261469   1.246   4.385   3.000
12497TIP3    H161470   1.270   4.290   3.002
12497TIP3    H261471   1.239   4.398   2.903
12498TIP3   OH261472   0.561   4.193   2.722
12498TIP3    H161473   0.575   4.277   2.674
12498TIP3    H261474   0.526   4.135   2.653
12499TIP3   OH261475   1.334   4.203   2.560
12499TIP3    H161476   1.397   4.168   2.627
12499TIP3    H261477   1.395   4.258   2.509
12500TIP3   OH261478   0.234   4.435   2.795
12500TIP3    H161479   0.297   4.377   2.842
12500TIP3    H261480   0.238   4.400   2.704
12501TIP3   OH261481   0.741   4.589   2.728
12501TIP3    H161482   0.806   4.530   2.770
12501TIP3    H261483   0.688   4.523   2.679
12502TIP3   OH261484   0.453   4.082   3.126
12502TIP3    H161485   0.427   4.143   3.055
12502TIP3    H261486   0.386   4.105   3.195
12503TIP3   OH261487   1.180   5.029   2.481
12503TIP3    H161488   1.155   5.005   2.391
12503TIP3    H261489   1.151   5.123   2.487
12504TIP3   OH261490   0.707   4.859   3.159
12504TIP3    H161491   0.627   4.912   3.157
12504TIP3    H261492   0.777   4.910   3.115
12505TIP3   OH261493   1.514   4.135   2.761
12505TIP3    H161494   1.496   4.059   2.817
12505TIP3    H261495   1.583   4.179   2.813
12506TIP3   OH261496   0.408   4.270   2.924
12506TIP3    H161497   0.472   4.334   2.964
12506TIP3    H261498   0.467   4.227   2.857
12507TIP3   OH261499   0.155   5.009   2.309
12507TIP3    H161500   0.130   5.043   2.223
12507TIP3    H261501   0.165   5.090   2.363
12508TIP3   OH261502   1.515   5.175   2.981
12508TIP3    H161503   1.420   5.188   3.003
12508TIP3    H261504   1.544   5.268   2.975
12509TIP3   OH261505   1.541   4.000   3.122
12509TIP3    H161506   1.477   4.072   3.125
12509TIP3    H261507   1.617   4.046   3.082
12510TIP3   OH261508   0.848   3.818   2.872
12510TIP3    H161509   0.833   3.723   2.864
12510TIP3    H261510   0.760   3.849   2.902
12511TIP3   OH261511   1.343   5.355   2.647
12511TIP3    H161512   1.386   5.283   2.597
12511TIP3    H261513   1.389   5.433   2.609
12512TIP3   OH261514   1.468   5.148   2.500
12512TIP3    H161515   1.435   5.079   2.439
12512TIP3    H261516   1.468   5.097   2.584
12513TIP3   OH261517   1.081   4.720   2.342
12513TIP3    H161518   1.008   4.775   2.302
12513TIP3    H261519   1.154   4.738   2.279
12514TIP3   OH261520   1.089   4.548   2.017
12514TIP3    H161521   1.175   4.556   2.063
12514TIP3    H261522   1.115   4.478   1.954
12515TIP3   OH261523   1.816   4.637   3.146
12515TIP3    H161524   1.752   4.710   3.159
12515TIP3    H261525   1.863   4.668   3.067
12516TIP3   OH261526   1.417   4.707   2.415
12516TIP3    H161527   1.350   4.742   2.479
12516TIP3    H261528   1.473   4.651   2.472
12517TIP3   OH261529   1.411   4.534   3.330
12517TIP3    H161530   1.420   4.616   3.379
12517TIP3    H261531   1.350   4.562   3.259
12518TIP3   OH261532   0.584   4.783   2.608
12518TIP3    H161533   0.550   4.743   2.524
12518TIP3    H261534   0.645   4.713   2.641
12519TIP3   OH261535   0.711   5.116   2.884
12519TIP3    H161536   0.714   5.072   2.797
12519TIP3    H261537   0.796   5.086   2.921
12520TIP3   OH261538   0.614   4.658   2.974
12520TIP3    H161539   0.669   4.665   2.893
12520TIP3    H261540   0.658   4.720   3.036
12521TIP3   OH261541   1.255   5.214   3.047
12521TIP3    H161542   1.227   5.279   3.113
12521TIP3    H261543   1.231   5.129   3.090
12522TIP3   OH261544   1.302   4.641   2.184
12522TIP3    H161545   1.364   4.654   2.262
12522TIP3    H261546   1.353   4.685   2.112
12523TIP3   OH261547   1.080   5.308   2.530
12523TIP3    H161548   1.123   5.339   2.611
12523TIP3    H261549   1.025   5.383   2.505
12524TIP3   OH261550   1.683   3.809   2.175
12524TIP3    H161551   1.587   3.819   2.198
12524TIP3    H261552   1.702   3.893   2.130
12525TIP3   OH261553   0.484   4.684   2.370
12525TIP3    H161554   0.452   4.762   2.321
12525TIP3    H261555   0.417   4.618   2.349
12526TIP3   OH261556   1.793   5.245   2.009
12526TIP3    H161557   1.811   5.339   2.026
12526TIP3    H261558   1.885   5.213   2.010
12527TIP3   OH261559   0.115   4.879   3.221
12527TIP3    H161560   0.037   4.905   3.168
12527TIP3    H261561   0.076   4.815   3.280
12528TIP3   OH261562   0.088   5.216   2.929
12528TIP3    H161563   0.182   5.195   2.938
12528TIP3    H261564   0.070   5.283   2.997
12529TIP3   OH261565   0.989   5.230   3.389
12529TIP3    H161566   1.000   5.308   3.446
12529TIP3    H261567   0.906   5.197   3.423
12530TIP3   OH261568   1.029   5.599   2.371
12530TIP3    H161569   1.018   5.591   2.275
12530TIP3    H261570   1.029   5.695   2.388
12531TIP3   OH261571   0.397   5.484   2.552
12531TIP3    H161572   0.407   5.448   2.643
12531TIP3    H261573   0.311   5.446   2.529
12532TIP3   OH261574   1.334   5.521   2.070
12532TIP3    H161575   1.380   5.446   2.027
12532TIP3    H261576   1.338   5.496   2.165
12533TIP3   OH261577   1.304   5.515   2.348
12533TIP3    H161578   1.207   5.522   2.364
12533TIP3    H261579   1.326   5.440   2.405
12534TIP3   OH261580   0.586   3.905   2.949
12534TIP3    H161581   0.496   3.894   2.913
12534TIP3    H261582   0.574   3.986   3.000
12535TIP3   OH261583   1.046   3.855   3.281
12535TIP3    H161584   1.086   3.849   3.369
12535TIP3    H261585   0.951   3.865   3.304
12536TIP3   OH261586   1.455   4.737   1.968
12536TIP3    H161587   1.452   4.722   1.870
12536TIP3    H261588   1.539   4.785   1.971
12537TIP3   OH261589   1.013   4.134   2.018
12537TIP3    H161590   0.980   4.123   2.109
12537TIP3    H261591   0.984   4.046   1.984
12538TIP3   OH261592   0.592   4.401   3.070
12538TIP3    H161593   0.525   4.402   3.140
12538TIP3    H261594   0.593   4.494   3.039
12539TIP3   OH261595   0.593   4.413   2.562
12539TIP3    H161596   0.498   4.396   2.548
12539TIP3    H261597   0.629   4.387   2.475
12540TIP3   OH261598   1.136   4.462   2.430
12540TIP3    H161599   1.114   4.556   2.424
12540TIP3    H261600   1.221   4.449   2.382
12541TIP3   OH261601   1.246   4.413   2.725
12541TIP3    H161602   1.219   4.472   2.653
12541TIP3    H261603   1.257   4.330   2.676
12542TIP3   OH261604   0.349   4.439   3.245
12542TIP3    H161605   0.368   4.463   3.336
12542TIP3    H261606   0.317   4.348   3.260
12543TIP3   OH261607   0.693   4.168   1.928
12543TIP3    H161608   0.648   4.127   2.004
12543TIP3    H261609   0.623   4.212   1.879
12544TIP3   OH261610   0.054   4.181   2.655
12544TIP3    H161611   0.097   4.139   2.733
12544TIP3    H261612   0.016   4.112   2.601
12545TIP3   OH261613   0.154   4.226   2.187
12545TIP3    H161614   0.202   4.273   2.115
12545TIP3    H261615   0.078   4.283   2.198
12546TIP3   OH261616   1.164   4.577   3.175
12546TIP3    H161617   1.203   4.506   3.121
12546TIP3    H261618   1.122   4.521   3.243
12547TIP3   OH261619   0.847   4.171   2.661
12547TIP3    H161620   0.753   4.171   2.691
12547TIP3    H261621   0.895   4.153   2.743
12548TIP3   OH261622   0.327   4.318   2.554
12548TIP3    H161623   0.245   4.348   2.509
12548TIP3    H261624   0.360   4.245   2.501
12549TIP3   OH261625   0.691   4.331   2.311
12549TIP3    H161626   0.786   4.340   2.328
12549TIP3    H261627   0.665   4.399   2.245
12550TIP3   OH261628   1.285   4.097   2.991
12550TIP3    H161629   1.216   4.096   3.058
12550TIP3    H261630   1.238   4.068   2.912
12551TIP3   OH261631   0.565   4.448   2.070
12551TIP3    H161632   0.509   4.411   1.999
12551TIP3    H261633   0.643   4.469   2.018
12552TIP3   OH261634   0.974   4.445   2.851
12552TIP3    H161635   1.036   4.393   2.800
12552TIP3    H261636   0.961   4.391   2.931
12553TIP3   OH261637   0.471   4.059   2.489
12553TIP3    H161638   0.452   3.964   2.494
12553TIP3    H261639   0.556   4.056   2.442
12554TIP3   OH261640   0.843   4.278   3.096
12554TIP3    H161641   0.759   4.327   3.103
12554TIP3    H261642   0.893   4.315   3.171
12555TIP3   OH261643   0.898   4.896   2.263
12555TIP3    H161644   0.814   4.857   2.229
12555TIP3    H261645   0.873   4.919   2.355
12556TIP3   OH261646   1.617   4.814   3.137
12556TIP3    H161647   1.674   4.873   3.086
12556TIP3    H261648   1.530   4.829   3.098
12557TIP3   OH261649   1.280   4.182   2.083
12557TIP3    H161650   1.185   4.195   2.063
12557TIP3    H261651   1.314   4.268   2.114
12558TIP3   OH261652   1.034   4.929   3.377
12558TIP3    H161653   1.014   4.888   3.462
12558TIP3    H261654   1.037   5.023   3.397
12559TIP3   OH261655   1.348   4.383   2.243
12559TIP3    H161656   1.436   4.360   2.283
12559TIP3    H261657   1.373   4.457   2.187
12560TIP3   OH261658   0.410   4.844   2.843
12560TIP3    H161659   0.474   4.835   2.770
12560TIP3    H261660   0.414   4.755   2.883
12561TIP3   OH261661   1.107   5.046   2.167
12561TIP3    H161662   1.074   5.132   2.199
12561TIP3    H261663   1.032   4.987   2.188
12562TIP3   OH261664   1.844   4.388   2.219
12562TIP3    H161665   1.787   4.361   2.145
12562TIP3    H261666   1.852   4.483   2.196
12563TIP3   OH261667   1.669   5.272   2.258
12563TIP3    H161668   1.637   5.188   2.294
12563TIP3    H261669   1.706   5.249   2.171
12564TIP3   OH261670   1.394   4.756   2.971
12564TIP3    H161671   1.300   4.732   2.964
12564TIP3    H261672   1.438   4.679   2.931
12565TIP3   OH261673   0.648   5.186   2.581
12565TIP3    H161674   0.696   5.268   2.560
12565TIP3    H261675   0.559   5.209   2.548
12566TIP3   OH261676   0.220   4.669   2.041
12566TIP3    H161677   0.283   4.734   2.079
12566TIP3    H261678   0.135   4.705   2.069
12567TIP3   OH261679   0.788   4.952   2.528
12567TIP3    H161680   0.756   5.044   2.541
12567TIP3    H261681   0.718   4.902   2.575
12568TIP3   OH261682   0.834   5.372   3.174
12568TIP3    H161683   0.879   5.452   3.143
12568TIP3    H261684   0.898   5.339   3.240
12569TIP3   OH261685   0.656   5.451   2.484
12569TIP3    H161686   0.560   5.466   2.498
12569TIP3    H261687   0.692   5.536   2.518
12570TIP3   OH261688   1.180   4.970   3.132
12570TIP3    H161689   1.154   4.955   3.225
12570TIP3    H261690   1.250   4.904   3.121
12571TIP3   OH261691   1.420   5.081   2.044
12571TIP3    H161692   1.449   5.032   2.124
12571TIP3    H261693   1.325   5.062   2.051
12572TIP3   OH261694   1.865   5.514   2.070
12572TIP3    H161695   1.933   5.581   2.049
12572TIP3    H261696   1.793   5.575   2.098
12573TIP3   OH261697   0.271   4.157   3.325
12573TIP3    H161698   0.178   4.184   3.320
12573TIP3    H261699   0.258   4.071   3.367
12574TIP3   OH261700   1.495   4.940   2.268
12574TIP3    H161701   1.473   4.863   2.323
12574TIP3    H261702   1.590   4.946   2.285
12575TIP3   OH261703   0.251   5.375   3.139
12575TIP3    H161704   0.275   5.282   3.136
12575TIP3    H261705   0.257   5.383   3.235
12576TIP3   OH261706   0.833   5.187   1.894
12576TIP3    H161707   0.841   5.111   1.834
12576TIP3    H261708   0.786   5.143   1.969
12577TIP3   OH261709   0.705   5.140   2.139
12577TIP3    H161710   0.736   5.088   2.214
12577TIP3    H261711   0.718   5.232   2.171
12578TIP3   OH261712   0.364   4.863   2.188
12578TIP3    H161713   0.292   4.901   2.242
12578TIP3    H261714   0.411   4.942   2.158
12579TIP3   OH261715   1.217   4.092   2.328
12579TIP3    H161716   1.246   4.130   2.243
12579TIP3    H261717   1.279   4.132   2.390
12580TIP3   OH261718   0.989   5.304   2.207
12580TIP3    H161719   0.907   5.358   2.216
12580TIP3    H261720   1.043   5.361   2.150
12581TIP3   OH261721   0.941   4.270   2.409
12581TIP3    H161722   1.024   4.319   2.421
12581TIP3    H261723   0.914   4.247   2.501
12582TIP3   OH261724   1.024   4.376   3.314
12582TIP3    H161725   0.992   4.416   3.397
12582TIP3    H261726   1.049   4.288   3.346
12583TIP3   OH261727   1.027   3.968   2.497
12583TIP3    H161728   0.995   4.034   2.561
12583TIP3    H261729   1.098   4.022   2.454
12584TIP3   OH261730   0.730   5.407   2.211
12584TIP3    H161731   0.739   5.489   2.155
12584TIP3    H261732   0.703   5.445   2.298
12585TIP3   OH261733   0.593   4.080   2.173
12585TIP3    H161734   0.590   4.171   2.207
12585TIP3    H261735   0.686   4.057   2.195
12586TIP3   OH261736   1.478   4.533   2.810
12586TIP3    H161737   1.395   4.487   2.787
12586TIP3    H261738   1.526   4.466   2.864
12587TIP3   OH261739   0.417   5.124   2.072
12587TIP3    H161740   0.485   5.186   2.105
12587TIP3    H261741   0.470   5.077   2.005
12588TIP3   OH261742   0.251   4.392   1.987
12588TIP3    H161743   0.250   4.487   2.009
12588TIP3    H261744   0.162   4.376   1.952
12589TIP3   OH261745   1.583   5.458   2.981
12589TIP3    H161746   1.574   5.527   2.913
12589TIP3    H261747   1.679   5.464   2.999
12590TIP3   OH261748   0.330   3.874   2.856
12590TIP3    H161749   0.312   3.869   2.761
12590TIP3    H261750   0.295   3.787   2.887
12591TIP3   OH261751   0.229   5.259   2.476
12591TIP3    H161752   0.146   5.308   2.472
12591TIP3    H261753   0.278   5.308   2.409
12592TIP3   OH261754   1.032   5.372   1.906
12592TIP3    H161755   0.962   5.305   1.927
12592TIP3    H261756   1.103   5.311   1.881
12593TIP3   OH261757   1.487   5.345   1.924
12593TIP3    H161758   1.516   5.268   1.975
12593TIP3    H261759   1.563   5.366   1.869
12594TIP3   OH261760   0.575   4.939   1.905
12594TIP3    H161761   0.589   4.864   1.964
12594TIP3    H261762   0.651   4.928   1.845
12595TIP3   OH261763   1.119   5.053   1.883
12595TIP3    H161764   1.090   5.061   1.975
12595TIP3    H261765   1.100   4.957   1.868
12596TIP3   OH261766   0.701   4.739   2.151
12596TIP3    H161767   0.642   4.689   2.210
12596TIP3    H261768   0.722   4.674   2.082
12597TIP3   OH261769   0.806   4.562   1.970
12597TIP3    H161770   0.785   4.556   1.874
12597TIP3    H261771   0.902   4.569   1.969
12598TIP3   OH261772   1.735   4.795   1.910
12598TIP3    H161773   1.717   4.758   1.822
12598TIP3    H261774   1.745   4.892   1.891
12599TIP3   OH261775   0.704   4.084   3.235
12599TIP3    H161776   0.753   4.145   3.176
12599TIP3    H261777   0.613   4.092   3.202
12600TIP3   OH261778   0.859   4.650   3.261
12600TIP3    H161779   0.936   4.627   3.207
12600TIP3    H261780   0.822   4.731   3.226
12601TIP3   OH261781   0.779   3.838   3.280
12601TIP3    H161782   0.772   3.937   3.278
12601TIP3    H261783   0.705   3.818   3.226
12602TIP3   OH261784   0.786   5.634   2.078
12602TIP3    H161785   0.883   5.641   2.084
12602TIP3    H261786   0.772   5.693   2.002
12603TIP3   OH261787   0.145   5.090   2.026
12603TIP3    H161788   0.242   5.102   2.042
12603TIP3    H261789   0.151   5.025   1.953
12604TIP3   OH261790   0.035   5.640   2.509
12604TIP3    H161791  -0.046   5.593   2.480
12604TIP3    H261792   0.054   5.579   2.583
12605TIP3   OH261793   0.124   5.446   2.701
12605TIP3    H161794   0.074   5.363   2.715
12605TIP3    H261795   0.135   5.481   2.792
12606TIP3   OH261796   1.856   5.523   3.004
12606TIP3    H161797   1.859   5.540   3.099
12606TIP3    H261798   1.926   5.582   2.972
12607TIP3   OH261799   1.810   5.478   3.305
12607TIP3    H161800   1.761   5.405   3.259
12607TIP3    H261801   1.870   5.430   3.362
12608TIP3   OH261802   1.790   4.888   2.305
12608TIP3    H161803   1.876   4.927   2.324
12608TIP3    H261804   1.787   4.817   2.372
12609TIP3   OH261805   1.824   4.695   2.494
12609TIP3    H161806   1.749   4.646   2.535
12609TIP3    H261807   1.885   4.708   2.571
12610TIP3   OH261808   1.797   4.964   2.990
12610TIP3    H161809   1.882   4.926   2.960
12610TIP3    H261810   1.814   5.060   2.980
12611TIP3   OH261811   1.656   5.261   3.219
12611TIP3    H161812   1.586   5.279   3.283
12611TIP3    H261813   1.606   5.209   3.153
12612TIP3   OH261814   1.855   4.677   2.134
12612TIP3    H161815   1.798   4.710   2.061
12612TIP3    H261816   1.845   4.749   2.199
12613TIP3   OH261817   1.695   4.399   1.983
12613TIP3    H161818   1.700   4.466   1.914
12613TIP3    H261819   1.674   4.317   1.934
12614TIP3   OH261820   1.608   4.543   2.553
12614TIP3    H161821   1.593   4.447   2.547
12614TIP3    H261822   1.574   4.562   2.643
12615TIP3   OH261823   0.108   4.748   2.957
12615TIP3    H161824   0.127   4.742   2.861
12615TIP3    H261825   0.197   4.735   2.995
12616TIP3   OH261826   1.618   4.148   1.898
12616TIP3    H161827   1.677   4.103   1.962
12616TIP3    H261828   1.532   4.106   1.912
12617TIP3   OH261829   1.569   4.301   2.392
12617TIP3    H161830   1.602   4.210   2.409
12617TIP3    H261831   1.651   4.342   2.362
12618TIP3   OH261832   1.638   4.354   2.939
12618TIP3    H161833   1.733   4.378   2.942
12618TIP3    H261834   1.620   4.370   3.035
12619TIP3   OH261835   1.639   4.430   3.200
12619TIP3    H161836   1.563   4.451   3.258
12619TIP3    H261837   1.694   4.511   3.206
12620TIP3   OH261838   1.640   4.031   2.402
12620TIP3    H161839   1.664   3.987   2.487
12620TIP3    H261840   1.582   3.965   2.358
12621TIP3   OH261841   0.194   4.108   2.856
12621TIP3    H161842   0.238   4.027   2.889
12621TIP3    H261843   0.243   4.178   2.903
12622TIP3   OH261844   0.041   4.415   2.973
12622TIP3    H161845   0.085   4.394   2.889
12622TIP3    H261846   0.071   4.506   2.986
12623TIP3   OH261847   1.823   4.033   2.058
12623TIP3    H161848   1.864   3.962   2.003
12623TIP3    H261849   1.894   4.099   2.063
12624TIP3   OH261850   0.070   4.022   2.321
12624TIP3    H161851  -0.027   4.041   2.322
12624TIP3    H261852   0.104   4.097   2.267
12625TIP3   OH261853   1.528   5.531   2.564
12625TIP3    H161854   1.597   5.501   2.502
12625TIP3    H261855   1.580   5.581   2.629
12626TIP3   OH261856   0.068   3.916   3.215
12626TIP3    H161857  -0.006   3.890   3.270
12626TIP3    H261858   0.016   3.974   3.155
12627TIP3   OH261859   0.302   5.641   3.244
12627TIP3    H161860   0.232   5.695   3.202
12627TIP3    H261861   0.274   5.632   3.335
12628TIP3   OH261862   0.560   5.612   3.148
12628TIP3    H161863   0.472   5.616   3.192
12628TIP3    H261864   0.545   5.665   3.069
12629TIP3   OH261865   1.023   5.595   3.069
12629TIP3    H161866   0.978   5.649   3.001
12629TIP3    H261867   1.032   5.657   3.142
12630TIP3   OH261868   1.250   5.473   3.158
12630TIP3    H161869   1.164   5.506   3.130
12630TIP3    H261870   1.302   5.554   3.159
12631TIP3   OH261871   1.501   5.633   3.182
12631TIP3    H161872   1.508   5.729   3.165
12631TIP3    H261873   1.535   5.593   3.100
12632TIP3   OH261874   0.252   5.518   2.926
12632TIP3    H161875   0.243   5.475   3.015
12632TIP3    H261876   0.333   5.475   2.894
12633TIP3   OH261877   0.457   5.382   2.803
12633TIP3    H161878   0.444   5.288   2.823
12633TIP3    H261879   0.543   5.399   2.848
12634TIP3   OH261880   0.716   5.425   2.890
12634TIP3    H161881   0.735   5.334   2.865
12634TIP3    H261882   0.725   5.424   2.986
12635TIP3   OH261883   1.065   3.996   2.803
12635TIP3    H161884   0.998   3.932   2.831
12635TIP3    H261885   1.120   3.942   2.745
12636TIP3   OH261886   1.580   3.798   2.807
12636TIP3    H161887   1.641   3.860   2.759
12636TIP3    H261888   1.491   3.836   2.789
12637TIP3   OH261889   1.744   3.926   2.636
12637TIP3    H161890   1.813   3.868   2.596
12637TIP3    H261891   1.797   4.009   2.648
12638TIP3   OH261892   0.302   3.857   2.582
12638TIP3    H161893   0.224   3.821   2.534
12638TIP3    H261894   0.354   3.773   2.584
12639TIP3   OH261895   0.189   3.831   2.167
12639TIP3    H161896   0.226   3.894   2.102
12639TIP3    H261897   0.124   3.888   2.212
12640TIP3   OH261898   0.749   3.845   2.565
12640TIP3    H161899   0.838   3.884   2.557
12640TIP3    H261900   0.745   3.831   2.660
12641TIP3   OH261901   1.321   3.852   2.730
12641TIP3    H161902   1.315   3.864   2.634
12641TIP3    H261903   1.281   3.763   2.743
12642TIP3   OH261904   1.447   3.854   2.297
12642TIP3    H161905   1.372   3.913   2.282
12642TIP3    H261906   1.404   3.769   2.321
12643TIP3   OH261907   0.169   5.434   2.265
12643TIP3    H161908   0.110   5.431   2.188
12643TIP3    H261909   0.169   5.529   2.279
12644TIP3   OH261910   0.365   4.026   2.014
12644TIP3    H161911   0.416   3.966   1.957
12644TIP3    H261912   0.436   4.058   2.073
12645TIP3   OH261913   0.864   4.052   2.252
12645TIP3    H161914   0.889   3.993   2.325
12645TIP3    H261915   0.870   4.138   2.297
12646TIP3   OH261916   1.058   5.560   2.096
12646TIP3    H161917   1.150   5.580   2.074
12646TIP3    H261918   1.036   5.506   2.017
12647TIP3   OH261919   1.726   5.508   2.369
12647TIP3    H161920   1.708   5.430   2.312
12647TIP3    H261921   1.720   5.582   2.304
12648TIP3   OH261922   0.347   5.520   1.955
12648TIP3    H161923   0.325   5.552   2.044
12648TIP3    H261924   0.429   5.471   1.971
12649TIP3   OH261925   3.098   4.770   2.572
12649TIP3    H161926   3.095   4.868   2.573
12649TIP3    H261927   3.023   4.747   2.514
12650TIP3   OH261928   2.989   4.694   2.924
12650TIP3    H161929   2.979   4.634   2.999
12650TIP3    H261930   2.947   4.646   2.850
12651TIP3   OH261931   2.218   4.666   3.079
12651TIP3    H161932   2.226   4.596   3.146
12651TIP3    H261933   2.294   4.721   3.100
12652TIP3   OH261934   3.347   4.991   2.748
12652TIP3    H161935   3.311   4.919   2.802
12652TIP3    H261936   3.356   5.060   2.817
12653TIP3   OH261937   2.310   5.108   2.931
12653TIP3    H161938   2.279   5.022   2.895
12653TIP3    H261939   2.406   5.093   2.932
12654TIP3   OH261940   1.973   4.464   2.478
12654TIP3    H161941   1.930   4.552   2.471
12654TIP3    H261942   1.918   4.410   2.421
12655TIP3   OH261943   2.046   4.687   2.693
12655TIP3    H161944   2.073   4.605   2.737
12655TIP3    H261945   2.114   4.699   2.625
12656TIP3   OH261946   3.060   5.507   2.778
12656TIP3    H161947   3.126   5.440   2.749
12656TIP3    H261948   3.044   5.477   2.868
12657TIP3   OH261949   2.821   4.941   2.969
12657TIP3    H161950   2.852   4.874   2.906
12657TIP3    H261951   2.902   4.951   3.022
12658TIP3   OH261952   2.447   4.193   2.723
12658TIP3    H161953   2.459   4.276   2.673
12658TIP3    H261954   2.408   4.135   2.654
12659TIP3   OH261955   3.223   4.199   2.559
12659TIP3    H161956   3.287   4.169   2.626
12659TIP3    H261957   3.277   4.260   2.507
12660TIP3   OH261958   2.108   4.433   2.798
12660TIP3    H161959   2.177   4.380   2.842
12660TIP3    H261960   2.121   4.403   2.706
12661TIP3   OH261961   2.624   4.590   2.729
12661TIP3    H161962   2.692   4.532   2.768
12661TIP3    H261963   2.573   4.524   2.679
12662TIP3   OH261964   2.337   4.083   3.125
12662TIP3    H161965   2.311   4.142   3.051
12662TIP3    H261966   2.269   4.107   3.192
12663TIP3   OH261967   3.066   5.030   2.482
12663TIP3    H161968   3.041   5.004   2.393
12663TIP3    H261969   3.036   5.124   2.487
12664TIP3   OH261970   2.583   4.851   3.148
12664TIP3    H161971   2.516   4.916   3.168
12664TIP3    H261972   2.660   4.905   3.124
12665TIP3   OH261973   3.395   4.144   2.773
12665TIP3    H161974   3.385   4.053   2.804
12665TIP3    H261975   3.480   4.172   2.807
12666TIP3   OH261976   2.293   4.268   2.929
12666TIP3    H161977   2.357   4.336   2.962
12666TIP3    H261978   2.347   4.227   2.858
12667TIP3   OH261979   2.043   5.008   2.312
12667TIP3    H161980   2.018   5.043   2.225
12667TIP3    H261981   2.052   5.090   2.365
12668TIP3   OH261982   3.404   5.175   2.982
12668TIP3    H161983   3.309   5.187   3.001
12668TIP3    H261984   3.430   5.269   2.973
12669TIP3   OH261985   2.732   3.817   2.872
12669TIP3    H161986   2.717   3.721   2.865
12669TIP3    H261987   2.644   3.848   2.903
12670TIP3   OH261988   3.228   5.354   2.647
12670TIP3    H161989   3.271   5.282   2.597
12670TIP3    H261990   3.274   5.433   2.610
12671TIP3   OH261991   3.352   5.147   2.499
12671TIP3    H161992   3.320   5.077   2.439
12671TIP3    H261993   3.354   5.097   2.583
12672TIP3   OH261994   2.962   4.693   2.324
12672TIP3    H161995   2.893   4.753   2.288
12672TIP3    H261996   3.033   4.705   2.259
12673TIP3   OH261997   2.971   4.553   2.025
12673TIP3    H161998   3.041   4.552   2.092
12673TIP3    H261999   3.001   4.480   1.970
12674TIP3   OH262000   3.694   4.626   3.143
12674TIP3    H162001   3.640   4.705   3.165
12674TIP3    H262002   3.753   4.662   3.076
12675TIP3   OH262003   3.308   4.715   2.416
12675TIP3    H162004   3.234   4.739   2.476
12675TIP3    H262005   3.355   4.648   2.469
12676TIP3   OH262006   2.468   4.782   2.608
12676TIP3    H162007   2.436   4.743   2.523
12676TIP3    H262008   2.529   4.713   2.642
12677TIP3   OH262009   2.602   5.123   2.878
12677TIP3    H162010   2.599   5.069   2.798
12677TIP3    H262011   2.680   5.085   2.922
12678TIP3   OH262012   2.499   4.657   2.970
12678TIP3    H162013   2.556   4.666   2.891
12678TIP3    H262014   2.541   4.720   3.034
12679TIP3   OH262015   3.139   5.214   3.050
12679TIP3    H162016   3.111   5.278   3.117
12679TIP3    H262017   3.117   5.126   3.090
12680TIP3   OH262018   3.196   4.638   2.183
12680TIP3    H162019   3.250   4.655   2.263
12680TIP3    H262020   3.241   4.687   2.111
12681TIP3   OH262021   2.967   5.309   2.527
12681TIP3    H162022   3.009   5.338   2.609
12681TIP3    H262023   2.910   5.383   2.505
12682TIP3   OH262024   3.567   3.808   2.173
12682TIP3    H162025   3.472   3.819   2.198
12682TIP3    H262026   3.588   3.894   2.132
12683TIP3   OH262027   2.363   4.683   2.373
12683TIP3    H162028   2.336   4.762   2.320
12683TIP3    H262029   2.299   4.617   2.346
12684TIP3   OH262030   3.679   5.245   2.009
12684TIP3    H162031   3.696   5.339   2.026
12684TIP3    H262032   3.771   5.213   2.010
12685TIP3   OH262033   1.993   4.923   3.240
12685TIP3    H162034   1.923   4.921   3.172
12685TIP3    H262035   1.974   4.838   3.283
12686TIP3   OH262036   1.950   5.204   2.939
12686TIP3    H162037   2.045   5.189   2.939
12686TIP3    H262038   1.941   5.281   2.996
12687TIP3   OH262039   2.915   5.599   2.372
12687TIP3    H162040   2.903   5.592   2.275
12687TIP3    H262041   2.914   5.695   2.388
12688TIP3   OH262042   2.277   5.488   2.555
12688TIP3    H162043   2.293   5.446   2.642
12688TIP3    H262044   2.193   5.446   2.531
12689TIP3   OH262045   3.220   5.521   2.070
12689TIP3    H162046   3.266   5.445   2.028
12689TIP3    H262047   3.224   5.496   2.165
12690TIP3   OH262048   3.189   5.515   2.348
12690TIP3    H162049   3.093   5.522   2.365
12690TIP3    H262050   3.212   5.440   2.405
12691TIP3   OH262051   2.471   3.907   2.946
12691TIP3    H162052   2.380   3.894   2.911
12691TIP3    H262053   2.457   3.988   2.998
12692TIP3   OH262054   2.934   3.875   3.287
12692TIP3    H162055   2.974   3.834   3.365
12692TIP3    H262056   2.841   3.864   3.304
12693TIP3   OH262057   3.341   4.739   1.968
12693TIP3    H162058   3.336   4.721   1.871
12693TIP3    H262059   3.426   4.785   1.970
12694TIP3   OH262060   2.899   4.133   2.016
12694TIP3    H162061   2.867   4.126   2.108
12694TIP3    H262062   2.868   4.045   1.985
12695TIP3   OH262063   2.476   4.400   3.069
12695TIP3    H162064   2.406   4.403   3.138
12695TIP3    H262065   2.477   4.493   3.037
12696TIP3   OH262066   2.477   4.413   2.562
12696TIP3    H162067   2.383   4.390   2.548
12696TIP3    H262068   2.514   4.386   2.476
12697TIP3   OH262069   3.029   4.466   2.440
12697TIP3    H162070   2.991   4.548   2.403
12697TIP3    H262071   3.098   4.447   2.374
12698TIP3   OH262072   3.138   4.416   2.721
12698TIP3    H162073   3.102   4.472   2.649
12698TIP3    H262074   3.139   4.330   2.675
12699TIP3   OH262075   2.247   4.427   3.247
12699TIP3    H162076   2.239   4.470   3.333
12699TIP3    H262077   2.193   4.347   3.261
12700TIP3   OH262078   2.579   4.168   1.928
12700TIP3    H162079   2.533   4.126   2.004
12700TIP3    H262080   2.509   4.212   1.879
12701TIP3   OH262081   1.909   4.138   2.642
12701TIP3    H162082   1.979   4.134   2.711
12701TIP3    H262083   1.953   4.102   2.563
12702TIP3   OH262084   2.035   4.211   2.176
12702TIP3    H162085   2.087   4.271   2.120
12702TIP3    H262086   1.967   4.274   2.207
12703TIP3   OH262087   3.050   4.571   3.171
12703TIP3    H162088   3.091   4.502   3.121
12703TIP3    H262089   3.006   4.527   3.245
12704TIP3   OH262090   2.732   4.172   2.663
12704TIP3    H162091   2.640   4.171   2.693
12704TIP3    H262092   2.781   4.152   2.744
12705TIP3   OH262093   2.213   4.326   2.549
12705TIP3    H162094   2.125   4.342   2.509
12705TIP3    H262095   2.241   4.242   2.508
12706TIP3   OH262096   2.577   4.331   2.311
12706TIP3    H162097   2.673   4.342   2.327
12706TIP3    H262098   2.553   4.399   2.246
12707TIP3   OH262099   2.449   4.448   2.070
12707TIP3    H162100   2.395   4.410   1.998
12707TIP3    H262101   2.530   4.470   2.022
12708TIP3   OH262102   2.860   4.445   2.851
12708TIP3    H162103   2.921   4.393   2.797
12708TIP3    H262104   2.846   4.390   2.929
12709TIP3   OH262105   2.362   4.061   2.494
12709TIP3    H162106   2.330   3.969   2.495
12709TIP3    H262107   2.441   4.053   2.440
12710TIP3   OH262108   2.724   4.275   3.093
12710TIP3    H162109   2.642   4.329   3.095
12710TIP3    H262110   2.776   4.316   3.164
12711TIP3   OH262111   2.783   4.901   2.262
12711TIP3    H162112   2.703   4.855   2.228
12711TIP3    H262113   2.760   4.915   2.356
12712TIP3   OH262114   3.504   4.811   3.135
12712TIP3    H162115   3.560   4.872   3.085
12712TIP3    H262116   3.417   4.826   3.095
12713TIP3   OH262117   3.166   4.182   2.079
12713TIP3    H162118   3.071   4.199   2.066
12713TIP3    H262119   3.200   4.267   2.115
12714TIP3   OH262120   3.239   4.376   2.241
12714TIP3    H162121   3.326   4.363   2.283
12714TIP3    H262122   3.251   4.459   2.190
12715TIP3   OH262123   2.294   4.843   2.842
12715TIP3    H162124   2.362   4.833   2.772
12715TIP3    H262125   2.297   4.756   2.885
12716TIP3   OH262126   2.992   5.048   2.165
12716TIP3    H162127   2.958   5.133   2.200
12716TIP3    H262128   2.919   4.986   2.188
12717TIP3   OH262129   2.005   4.673   3.364
12717TIP3    H162130   2.004   4.637   3.453
12717TIP3    H262131   1.929   4.623   3.327
12718TIP3   OH262132   3.165   5.165   3.387
12718TIP3    H162133   3.074   5.181   3.358
12718TIP3    H262134   3.157   5.190   3.480
12719TIP3   OH262135   3.732   4.389   2.218
12719TIP3    H162136   3.673   4.361   2.145
12719TIP3    H262137   3.736   4.485   2.195
12720TIP3   OH262138   3.555   5.272   2.258
12720TIP3    H162139   3.522   5.188   2.294
12720TIP3    H262140   3.591   5.249   2.171
12721TIP3   OH262141   3.279   4.756   2.969
12721TIP3    H162142   3.185   4.733   2.960
12721TIP3    H262143   3.323   4.679   2.931
12722TIP3   OH262144   2.532   5.187   2.581
12722TIP3    H162145   2.581   5.268   2.560
12722TIP3    H262146   2.444   5.210   2.547
12723TIP3   OH262147   2.109   4.670   2.038
12723TIP3    H162148   2.166   4.737   2.079
12723TIP3    H262149   2.019   4.701   2.062
12724TIP3   OH262150   2.672   4.953   2.530
12724TIP3    H162151   2.640   5.045   2.542
12724TIP3    H262152   2.602   4.903   2.575
12725TIP3   OH262153   2.721   5.373   3.172
12725TIP3    H162154   2.764   5.456   3.148
12725TIP3    H262155   2.779   5.343   3.242
12726TIP3   OH262156   2.541   5.452   2.484
12726TIP3    H162157   2.444   5.466   2.498
12726TIP3    H262158   2.578   5.535   2.519
12727TIP3   OH262159   3.068   4.969   3.137
12727TIP3    H162160   3.038   4.952   3.227
12727TIP3    H262161   3.133   4.898   3.120
12728TIP3   OH262162   3.305   5.080   2.044
12728TIP3    H162163   3.334   5.032   2.124
12728TIP3    H262164   3.210   5.061   2.051
12729TIP3   OH262165   3.751   5.514   2.070
12729TIP3    H162166   3.819   5.581   2.049
12729TIP3    H262167   3.679   5.575   2.098
12730TIP3   OH262168   2.160   4.157   3.328
12730TIP3    H162169   2.069   4.191   3.319
12730TIP3    H262170   2.144   4.069   3.364
12731TIP3   OH262171   3.382   4.943   2.268
12731TIP3    H162172   3.358   4.864   2.321
12731TIP3    H262173   3.477   4.946   2.285
12732TIP3   OH262174   2.122   5.336   3.165
12732TIP3    H162175   2.148   5.243   3.165
12732TIP3    H262176   2.149   5.366   3.253
12733TIP3   OH262177   2.718   5.187   1.894
12733TIP3    H162178   2.727   5.110   1.835
12733TIP3    H262179   2.672   5.143   1.970
12734TIP3   OH262180   2.593   5.139   2.139
12734TIP3    H162181   2.622   5.087   2.216
12734TIP3    H262182   2.604   5.231   2.172
12735TIP3   OH262183   2.249   4.863   2.187
12735TIP3    H162184   2.177   4.903   2.240
12735TIP3    H262185   2.299   4.941   2.157
12736TIP3   OH262186   3.036   4.133   3.219
12736TIP3    H162187   3.097   4.134   3.292
12736TIP3    H262188   2.991   4.046   3.231
12737TIP3   OH262189   3.105   4.088   2.327
12737TIP3    H162190   3.129   4.134   2.244
12737TIP3    H262191   3.162   4.134   2.391
12738TIP3   OH262192   2.875   5.305   2.208
12738TIP3    H162193   2.793   5.358   2.216
12738TIP3    H262194   2.929   5.361   2.150
12739TIP3   OH262195   2.829   4.263   2.411
12739TIP3    H162196   2.907   4.323   2.416
12739TIP3    H262197   2.803   4.252   2.504
12740TIP3   OH262198   2.875   4.356   3.328
12740TIP3    H162199   2.886   4.427   3.394
12740TIP3    H262200   2.952   4.300   3.334
12741TIP3   OH262201   2.914   3.969   2.499
12741TIP3    H162202   2.883   4.035   2.564
12741TIP3    H262203   2.983   4.024   2.453
12742TIP3   OH262204   2.616   5.408   2.212
12742TIP3    H162205   2.624   5.489   2.156
12742TIP3    H262206   2.587   5.445   2.298
12743TIP3   OH262207   2.479   4.080   2.169
12743TIP3    H162208   2.474   4.170   2.208
12743TIP3    H262209   2.570   4.056   2.195
12744TIP3   OH262210   3.362   4.532   2.812
12744TIP3    H162211   3.278   4.487   2.785
12744TIP3    H262212   3.411   4.468   2.864
12745TIP3   OH262213   2.302   5.125   2.073
12745TIP3    H162214   2.370   5.186   2.105
12745TIP3    H262215   2.355   5.077   2.005
12746TIP3   OH262216   2.137   4.392   1.987
12746TIP3    H162217   2.139   4.488   2.009
12746TIP3    H262218   2.047   4.376   1.957
12747TIP3   OH262219   3.467   5.454   2.976
12747TIP3    H162220   3.458   5.531   2.916
12747TIP3    H262221   3.560   5.466   3.001
12748TIP3   OH262222   2.217   3.872   2.861
12748TIP3    H162223   2.199   3.872   2.765
12748TIP3    H262224   2.180   3.785   2.886
12749TIP3   OH262225   2.114   5.263   2.478
12749TIP3    H162226   2.029   5.306   2.472
12749TIP3    H262227   2.161   5.308   2.406
12750TIP3   OH262228   2.917   5.371   1.907
12750TIP3    H162229   2.847   5.305   1.927
12750TIP3    H262230   2.989   5.311   1.881
12751TIP3   OH262231   3.373   5.345   1.924
12751TIP3    H162232   3.402   5.268   1.975
12751TIP3    H262233   3.449   5.366   1.869
12752TIP3   OH262234   2.461   4.939   1.906
12752TIP3    H162235   2.475   4.864   1.965
12752TIP3    H262236   2.536   4.928   1.845
12753TIP3   OH262237   3.004   5.051   1.884
12753TIP3    H162238   2.977   5.058   1.977
12753TIP3    H262239   2.986   4.955   1.869
12754TIP3   OH262240   2.582   4.741   2.150
12754TIP3    H162241   2.530   4.687   2.212
12754TIP3    H262242   2.612   4.675   2.084
12755TIP3   OH262243   2.689   4.564   1.969
12755TIP3    H162244   2.674   4.556   1.872
12755TIP3    H262245   2.787   4.568   1.976
12756TIP3   OH262246   3.620   4.795   1.910
12756TIP3    H162247   3.603   4.758   1.822
12756TIP3    H262248   3.630   4.892   1.892
12757TIP3   OH262249   2.583   4.093   3.238
12757TIP3    H162250   2.636   4.144   3.173
12757TIP3    H262251   2.496   4.090   3.194
12758TIP3   OH262252   2.672   5.634   2.078
12758TIP3    H162253   2.768   5.641   2.084
12758TIP3    H262254   2.658   5.693   2.002
12759TIP3   OH262255   2.026   5.090   2.025
12759TIP3    H162256   2.123   5.100   2.042
12759TIP3    H262257   2.031   5.027   1.949
12760TIP3   OH262258   1.905   5.629   2.520
12760TIP3    H162259   1.833   5.580   2.475
12760TIP3    H262260   1.933   5.564   2.587
12761TIP3   OH262261   1.988   5.443   2.708
12761TIP3    H162262   1.952   5.355   2.728
12761TIP3    H262263   2.013   5.475   2.797
12762TIP3   OH262264   3.745   5.522   3.001
12762TIP3    H162265   3.743   5.538   3.097
12762TIP3    H262266   3.814   5.581   2.972
12763TIP3   OH262267   3.707   5.480   3.289
12763TIP3    H162268   3.645   5.410   3.257
12763TIP3    H262269   3.747   5.437   3.364
12764TIP3   OH262270   3.675   4.887   2.306
12764TIP3    H162271   3.762   4.927   2.324
12764TIP3    H262272   3.674   4.815   2.372
12765TIP3   OH262273   3.712   4.689   2.494
12765TIP3    H162274   3.634   4.647   2.535
12765TIP3    H262275   3.771   4.709   2.570
12766TIP3   OH262276   3.679   4.963   2.984
12766TIP3    H162277   3.766   4.922   2.966
12766TIP3    H262278   3.700   5.058   2.975
12767TIP3   OH262279   3.544   5.257   3.221
12767TIP3    H162280   3.474   5.284   3.281
12767TIP3    H262281   3.491   5.211   3.152
12768TIP3   OH262282   3.741   4.677   2.133
12768TIP3    H162283   3.684   4.711   2.061
12768TIP3    H262284   3.731   4.747   2.199
12769TIP3   OH262285   3.580   4.399   1.985
12769TIP3    H162286   3.587   4.466   1.915
12769TIP3    H262287   3.559   4.317   1.935
12770TIP3   OH262288   3.491   4.543   2.553
12770TIP3    H162289   3.479   4.447   2.547
12770TIP3    H262290   3.458   4.564   2.642
12771TIP3   OH262291   1.995   4.758   2.957
12771TIP3    H162292   2.012   4.743   2.862
12771TIP3    H262293   2.081   4.731   2.997
12772TIP3   OH262294   3.501   4.149   1.898
12772TIP3    H162295   3.561   4.105   1.961
12772TIP3    H262296   3.417   4.105   1.913
12773TIP3   OH262297   3.456   4.301   2.394
12773TIP3    H162298   3.489   4.209   2.405
12773TIP3    H262299   3.537   4.342   2.360
12774TIP3   OH262300   3.520   4.033   2.404
12774TIP3    H162301   3.547   3.984   2.484
12774TIP3    H262302   3.467   3.965   2.356
12775TIP3   OH262303   2.073   4.110   2.861
12775TIP3    H162304   2.121   4.027   2.883
12775TIP3    H262305   2.132   4.179   2.895
12776TIP3   OH262306   1.903   4.404   2.964
12776TIP3    H162307   1.960   4.383   2.888
12776TIP3    H262308   1.945   4.488   2.989
12777TIP3   OH262309   3.709   4.031   2.060
12777TIP3    H162310   3.749   3.961   2.004
12777TIP3    H262311   3.778   4.098   2.061
12778TIP3   OH262312   1.942   4.038   2.370
12778TIP3    H162313   1.847   4.052   2.354
12778TIP3    H262314   1.982   4.086   2.296
12779TIP3   OH262315   3.413   5.532   2.563
12779TIP3    H162316   3.483   5.501   2.501
12779TIP3    H262317   3.464   5.581   2.629
12780TIP3   OH262318   1.936   3.905   3.201
12780TIP3    H162319   1.866   3.885   3.264
12780TIP3    H262320   1.890   3.971   3.145
12781TIP3   OH262321   2.448   5.320   3.237
12781TIP3    H162322   2.417   5.408   3.215
12781TIP3    H262323   2.543   5.333   3.215
12782TIP3   OH262324   2.185   5.640   3.240
12782TIP3    H162325   2.118   5.702   3.204
12782TIP3    H262326   2.158   5.637   3.333
12783TIP3   OH262327   2.432   5.595   3.138
12783TIP3    H162328   2.353   5.619   3.190
12783TIP3    H262329   2.435   5.667   3.073
12784TIP3   OH262330   2.138   5.510   2.932
12784TIP3    H162331   2.131   5.468   3.020
12784TIP3    H262332   2.221   5.472   2.898
12785TIP3   OH262333   2.344   5.380   2.797
12785TIP3    H162334   2.328   5.288   2.823
12785TIP3    H262335   2.428   5.397   2.846
12786TIP3   OH262336   2.601   5.425   2.887
12786TIP3    H162337   2.621   5.333   2.864
12786TIP3    H262338   2.604   5.420   2.984
12787TIP3   OH262339   2.954   3.995   2.805
12787TIP3    H162340   2.884   3.933   2.832
12787TIP3    H262341   3.005   3.942   2.744
12788TIP3   OH262342   3.466   3.813   2.821
12788TIP3    H162343   3.527   3.856   2.757
12788TIP3    H262344   3.377   3.833   2.785
12789TIP3   OH262345   3.633   3.924   2.640
12789TIP3    H162346   3.699   3.868   2.596
12789TIP3    H262347   3.681   4.008   2.645
12790TIP3   OH262348   2.189   3.857   2.588
12790TIP3    H162349   2.109   3.839   2.535
12790TIP3    H262350   2.233   3.770   2.581
12791TIP3   OH262351   2.064   3.832   2.159
12791TIP3    H162352   2.114   3.897   2.106
12791TIP3    H262353   2.008   3.890   2.214
12792TIP3   OH262354   2.634   3.850   2.568
12792TIP3    H162355   2.725   3.886   2.559
12792TIP3    H262356   2.632   3.829   2.661
12793TIP3   OH262357   3.212   3.849   2.730
12793TIP3    H162358   3.202   3.864   2.635
12793TIP3    H262359   3.167   3.763   2.742
12794TIP3   OH262360   3.332   3.854   2.297
12794TIP3    H162361   3.258   3.914   2.282
12794TIP3    H262362   3.288   3.769   2.321
12795TIP3   OH262363   2.055   5.427   2.264
12795TIP3    H162364   1.990   5.425   2.192
12795TIP3    H262365   2.056   5.523   2.280
12796TIP3   OH262366   2.247   4.027   2.011
12796TIP3    H162367   2.300   3.965   1.959
12796TIP3    H262368   2.313   4.060   2.074
12797TIP3   OH262369   2.749   4.051   2.251
12797TIP3    H162370   2.775   3.994   2.325
12797TIP3    H262371   2.758   4.138   2.296
12798TIP3   OH262372   2.944   5.560   2.096
12798TIP3    H162373   3.036   5.580   2.074
12798TIP3    H262374   2.921   5.506   2.017
12799TIP3   OH262375   3.613   5.508   2.368
12799TIP3    H162376   3.593   5.430   2.312
12799TIP3    H262377   3.605   5.582   2.304
12800TIP3   OH262378   2.235   5.527   1.957
12800TIP3    H162379   2.209   5.552   2.047
12800TIP3    H262380   2.313   5.470   1.972
12801TIP3   OH262381   4.983   4.772   2.571
12801TIP3    H162382   4.980   4.870   2.572
12801TIP3    H262383   4.909   4.749   2.513
12802TIP3   OH262384   4.870   4.696   2.924
12802TIP3    H162385   4.864   4.631   2.996
12802TIP3    H262386   4.832   4.647   2.848
12803TIP3   OH262387   4.110   4.662   3.076
12803TIP3    H162388   4.103   4.604   3.154
12803TIP3    H262389   4.179   4.723   3.106
12804TIP3   OH262390   5.233   4.992   2.750
12804TIP3    H162391   5.196   4.920   2.801
12804TIP3    H262392   5.240   5.062   2.818
12805TIP3   OH262393   4.196   5.111   2.924
12805TIP3    H162394   4.165   5.022   2.899
12805TIP3    H262395   4.291   5.093   2.935
12806TIP3   OH262396   3.861   4.459   2.481
12806TIP3    H162397   3.820   4.549   2.473
12806TIP3    H262398   3.803   4.411   2.420
12807TIP3   OH262399   3.927   4.689   2.691
12807TIP3    H162400   3.955   4.608   2.740
12807TIP3    H262401   3.999   4.698   2.627
12808TIP3   OH262402   4.947   5.508   2.777
12808TIP3    H162403   5.013   5.440   2.747
12808TIP3    H262404   4.927   5.474   2.864
12809TIP3   OH262405   4.706   4.939   2.976
12809TIP3    H162406   4.738   4.877   2.909
12809TIP3    H262407   4.789   4.954   3.025
12810TIP3   OH262408   5.563   4.105   3.043
12810TIP3    H162409   5.582   4.161   3.122
12810TIP3    H262410   5.622   4.147   2.978
12811TIP3   OH262411   5.023   4.384   3.000
12811TIP3    H162412   5.038   4.288   2.998
12811TIP3    H262413   5.012   4.399   2.904
12812TIP3   OH262414   5.107   4.201   2.561
12812TIP3    H162415   5.171   4.169   2.628
12812TIP3    H262416   5.164   4.259   2.509
12813TIP3   OH262417   3.999   4.444   2.798
12813TIP3    H162418   4.059   4.386   2.846
12813TIP3    H262419   3.996   4.406   2.709
12814TIP3   OH262420   4.511   4.589   2.728
12814TIP3    H162421   4.577   4.532   2.770
12814TIP3    H262422   4.459   4.521   2.679
12815TIP3   OH262423   5.602   4.238   3.276
12815TIP3    H162424   5.553   4.322   3.260
12815TIP3    H262425   5.618   4.247   3.371
12816TIP3   OH262426   4.952   5.030   2.481
12816TIP3    H162427   4.926   5.004   2.392
12816TIP3    H262428   4.922   5.124   2.487
12817TIP3   OH262429   4.473   4.850   3.149
12817TIP3    H162430   4.402   4.909   3.175
12817TIP3    H262431   4.545   4.909   3.122
12818TIP3   OH262432   5.289   4.134   2.759
12818TIP3    H162433   5.267   4.059   2.815
12818TIP3    H262434   5.355   4.179   2.815
12819TIP3   OH262435   3.928   5.007   2.312
12819TIP3    H162436   3.904   5.043   2.224
12819TIP3    H262437   3.937   5.089   2.365
12820TIP3   OH262438   5.288   5.175   2.982
12820TIP3    H162439   5.193   5.187   3.002
12820TIP3    H262440   5.318   5.267   2.973
12821TIP3   OH262441   5.316   4.013   3.140
12821TIP3    H162442   5.247   4.070   3.104
12821TIP3    H262443   5.393   4.041   3.084
12822TIP3   OH262444   4.623   3.817   2.876
12822TIP3    H162445   4.611   3.722   2.860
12822TIP3    H262446   4.537   3.847   2.905
12823TIP3   OH262447   5.115   5.355   2.647
12823TIP3    H162448   5.157   5.282   2.597
12823TIP3    H262449   5.160   5.433   2.608
12824TIP3   OH262450   5.237   5.147   2.499
12824TIP3    H162451   5.206   5.077   2.439
12824TIP3    H262452   5.240   5.097   2.583
12825TIP3   OH262453   4.847   4.694   2.324
12825TIP3    H162454   4.778   4.753   2.288
12825TIP3    H262455   4.919   4.705   2.258
12826TIP3   OH262456   4.857   4.553   2.025
12826TIP3    H162457   4.927   4.552   2.092
12826TIP3    H262458   4.886   4.480   1.970
12827TIP3   OH262459   5.581   4.634   3.148
12827TIP3    H162460   5.522   4.711   3.161
12827TIP3    H262461   5.633   4.663   3.072
12828TIP3   OH262462   5.194   4.715   2.417
12828TIP3    H162463   5.120   4.740   2.476
12828TIP3    H262464   5.241   4.649   2.470
12829TIP3   OH262465   5.186   4.528   3.327
12829TIP3    H162466   5.184   4.606   3.384
12829TIP3    H262467   5.122   4.561   3.260
12830TIP3   OH262468   4.355   4.785   2.608
12830TIP3    H162469   4.322   4.746   2.524
12830TIP3    H262470   4.415   4.715   2.642
12831TIP3   OH262471   4.486   5.118   2.880
12831TIP3    H162472   4.486   5.069   2.796
12831TIP3    H262473   4.566   5.085   2.923
12832TIP3   OH262474   4.390   4.658   2.970
12832TIP3    H162475   4.446   4.670   2.891
12832TIP3    H262476   4.427   4.723   3.034
12833TIP3   OH262477   5.029   5.213   3.047
12833TIP3    H162478   5.000   5.279   3.112
12833TIP3    H262479   5.004   5.128   3.089
12834TIP3   OH262480   5.081   4.638   2.183
12834TIP3    H162481   5.136   4.655   2.263
12834TIP3    H262482   5.127   4.687   2.111
12835TIP3   OH262483   4.852   5.309   2.531
12835TIP3    H162484   4.894   5.340   2.612
12835TIP3    H262485   4.796   5.384   2.507
12836TIP3   OH262486   5.453   3.810   2.175
12836TIP3    H162487   5.358   3.820   2.198
12836TIP3    H262488   5.473   3.893   2.130
12837TIP3   OH262489   4.250   4.687   2.372
12837TIP3    H162490   4.222   4.766   2.320
12837TIP3    H262491   4.183   4.623   2.346
12838TIP3   OH262492   5.564   5.245   2.009
12838TIP3    H162493   5.582   5.339   2.026
12838TIP3    H262494   5.656   5.212   2.010
12839TIP3   OH262495   3.837   5.201   2.939
12839TIP3    H162496   3.933   5.188   2.938
12839TIP3    H262497   3.827   5.283   2.989
12840TIP3   OH262498   4.800   5.599   2.371
12840TIP3    H162499   4.788   5.592   2.275
12840TIP3    H262500   4.800   5.695   2.388
12841TIP3   OH262501   4.163   5.487   2.555
12841TIP3    H162502   4.178   5.446   2.643
12841TIP3    H262503   4.079   5.446   2.531
12842TIP3   OH262504   5.105   5.521   2.070
12842TIP3    H162505   5.151   5.445   2.027
12842TIP3    H262506   5.109   5.496   2.165
12843TIP3   OH262507   5.075   5.515   2.348
12843TIP3    H162508   4.978   5.522   2.364
12843TIP3    H262509   5.097   5.440   2.405
12844TIP3   OH262510   5.225   4.740   1.968
12844TIP3    H162511   5.222   4.722   1.871
12844TIP3    H262512   5.311   4.785   1.972
12845TIP3   OH262513   4.785   4.131   2.018
12845TIP3    H162514   4.752   4.125   2.109
12845TIP3    H262515   4.753   4.044   1.986
12846TIP3   OH262516   4.361   4.400   3.064
12846TIP3    H162517   4.293   4.398   3.133
12846TIP3    H262518   4.363   4.495   3.040
12847TIP3   OH262519   4.367   4.421   2.560
12847TIP3    H162520   4.276   4.394   2.554
12847TIP3    H262521   4.407   4.388   2.478
12848TIP3   OH262522   4.914   4.466   2.439
12848TIP3    H162523   4.875   4.548   2.402
12848TIP3    H262524   4.983   4.448   2.373
12849TIP3   OH262525   5.017   4.415   2.724
12849TIP3    H162526   4.989   4.472   2.650
12849TIP3    H262527   5.029   4.331   2.675
12850TIP3   OH262528   4.466   4.181   1.940
12850TIP3    H162529   4.425   4.119   1.999
12850TIP3    H262530   4.398   4.202   1.874
12851TIP3   OH262531   3.927   4.218   2.183
12851TIP3    H162532   3.962   4.274   2.111
12851TIP3    H262533   3.848   4.271   2.208
12852TIP3   OH262534   4.940   4.571   3.180
12852TIP3    H162535   4.973   4.501   3.120
12852TIP3    H262536   4.892   4.524   3.250
12853TIP3   OH262537   4.620   4.178   2.660
12853TIP3    H162538   4.528   4.173   2.689
12853TIP3    H262539   4.669   4.151   2.739
12854TIP3   OH262540   4.464   4.335   2.311
12854TIP3    H162541   4.560   4.341   2.326
12854TIP3    H262542   4.445   4.402   2.243
12855TIP3   OH262543   5.060   4.096   2.987
12855TIP3    H162544   4.988   4.101   3.054
12855TIP3    H262545   5.011   4.068   2.907
12856TIP3   OH262546   4.334   4.439   2.072
12856TIP3    H162547   4.281   4.411   1.995
12856TIP3    H262548   4.414   4.469   2.026
12857TIP3   OH262549   4.746   4.445   2.849
12857TIP3    H162550   4.804   4.392   2.795
12857TIP3    H262551   4.734   4.392   2.928
12858TIP3   OH262552   4.669   4.900   2.262
12858TIP3    H162553   4.588   4.855   2.228
12858TIP3    H262554   4.645   4.915   2.356
12859TIP3   OH262555   5.383   4.821   3.143
12859TIP3    H162556   5.445   4.870   3.086
12859TIP3    H262557   5.300   4.829   3.093
12860TIP3   OH262558   5.050   4.182   2.080
12860TIP3    H162559   4.955   4.198   2.066
12860TIP3    H262560   5.085   4.267   2.115
12861TIP3   OH262561   4.821   4.928   3.384
12861TIP3    H162562   4.779   4.879   3.456
12861TIP3    H262563   4.789   5.016   3.392
12862TIP3   OH262564   5.125   4.376   2.241
12862TIP3    H162565   5.212   4.362   2.283
12862TIP3    H262566   5.136   4.458   2.190
12863TIP3   OH262567   4.179   4.837   2.843
12863TIP3    H162568   4.248   4.833   2.774
12863TIP3    H262569   4.186   4.752   2.889
12864TIP3   OH262570   4.877   5.048   2.165
12864TIP3    H162571   4.843   5.133   2.200
12864TIP3    H262572   4.805   4.986   2.188
12865TIP3   OH262573   3.892   4.664   3.355
12865TIP3    H162574   3.895   4.648   3.451
12865TIP3    H262575   3.810   4.621   3.327
12866TIP3   OH262576   5.616   4.388   2.219
12866TIP3    H162577   5.558   4.361   2.145
12866TIP3    H262578   5.623   4.483   2.196
12867TIP3   OH262579   5.440   5.272   2.259
12867TIP3    H162580   5.408   5.188   2.294
12867TIP3    H262581   5.477   5.249   2.172
12868TIP3   OH262582   5.165   4.755   2.966
12868TIP3    H162583   5.071   4.732   2.959
12868TIP3    H262584   5.209   4.678   2.926
12869TIP3   OH262585   4.418   5.187   2.581
12869TIP3    H162586   4.467   5.268   2.560
12869TIP3    H262587   4.330   5.210   2.547
12870TIP3   OH262588   3.994   4.670   2.037
12870TIP3    H162589   4.051   4.737   2.079
12870TIP3    H262590   3.905   4.701   2.062
12871TIP3   OH262591   4.558   4.954   2.530
12871TIP3    H162592   4.526   5.045   2.541
12871TIP3    H262593   4.488   4.903   2.576
12872TIP3   OH262594   4.614   5.366   3.162
12872TIP3    H162595   4.646   5.456   3.147
12872TIP3    H262596   4.660   5.342   3.243
12873TIP3   OH262597   4.426   5.452   2.484
12873TIP3    H162598   4.330   5.466   2.498
12873TIP3    H262599   4.463   5.535   2.518
12874TIP3   OH262600   4.950   4.969   3.134
12874TIP3    H162601   4.926   4.951   3.227
12874TIP3    H262602   5.020   4.903   3.119
12875TIP3   OH262603   5.191   5.080   2.043
12875TIP3    H162604   5.220   5.032   2.124
12875TIP3    H262605   5.096   5.061   2.051
12876TIP3   OH262606   5.221   5.443   3.383
12876TIP3    H162607   5.175   5.375   3.334
12876TIP3    H262608   5.258   5.500   3.314
12877TIP3   OH262609   5.635   5.514   2.069
12877TIP3    H162610   5.703   5.579   2.045
12877TIP3    H262611   5.564   5.575   2.098
12878TIP3   OH262612   5.267   4.943   2.268
12878TIP3    H162613   5.243   4.864   2.322
12878TIP3    H262614   5.362   4.946   2.285
12879TIP3   OH262615   4.012   5.339   3.163
12879TIP3    H162616   4.036   5.245   3.163
12879TIP3    H262617   4.037   5.365   3.252
12880TIP3   OH262618   4.604   5.187   1.894
12880TIP3    H162619   4.612   5.110   1.834
12880TIP3    H262620   4.557   5.143   1.970
12881TIP3   OH262621   4.479   5.139   2.139
12881TIP3    H162622   4.508   5.087   2.216
12881TIP3    H262623   4.489   5.231   2.172
12882TIP3   OH262624   4.134   4.864   2.187
12882TIP3    H162625   4.062   4.904   2.241
12882TIP3    H262626   4.185   4.941   2.157
12883TIP3   OH262627   4.918   4.125   3.211
12883TIP3    H162628   4.974   4.136   3.286
12883TIP3    H262629   4.866   4.048   3.232
12884TIP3   OH262630   4.990   4.087   2.330
12884TIP3    H162631   5.012   4.133   2.246
12884TIP3    H262632   5.048   4.133   2.392
12885TIP3   OH262633   4.760   5.305   2.208
12885TIP3    H162634   4.678   5.358   2.216
12885TIP3    H262635   4.815   5.361   2.150
12886TIP3   OH262636   4.713   4.264   2.409
12886TIP3    H162637   4.791   4.323   2.413
12886TIP3    H262638   4.689   4.250   2.502
12887TIP3   OH262639   4.804   3.971   2.500
12887TIP3    H162640   4.767   4.035   2.562
12887TIP3    H262641   4.870   4.027   2.453
12888TIP3   OH262642   4.501   5.408   2.212
12888TIP3    H162643   4.510   5.489   2.156
12888TIP3    H262644   4.473   5.445   2.298
12889TIP3   OH262645   5.250   4.532   2.810
12889TIP3    H162646   5.166   4.487   2.788
12889TIP3    H262647   5.298   4.465   2.864
12890TIP3   OH262648   4.188   5.125   2.073
12890TIP3    H162649   4.256   5.186   2.105
12890TIP3    H262650   4.240   5.077   2.005
12891TIP3   OH262651   4.021   4.391   1.991
12891TIP3    H162652   4.025   4.488   2.006
12891TIP3    H262653   3.933   4.377   1.955
12892TIP3   OH262654   5.353   5.461   2.983
12892TIP3    H162655   5.347   5.526   2.910
12892TIP3    H262656   5.450   5.462   2.999
12893TIP3   OH262657   4.000   5.263   2.478
12893TIP3    H162658   3.914   5.307   2.472
12893TIP3    H262659   4.047   5.308   2.406
12894TIP3   OH262660   4.803   5.371   1.906
12894TIP3    H162661   4.733   5.305   1.927
12894TIP3    H262662   4.874   5.311   1.881
12895TIP3   OH262663   5.258   5.345   1.924
12895TIP3    H162664   5.288   5.268   1.975
12895TIP3    H262665   5.335   5.366   1.869
12896TIP3   OH262666   4.347   4.940   1.905
12896TIP3    H162667   4.361   4.864   1.965
12896TIP3    H262668   4.422   4.928   1.844
12897TIP3   OH262669   4.890   5.050   1.884
12897TIP3    H162670   4.863   5.058   1.977
12897TIP3    H262671   4.871   4.954   1.869
12898TIP3   OH262672   4.468   4.743   2.150
12898TIP3    H162673   4.418   4.688   2.211
12898TIP3    H262674   4.498   4.675   2.084
12899TIP3   OH262675   4.574   4.563   1.968
12899TIP3    H162676   4.561   4.556   1.872
12899TIP3    H262677   4.672   4.566   1.977
12900TIP3   OH262678   5.506   4.796   1.910
12900TIP3    H162679   5.489   4.759   1.823
12900TIP3    H262680   5.516   4.892   1.892
12901TIP3   OH262681   4.417   4.257   3.485
12901TIP3    H162682   4.453   4.193   3.425
12901TIP3    H262683   4.434   4.340   3.438
12902TIP3   OH262684   4.631   4.641   3.258
12902TIP3    H162685   4.708   4.633   3.203
12902TIP3    H262686   4.590   4.725   3.235
12903TIP3   OH262687   4.552   3.845   3.283
12903TIP3    H162688   4.540   3.939   3.269
12903TIP3    H262689   4.479   3.806   3.234
12904TIP3   OH262690   4.557   5.634   2.078
12904TIP3    H162691   4.654   5.641   2.085
12904TIP3    H262692   4.544   5.693   2.002
12905TIP3   OH262693   3.912   5.090   2.025
12905TIP3    H162694   4.008   5.100   2.042
12905TIP3    H262695   3.916   5.027   1.949
12906TIP3   OH262696   3.791   5.628   2.521
12906TIP3    H162697   3.719   5.580   2.475
12906TIP3    H262698   3.819   5.563   2.588
12907TIP3   OH262699   3.873   5.444   2.710
12907TIP3    H162700   3.837   5.356   2.730
12907TIP3    H262701   3.896   5.476   2.799
12908TIP3   OH262702   5.628   5.523   2.999
12908TIP3    H162703   5.628   5.538   3.096
12908TIP3    H262704   5.700   5.582   2.973
12909TIP3   OH262705   5.593   5.476   3.287
12909TIP3    H162706   5.530   5.406   3.260
12909TIP3    H262707   5.629   5.444   3.369
12910TIP3   OH262708   5.561   4.888   2.305
12910TIP3    H162709   5.648   4.927   2.324
12910TIP3    H262710   5.559   4.817   2.372
12911TIP3   OH262711   5.596   4.696   2.495
12911TIP3    H162712   5.521   4.646   2.534
12911TIP3    H262713   5.656   4.707   2.571
12912TIP3   OH262714   5.567   4.961   2.989
12912TIP3    H162715   5.652   4.923   2.961
12912TIP3    H262716   5.583   5.056   2.976
12913TIP3   OH262717   5.431   5.256   3.218
12913TIP3    H162718   5.366   5.279   3.287
12913TIP3    H262719   5.376   5.209   3.153
12914TIP3   OH262720   5.627   4.677   2.134
12914TIP3    H162721   5.569   4.710   2.061
12914TIP3    H262722   5.616   4.749   2.199
12915TIP3   OH262723   5.464   4.400   1.984
12915TIP3    H162724   5.472   4.466   1.914
12915TIP3    H262725   5.446   4.316   1.936
12916TIP3   OH262726   5.379   4.542   2.553
12916TIP3    H162727   5.364   4.447   2.547
12916TIP3    H262728   5.347   4.562   2.643
12917TIP3   OH262729   3.879   4.757   2.957
12917TIP3    H162730   3.895   4.742   2.862
12917TIP3    H262731   3.965   4.730   2.994
12918TIP3   OH262732   5.389   4.148   1.898
12918TIP3    H162733   5.448   4.103   1.962
12918TIP3    H262734   5.303   4.107   1.913
12919TIP3   OH262735   5.343   4.300   2.392
12919TIP3    H162736   5.374   4.208   2.409
12919TIP3    H262737   5.425   4.341   2.363
12920TIP3   OH262738   5.406   4.353   2.942
12920TIP3    H162739   5.502   4.377   2.937
12920TIP3    H262740   5.393   4.369   3.038
12921TIP3   OH262741   5.412   4.427   3.214
12921TIP3    H162742   5.331   4.463   3.255
12921TIP3    H262743   5.465   4.510   3.198
12922TIP3   OH262744   5.413   4.029   2.402
12922TIP3    H162745   5.435   3.987   2.487
12922TIP3    H262746   5.353   3.965   2.359
12923TIP3   OH262747   5.594   4.033   2.058
12923TIP3    H162748   5.635   3.962   2.003
12923TIP3    H262749   5.665   4.099   2.063
12924TIP3   OH262750   3.828   4.038   2.376
12924TIP3    H162751   3.734   4.048   2.354
12924TIP3    H262752   3.867   4.078   2.297
12925TIP3   OH262753   5.300   5.532   2.564
12925TIP3    H162754   5.369   5.501   2.501
12925TIP3    H262755   5.352   5.581   2.629
12926TIP3   OH262756   5.008   5.603   3.459
12926TIP3    H162757   5.071   5.529   3.443
12926TIP3    H262758   5.030   5.632   3.549
12927TIP3   OH262759   4.075   5.656   3.248
12927TIP3    H162760   3.998   5.695   3.201
12927TIP3    H262761   4.039   5.623   3.330
12928TIP3   OH262762   4.324   5.610   3.140
12928TIP3    H162763   4.241   5.616   3.191
12928TIP3    H262764   4.312   5.669   3.065
12929TIP3   OH262765   4.798   5.596   3.064
12929TIP3    H162766   4.748   5.651   3.002
12929TIP3    H262767   4.803   5.656   3.142
12930TIP3   OH262768   5.022   5.476   3.165
12930TIP3    H162769   4.935   5.504   3.133
12930TIP3    H262770   5.069   5.561   3.157
12931TIP3   OH262771   5.275   5.643   3.184
12931TIP3    H162772   5.275   5.733   3.154
12931TIP3    H262773   5.305   5.592   3.105
12932TIP3   OH262774   4.024   5.511   2.935
12932TIP3    H162775   4.017   5.466   3.022
12932TIP3    H262776   4.107   5.473   2.899
12933TIP3   OH262777   4.232   5.382   2.801
12933TIP3    H162778   4.216   5.289   2.823
12933TIP3    H262779   4.316   5.398   2.849
12934TIP3   OH262780   4.492   5.430   2.888
12934TIP3    H162781   4.506   5.336   2.865
12934TIP3    H262782   4.493   5.423   2.985
12935TIP3   OH262783   4.838   3.996   2.805
12935TIP3    H162784   4.770   3.931   2.827
12935TIP3    H262785   4.892   3.944   2.742
12936TIP3   OH262786   5.350   3.798   2.808
12936TIP3    H162787   5.411   3.859   2.760
12936TIP3    H262788   5.262   3.836   2.788
12937TIP3   OH262789   5.515   3.926   2.636
12937TIP3    H162790   5.584   3.867   2.596
12937TIP3    H262791   5.568   4.008   2.648
12938TIP3   OH262792   5.095   3.851   2.729
12938TIP3    H162793   5.086   3.863   2.634
12938TIP3    H262794   5.054   3.762   2.742
12939TIP3   OH262795   5.219   3.855   2.297
12939TIP3    H162796   5.143   3.913   2.281
12939TIP3    H262797   5.175   3.770   2.322
12940TIP3   OH262798   3.941   5.427   2.264
12940TIP3    H162799   3.876   5.425   2.191
12940TIP3    H262800   3.941   5.523   2.280
12941TIP3   OH262801   4.135   4.032   2.009
12941TIP3    H162802   4.180   3.966   1.952
12941TIP3    H262803   4.205   4.052   2.070
12942TIP3   OH262804   4.636   4.051   2.251
12942TIP3    H162805   4.659   3.993   2.325
12942TIP3    H262806   4.641   4.137   2.297
12943TIP3   OH262807   4.829   5.561   2.095
12943TIP3    H162808   4.922   5.580   2.073
12943TIP3    H262809   4.807   5.506   2.017
12944TIP3   OH262810   5.502   5.509   2.368
12944TIP3    H162811   5.480   5.430   2.313
12944TIP3    H262812   5.489   5.582   2.303
12945TIP3   OH262813   4.120   5.527   1.957
12945TIP3    H162814   4.094   5.552   2.047
12945TIP3    H262815   4.199   5.470   1.973
12946TIP3   OH262816   6.868   4.772   2.572
12946TIP3    H162817   6.865   4.870   2.572
12946TIP3    H262818   6.794   4.748   2.513
12947TIP3   OH262819   6.755   4.696   2.923
12947TIP3    H162820   6.751   4.632   2.996
12947TIP3    H262821   6.719   4.646   2.848
12948TIP3   OH262822   5.989   4.665   3.079
12948TIP3    H162823   5.996   4.594   3.146
12948TIP3    H262824   6.063   4.721   3.103
12949TIP3   OH262825   7.121   4.993   2.753
12949TIP3    H162826   7.079   4.921   2.802
12949TIP3    H262827   7.124   5.063   2.820
12950TIP3   OH262828   6.081   5.109   2.931
12950TIP3    H162829   6.051   5.022   2.896
12950TIP3    H262830   6.177   5.094   2.931
12951TIP3   OH262831   5.744   4.464   2.478
12951TIP3    H162832   5.701   4.552   2.471
12951TIP3    H262833   5.688   4.410   2.421
12952TIP3   OH262834   5.817   4.688   2.692
12952TIP3    H162835   5.844   4.606   2.739
12952TIP3    H262836   5.886   4.698   2.625
12953TIP3   OH262837   6.832   5.507   2.778
12953TIP3    H162838   6.898   5.440   2.746
12953TIP3    H262839   6.813   5.473   2.865
12954TIP3   OH262840   6.591   4.939   2.973
12954TIP3    H162841   6.624   4.875   2.908
12954TIP3    H262842   6.674   4.952   3.023
12955TIP3   OH262843   7.459   4.102   3.051
12955TIP3    H162844   7.462   4.174   3.114
12955TIP3    H262845   7.506   4.143   2.976
12956TIP3   OH262846   6.905   4.379   3.006
12956TIP3    H162847   6.925   4.285   2.997
12956TIP3    H262848   6.896   4.399   2.911
12957TIP3   OH262849   6.218   4.193   2.723
12957TIP3    H162850   6.230   4.276   2.673
12957TIP3    H262851   6.179   4.135   2.654
12958TIP3   OH262852   6.992   4.200   2.560
12958TIP3    H162853   7.056   4.170   2.628
12958TIP3    H262854   7.049   4.260   2.509
12959TIP3   OH262855   5.880   4.435   2.795
12959TIP3    H162856   5.947   4.381   2.843
12959TIP3    H262857   5.893   4.402   2.705
12960TIP3   OH262858   6.396   4.590   2.729
12960TIP3    H162859   6.463   4.531   2.769
12960TIP3    H262860   6.346   4.524   2.678
12961TIP3   OH262861   6.112   4.082   3.123
12961TIP3    H162862   6.083   4.143   3.052
12961TIP3    H262863   6.046   4.104   3.193
12962TIP3   OH262864   6.838   5.030   2.483
12962TIP3    H162865   6.813   5.004   2.393
12962TIP3    H262866   6.807   5.124   2.487
12963TIP3   OH262867   6.361   4.851   3.151
12963TIP3    H162868   6.289   4.910   3.172
12963TIP3    H262869   6.431   4.911   3.122
12964TIP3   OH262870   7.171   4.136   2.760
12964TIP3    H162871   7.152   4.060   2.815
12964TIP3    H262872   7.241   4.180   2.811
12965TIP3   OH262873   6.065   4.269   2.928
12965TIP3    H162874   6.129   4.337   2.961
12965TIP3    H262875   6.119   4.228   2.857
12966TIP3   OH262876   5.814   5.007   2.312
12966TIP3    H162877   5.789   5.043   2.225
12966TIP3    H262878   5.822   5.089   2.365
12967TIP3   OH262879   7.174   5.176   2.986
12967TIP3    H162880   7.077   5.186   2.999
12967TIP3    H262881   7.201   5.268   2.968
12968TIP3   OH262882   7.205   4.017   3.140
12968TIP3    H162883   7.129   4.066   3.106
12968TIP3    H262884   7.275   4.042   3.077
12969TIP3   OH262885   6.503   3.818   2.870
12969TIP3    H162886   6.488   3.721   2.866
12969TIP3    H262887   6.416   3.848   2.905
12970TIP3   OH262888   6.999   5.354   2.646
12970TIP3    H162889   7.043   5.282   2.595
12970TIP3    H262890   7.046   5.433   2.610
12971TIP3   OH262891   7.123   5.147   2.499
12971TIP3    H162892   7.092   5.077   2.439
12971TIP3    H262893   7.125   5.097   2.583
12972TIP3   OH262894   7.277   5.006   3.344
12972TIP3    H162895   7.300   4.940   3.276
12972TIP3    H262896   7.315   5.089   3.311
12973TIP3   OH262897   6.733   4.694   2.324
12973TIP3    H162898   6.665   4.753   2.288
12973TIP3    H262899   6.804   4.705   2.259
12974TIP3   OH262900   6.742   4.553   2.025
12974TIP3    H162901   6.812   4.552   2.092
12974TIP3    H262902   6.772   4.480   1.970
12975TIP3   OH262903   7.471   4.633   3.154
12975TIP3    H162904   7.411   4.711   3.163
12975TIP3    H262905   7.521   4.661   3.075
12976TIP3   OH262906   7.079   4.716   2.418
12976TIP3    H162907   7.005   4.740   2.477
12976TIP3    H262908   7.127   4.649   2.470
12977TIP3   OH262909   6.239   4.782   2.608
12977TIP3    H162910   6.207   4.743   2.523
12977TIP3    H262911   6.301   4.713   2.642
12978TIP3   OH262912   6.370   5.118   2.882
12978TIP3    H162913   6.371   5.070   2.798
12978TIP3    H262914   6.451   5.085   2.925
12979TIP3   OH262915   6.273   4.655   2.974
12979TIP3    H162916   6.326   4.666   2.893
12979TIP3    H262917   6.310   4.723   3.035
12980TIP3   OH262918   6.916   5.213   3.050
12980TIP3    H162919   6.883   5.277   3.114
12980TIP3    H262920   6.885   5.128   3.089
12981TIP3   OH262921   6.967   4.638   2.183
12981TIP3    H162922   7.022   4.655   2.263
12981TIP3    H262923   7.013   4.686   2.111
12982TIP3   OH262924   6.737   5.309   2.530
12982TIP3    H162925   6.780   5.339   2.611
12982TIP3    H262926   6.682   5.384   2.506
12983TIP3   OH262927   7.336   3.811   2.173
12983TIP3    H162928   7.241   3.826   2.195
12983TIP3    H262929   7.359   3.895   2.128
12984TIP3   OH262930   6.135   4.683   2.373
12984TIP3    H162931   6.107   4.762   2.320
12984TIP3    H262932   6.071   4.617   2.346
12985TIP3   OH262933   7.450   5.245   2.009
12985TIP3    H162934   7.467   5.339   2.026
12985TIP3    H262935   7.542   5.213   2.009
12986TIP3   OH262936   5.721   5.203   2.939
12986TIP3    H162937   5.816   5.189   2.937
12986TIP3    H262938   5.712   5.284   2.991
12987TIP3   OH262939   6.686   5.599   2.371
12987TIP3    H162940   6.674   5.592   2.275
12987TIP3    H262941   6.686   5.695   2.387
12988TIP3   OH262942   6.048   5.488   2.554
12988TIP3    H162943   6.065   5.445   2.641
12988TIP3    H262944   5.965   5.442   2.531
12989TIP3   OH262945   6.991   5.521   2.069
12989TIP3    H162946   7.037   5.445   2.027
12989TIP3    H262947   6.995   5.496   2.164
12990TIP3   OH262948   6.961   5.515   2.348
12990TIP3    H162949   6.864   5.522   2.364
12990TIP3    H262950   6.983   5.440   2.405
12991TIP3   OH262951   6.242   3.908   2.945
12991TIP3    H162952   6.151   3.895   2.912
12991TIP3    H262953   6.229   3.987   3.000
12992TIP3   OH262954   6.702   3.879   3.290
12992TIP3    H162955   6.743   3.831   3.365
12992TIP3    H262956   6.606   3.859   3.303
12993TIP3   OH262957   7.112   4.740   1.968
12993TIP3    H162958   7.108   4.721   1.871
12993TIP3    H262959   7.197   4.785   1.971
12994TIP3   OH262960   6.670   4.133   2.016
12994TIP3    H162961   6.638   4.126   2.108
12994TIP3    H262962   6.639   4.045   1.984
12995TIP3   OH262963   6.249   4.403   3.068
12995TIP3    H162964   6.179   4.403   3.136
12995TIP3    H262965   6.248   4.496   3.036
12996TIP3   OH262966   6.248   4.413   2.562
12996TIP3    H162967   6.154   4.390   2.548
12996TIP3    H262968   6.285   4.386   2.475
12997TIP3   OH262969   6.801   4.467   2.440
12997TIP3    H162970   6.761   4.549   2.401
12997TIP3    H262971   6.868   4.448   2.372
12998TIP3   OH262972   6.904   4.416   2.722
12998TIP3    H162973   6.874   4.472   2.649
12998TIP3    H262974   6.913   4.330   2.676
12999TIP3   OH262975   6.015   4.432   3.247
12999TIP3    H162976   6.017   4.470   3.336
12999TIP3    H262977   5.971   4.348   3.265
13000TIP3   OH262978   6.351   4.168   1.928
13000TIP3    H162979   6.305   4.126   2.004
13000TIP3    H262980   6.280   4.212   1.879
13001TIP3   OH262981   5.680   4.138   2.642
13001TIP3    H162982   5.749   4.135   2.712
13001TIP3    H262983   5.725   4.102   2.564
13002TIP3   OH262984   5.806   4.211   2.176
13002TIP3    H162985   5.859   4.271   2.120
13002TIP3    H262986   5.738   4.274   2.207
13003TIP3   OH262987   6.804   4.570   3.168
13003TIP3    H162988   6.859   4.507   3.115
13003TIP3    H262989   6.772   4.522   3.243
13004TIP3   OH262990   6.504   4.172   2.662
13004TIP3    H162991   6.410   4.171   2.690
13004TIP3    H262992   6.551   4.153   2.744
13005TIP3   OH262993   5.984   4.326   2.549
13005TIP3    H162994   5.896   4.342   2.509
13005TIP3    H262995   6.013   4.242   2.509
13006TIP3   OH262996   6.348   4.331   2.311
13006TIP3    H162997   6.444   4.342   2.327
13006TIP3    H262998   6.325   4.399   2.246
13007TIP3   OH262999   6.944   4.100   2.986
13007TIP3    H163000   6.874   4.094   3.054
13007TIP3    H263001   6.897   4.068   2.907
13008TIP3   OH263002   6.220   4.448   2.070
13008TIP3    H163003   6.166   4.410   1.998
13008TIP3    H263004   6.302   4.470   2.022
13009TIP3   OH263005   6.631   4.446   2.849
13009TIP3    H163006   6.693   4.394   2.796
13009TIP3    H263007   6.618   4.391   2.927
13010TIP3   OH263008   6.133   4.061   2.494
13010TIP3    H163009   6.101   3.969   2.495
13010TIP3    H263010   6.212   4.053   2.439
13011TIP3   OH263011   6.495   4.276   3.092
13011TIP3    H163012   6.411   4.328   3.094
13011TIP3    H263013   6.548   4.316   3.161
13012TIP3   OH263014   6.555   4.901   2.262
13012TIP3    H163015   6.474   4.855   2.228
13012TIP3    H263016   6.531   4.915   2.356
13013TIP3   OH263017   7.275   4.820   3.142
13013TIP3    H163018   7.332   4.871   3.081
13013TIP3    H263019   7.189   4.824   3.097
13014TIP3   OH263020   6.936   4.182   2.080
13014TIP3    H163021   6.842   4.199   2.066
13014TIP3    H263022   6.971   4.267   2.115
13015TIP3   OH263023   7.011   4.376   2.240
13015TIP3    H163024   7.098   4.363   2.283
13015TIP3    H263025   7.021   4.458   2.190
13016TIP3   OH263026   6.067   4.843   2.843
13016TIP3    H163027   6.132   4.834   2.771
13016TIP3    H263028   6.070   4.755   2.885
13017TIP3   OH263029   6.763   5.048   2.165
13017TIP3    H163030   6.729   5.133   2.200
13017TIP3    H263031   6.690   4.986   2.188
13018TIP3   OH263032   7.496   4.388   2.222
13018TIP3    H163033   7.444   4.361   2.145
13018TIP3    H263034   7.514   4.480   2.194
13019TIP3   OH263035   7.326   5.271   2.258
13019TIP3    H163036   7.293   5.188   2.294
13019TIP3    H263037   7.363   5.249   2.171
13020TIP3   OH263038   7.050   4.756   2.972
13020TIP3    H163039   6.957   4.734   2.958
13020TIP3    H263040   7.094   4.680   2.928
13021TIP3   OH263041   6.303   5.187   2.581
13021TIP3    H163042   6.353   5.268   2.560
13021TIP3    H263043   6.216   5.209   2.547
13022TIP3   OH263044   5.880   4.670   2.038
13022TIP3    H163045   5.938   4.737   2.080
13022TIP3    H263046   5.791   4.701   2.062
13023TIP3   OH263047   6.443   4.953   2.530
13023TIP3    H163048   6.412   5.045   2.541
13023TIP3    H263049   6.373   4.903   2.576
13024TIP3   OH263050   6.489   5.372   3.167
13024TIP3    H163051   6.536   5.454   3.148
13024TIP3    H263052   6.545   5.340   3.241
13025TIP3   OH263053   6.312   5.453   2.483
13025TIP3    H163054   6.216   5.465   2.499
13025TIP3    H263055   6.350   5.535   2.519
13026TIP3   OH263056   6.841   4.970   3.133
13026TIP3    H163057   6.809   4.957   3.224
13026TIP3    H263058   6.907   4.900   3.120
13027TIP3   OH263059   7.076   5.081   2.044
13027TIP3    H163060   7.105   5.032   2.124
13027TIP3    H263061   6.981   5.061   2.051
13028TIP3   OH263062   7.522   5.515   2.069
13028TIP3    H163063   7.591   5.581   2.049
13028TIP3    H263064   7.450   5.575   2.098
13029TIP3   OH263065   5.926   4.155   3.319
13029TIP3    H163066   5.834   4.185   3.317
13029TIP3    H263067   5.923   4.071   3.369
13030TIP3   OH263068   7.153   4.943   2.268
13030TIP3    H163069   7.129   4.864   2.321
13030TIP3    H263070   7.248   4.946   2.285
13031TIP3   OH263071   5.890   5.335   3.170
13031TIP3    H163072   5.925   5.245   3.162
13031TIP3    H263073   5.928   5.369   3.251
13032TIP3   OH263074   6.489   5.186   1.894
13032TIP3    H163075   6.498   5.110   1.834
13032TIP3    H263076   6.443   5.143   1.970
13033TIP3   OH263077   6.364   5.139   2.139
13033TIP3    H163078   6.394   5.087   2.216
13033TIP3    H263079   6.375   5.231   2.172
13034TIP3   OH263080   6.020   4.863   2.188
13034TIP3    H163081   5.948   4.903   2.241
13034TIP3    H263082   6.070   4.941   2.157
13035TIP3   OH263083   6.799   4.136   3.227
13035TIP3    H163084   6.874   4.120   3.283
13035TIP3    H263085   6.760   4.045   3.231
13036TIP3   OH263086   6.877   4.087   2.329
13036TIP3    H163087   6.900   4.134   2.245
13036TIP3    H263088   6.934   4.134   2.391
13037TIP3   OH263089   6.646   5.305   2.208
13037TIP3    H163090   6.564   5.358   2.216
13037TIP3    H263091   6.700   5.361   2.150
13038TIP3   OH263092   6.600   4.263   2.410
13038TIP3    H163093   6.678   4.323   2.415
13038TIP3    H263094   6.573   4.251   2.503
13039TIP3   OH263095   6.684   3.970   2.497
13039TIP3    H163096   6.652   4.035   2.561
13039TIP3    H263097   6.754   4.024   2.454
13040TIP3   OH263098   6.387   5.408   2.212
13040TIP3    H163099   6.394   5.489   2.156
13040TIP3    H263100   6.357   5.445   2.298
13041TIP3   OH263101   6.251   4.080   2.169
13041TIP3    H163102   6.246   4.170   2.208
13041TIP3    H263103   6.341   4.056   2.195
13042TIP3   OH263104   7.276   4.155   3.414
13042TIP3    H163105   7.183   4.172   3.405
13042TIP3    H263106   7.301   4.152   3.321
13043TIP3   OH263107   7.134   4.534   2.811
13043TIP3    H163108   7.052   4.488   2.785
13043TIP3    H263109   7.184   4.466   2.861
13044TIP3   OH263110   6.074   5.124   2.073
13044TIP3    H163111   6.141   5.186   2.105
13044TIP3    H263112   6.126   5.077   2.005
13045TIP3   OH263113   5.908   4.392   1.988
13045TIP3    H163114   5.911   4.488   2.009
13045TIP3    H263115   5.819   4.376   1.957
13046TIP3   OH263116   7.239   5.460   2.985
13046TIP3    H163117   7.230   5.526   2.914
13046TIP3    H263118   7.336   5.463   2.996
13047TIP3   OH263119   5.988   3.871   2.863
13047TIP3    H163120   5.972   3.872   2.766
13047TIP3    H263121   5.950   3.784   2.887
13048TIP3   OH263122   5.886   5.262   2.478
13048TIP3    H163123   5.800   5.305   2.471
13048TIP3    H263124   5.932   5.305   2.406
13049TIP3   OH263125   6.689   5.372   1.906
13049TIP3    H163126   6.619   5.305   1.927
13049TIP3    H263127   6.760   5.311   1.881
13050TIP3   OH263128   7.144   5.345   1.924
13050TIP3    H163129   7.173   5.268   1.975
13050TIP3    H263130   7.220   5.366   1.869
13051TIP3   OH263131   6.232   4.940   1.905
13051TIP3    H163132   6.246   4.864   1.964
13051TIP3    H263133   6.308   4.928   1.844
13052TIP3   OH263134   6.776   5.051   1.884
13052TIP3    H163135   6.748   5.058   1.977
13052TIP3    H263136   6.757   4.955   1.869
13053TIP3   OH263137   7.029   4.894   3.365
13053TIP3    H163138   7.116   4.939   3.381
13053TIP3    H263139   6.965   4.959   3.393
13054TIP3   OH263140   6.353   4.742   2.150
13054TIP3    H163141   6.301   4.687   2.212
13054TIP3    H263142   6.383   4.675   2.084
13055TIP3   OH263143   6.460   4.564   1.969
13055TIP3    H163144   6.446   4.556   1.872
13055TIP3    H263145   6.558   4.568   1.976
13056TIP3   OH263146   7.388   4.797   1.911
13056TIP3    H163147   7.376   4.758   1.823
13056TIP3    H263148   7.401   4.893   1.891
13057TIP3   OH263149   6.362   4.094   3.240
13057TIP3    H163150   6.408   4.144   3.170
13057TIP3    H263151   6.270   4.089   3.205
13058TIP3   OH263152   6.519   4.645   3.259
13058TIP3    H163153   6.593   4.635   3.199
13058TIP3    H263154   6.475   4.726   3.230
13059TIP3   OH263155   6.439   3.843   3.280
13059TIP3    H163156   6.419   3.940   3.276
13059TIP3    H263157   6.363   3.807   3.233
13060TIP3   OH263158   6.443   5.634   2.077
13060TIP3    H163159   6.539   5.641   2.084
13060TIP3    H263160   6.429   5.692   2.001
13061TIP3   OH263161   5.797   5.090   2.025
13061TIP3    H163162   5.894   5.100   2.042
13061TIP3    H263163   5.802   5.027   1.949
13062TIP3   OH263164   5.680   5.630   2.519
13062TIP3    H163165   5.606   5.582   2.475
13062TIP3    H263166   5.703   5.564   2.588
13063TIP3   OH263167   5.759   5.445   2.708
13063TIP3    H163168   5.723   5.358   2.728
13063TIP3    H263169   5.781   5.476   2.798
13064TIP3   OH263170   7.506   5.523   3.003
13064TIP3    H163171   7.516   5.540   3.096
13064TIP3    H263172   7.579   5.576   2.969
13065TIP3   OH263173   7.447   4.888   2.305
13065TIP3    H163174   7.533   4.927   2.325
13065TIP3    H263175   7.444   4.817   2.372
13066TIP3   OH263176   7.479   4.698   2.495
13066TIP3    H163177   7.405   4.646   2.534
13066TIP3    H263178   7.541   4.706   2.571
13067TIP3   OH263179   7.458   4.962   2.995
13067TIP3    H163180   7.540   4.926   2.957
13067TIP3    H263181   7.471   5.058   2.976
13068TIP3   OH263182   7.311   5.256   3.219
13068TIP3    H163183   7.242   5.277   3.284
13068TIP3    H263184   7.262   5.212   3.147
13069TIP3   OH263185   7.512   4.679   2.135
13069TIP3    H163186   7.456   4.711   2.062
13069TIP3    H263187   7.501   4.750   2.200
13070TIP3   OH263188   7.346   4.400   1.983
13070TIP3    H163189   7.360   4.465   1.914
13070TIP3    H263190   7.331   4.317   1.934
13071TIP3   OH263191   7.264   4.542   2.553
13071TIP3    H163192   7.250   4.447   2.547
13071TIP3    H263193   7.232   4.562   2.643
13072TIP3   OH263194   5.766   4.754   2.958
13072TIP3    H163195   5.783   4.744   2.862
13072TIP3    H263196   5.853   4.732   2.997
13073TIP3   OH263197   7.274   4.147   1.900
13073TIP3    H163198   7.333   4.103   1.963
13073TIP3    H263199   7.187   4.105   1.914
13074TIP3   OH263200   7.229   4.302   2.392
13074TIP3    H163201   7.260   4.211   2.409
13074TIP3    H263202   7.312   4.342   2.361
13075TIP3   OH263203   7.294   4.354   2.943
13075TIP3    H163204   7.389   4.379   2.938
13075TIP3    H263205   7.279   4.371   3.037
13076TIP3   OH263206   7.300   4.427   3.213
13076TIP3    H163207   7.222   4.462   3.255
13076TIP3    H263208   7.352   4.510   3.198
13077TIP3   OH263209   7.300   4.029   2.401
13077TIP3    H163210   7.320   3.989   2.488
13077TIP3    H263211   7.238   3.967   2.359
13078TIP3   OH263212   5.845   4.110   2.860
13078TIP3    H163213   5.892   4.027   2.883
13078TIP3    H263214   5.903   4.179   2.896
13079TIP3   OH263215   5.672   4.407   2.957
13079TIP3    H163216   5.732   4.385   2.884
13079TIP3    H263217   5.717   4.486   2.993
13080TIP3   OH263218   7.478   4.032   2.057
13080TIP3    H163219   7.521   3.963   2.003
13080TIP3    H263220   7.547   4.101   2.062
13081TIP3   OH263221   5.712   4.039   2.370
13081TIP3    H163222   5.617   4.053   2.353
13081TIP3    H263223   5.753   4.086   2.296
13082TIP3   OH263224   7.185   5.530   2.563
13082TIP3    H163225   7.253   5.501   2.501
13082TIP3    H263226   7.236   5.581   2.628
13083TIP3   OH263227   5.707   3.906   3.198
13083TIP3    H163228   5.643   3.874   3.263
13083TIP3    H263229   5.658   3.970   3.143
13084TIP3   OH263230   6.216   5.324   3.239
13084TIP3    H163231   6.190   5.413   3.213
13084TIP3    H263232   6.312   5.329   3.216
13085TIP3   OH263233   6.901   5.595   3.440
13085TIP3    H163234   6.938   5.507   3.445
13085TIP3    H263235   6.901   5.616   3.535
13086TIP3   OH263236   5.957   5.641   3.244
13086TIP3    H163237   5.887   5.697   3.204
13086TIP3    H263238   5.924   5.634   3.335
13087TIP3   OH263239   6.205   5.602   3.142
13087TIP3    H163240   6.122   5.621   3.189
13087TIP3    H263241   6.203   5.665   3.070
13088TIP3   OH263242   6.687   5.596   3.060
13088TIP3    H163243   6.633   5.651   3.000
13088TIP3    H263244   6.690   5.655   3.140
13089TIP3   OH263245   6.915   5.477   3.164
13089TIP3    H163246   6.825   5.498   3.134
13089TIP3    H263247   6.949   5.566   3.153
13090TIP3   OH263248   5.910   5.511   2.933
13090TIP3    H163249   5.901   5.468   3.020
13090TIP3    H263250   5.992   5.471   2.897
13091TIP3   OH263251   6.118   5.382   2.800
13091TIP3    H163252   6.101   5.289   2.824
13091TIP3    H263253   6.202   5.398   2.848
13092TIP3   OH263254   6.380   5.429   2.890
13092TIP3    H163255   6.391   5.335   2.865
13092TIP3    H263256   6.382   5.423   2.987
13093TIP3   OH263257   6.723   3.995   2.803
13093TIP3    H163258   6.654   3.932   2.831
13093TIP3    H263259   6.776   3.941   2.744
13094TIP3   OH263260   7.237   3.794   2.801
13094TIP3    H163261   7.297   3.862   2.762
13094TIP3    H263262   7.148   3.835   2.789
13095TIP3   OH263263   7.402   3.925   2.635
13095TIP3    H163264   7.472   3.869   2.595
13095TIP3    H263265   7.452   4.009   2.648
13096TIP3   OH263266   5.960   3.857   2.588
13096TIP3    H163267   5.880   3.839   2.535
13096TIP3    H263268   6.005   3.770   2.583
13097TIP3   OH263269   5.835   3.832   2.159
13097TIP3    H163270   5.885   3.897   2.106
13097TIP3    H263271   5.780   3.890   2.214
13098TIP3   OH263272   6.405   3.850   2.568
13098TIP3    H163273   6.495   3.885   2.558
13098TIP3    H263274   6.404   3.828   2.661
13099TIP3   OH263275   6.984   3.849   2.727
13099TIP3    H163276   6.970   3.864   2.633
13099TIP3    H263277   6.937   3.763   2.742
13100TIP3   OH263278   7.105   3.853   2.300
13100TIP3    H163279   7.031   3.915   2.281
13100TIP3    H263280   7.057   3.770   2.320
13101TIP3   OH263281   5.827   5.428   2.265
13101TIP3    H163282   5.762   5.423   2.192
13101TIP3    H263283   5.825   5.524   2.278
13102TIP3   OH263284   6.018   4.027   2.012
13102TIP3    H163285   6.071   3.966   1.958
13102TIP3    H263286   6.085   4.060   2.074
13103TIP3   OH263287   6.520   4.051   2.251
13103TIP3    H163288   6.546   3.994   2.325
13103TIP3    H263289   6.529   4.138   2.296
13104TIP3   OH263290   6.715   5.560   2.096
13104TIP3    H163291   6.807   5.580   2.074
13104TIP3    H263292   6.693   5.506   2.017
13105TIP3   OH263293   7.383   5.508   2.369
13105TIP3    H163294   7.364   5.430   2.312
13105TIP3    H263295   7.377   5.582   2.304
13106TIP3   OH263296   6.006   5.526   1.957
13106TIP3    H163297   5.981   5.551   2.047
13106TIP3    H263298   6.085   5.470   1.972
13107TIP3   OH263299   7.869   4.667   3.083
13107TIP3    H163300   7.885   4.594   3.146
13107TIP3    H263301   7.950   4.718   3.098
13108TIP3   OH263302   7.946   5.095   2.943
13108TIP3    H163303   7.930   5.011   2.895
13108TIP3    H263304   8.044   5.100   2.935
13109TIP3   OH263305   7.627   4.464   2.478
13109TIP3    H163306   7.586   4.553   2.470
13109TIP3    H263307   7.570   4.411   2.420
13110TIP3   OH263308   7.702   4.688   2.693
13110TIP3    H163309   7.730   4.605   2.737
13110TIP3    H263310   7.772   4.698   2.626
13111TIP3   OH263311   7.762   4.431   2.797
13111TIP3    H163312   7.834   4.382   2.841
13111TIP3    H263313   7.780   4.403   2.706
13112TIP3   OH263314   7.970   4.078   3.127
13112TIP3    H163315   7.967   4.142   3.053
13112TIP3    H263316   7.919   4.117   3.197
13113TIP3   OH263317   7.940   4.251   2.924
13113TIP3    H163318   7.993   4.327   2.961
13113TIP3    H263319   7.997   4.225   2.850
13114TIP3   OH263320   7.705   5.009   2.312
13114TIP3    H163321   7.674   5.041   2.226
13114TIP3    H263322   7.706   5.091   2.365
13115TIP3   OH263323   7.943   4.721   3.369
13115TIP3    H163324   7.940   4.786   3.440
13115TIP3    H263325   7.851   4.726   3.338
13116TIP3   OH263326   8.019   4.688   2.364
13116TIP3    H163327   7.989   4.769   2.319
13116TIP3    H263328   7.950   4.623   2.345
13117TIP3   OH263329   7.642   4.924   3.246
13117TIP3    H163330   7.581   4.919   3.172
13117TIP3    H263331   7.636   4.835   3.284
13118TIP3   OH263332   7.609   5.203   2.939
13118TIP3    H163333   7.705   5.189   2.936
13118TIP3    H263334   7.601   5.283   2.992
13119TIP3   OH263335   7.923   5.478   2.556
13119TIP3    H163336   7.940   5.440   2.645
13119TIP3    H263337   7.837   5.438   2.536
13120TIP3   OH263338   7.895   4.434   3.249
13120TIP3    H163339   7.903   4.474   3.337
13120TIP3    H263340   7.860   4.346   3.263
13121TIP3   OH263341   7.563   4.137   2.642
13121TIP3    H163342   7.632   4.134   2.711
13121TIP3    H263343   7.610   4.105   2.563
13122TIP3   OH263344   7.682   4.203   2.182
13122TIP3    H163345   7.737   4.266   2.129
13122TIP3    H263346   7.617   4.271   2.209
13123TIP3   OH263347   7.867   4.330   2.544
13123TIP3    H163348   7.777   4.341   2.508
13123TIP3    H263349   7.896   4.242   2.517
13124TIP3   OH263350   7.975   4.055   2.490
13124TIP3    H163351   7.960   3.959   2.503
13124TIP3    H263352   8.063   4.058   2.453
13125TIP3   OH263353   7.947   4.843   2.835
13125TIP3    H163354   8.023   4.837   2.775
13125TIP3    H263355   7.954   4.759   2.885
13126TIP3   OH263356   7.662   4.669   3.364
13126TIP3    H163357   7.660   4.640   3.456
13126TIP3    H263358   7.584   4.625   3.327
13127TIP3   OH263359   7.771   4.676   2.033
13127TIP3    H163360   7.824   4.741   2.082
13127TIP3    H263361   7.679   4.697   2.061
13128TIP3   OH263362   7.794   5.335   3.162
13128TIP3    H163363   7.795   5.239   3.167
13128TIP3    H263364   7.798   5.361   3.253
13129TIP3   OH263365   7.907   4.865   2.184
13129TIP3    H163366   7.835   4.901   2.240
13129TIP3    H263367   7.955   4.946   2.163
13130TIP3   OH263368   7.957   5.128   2.068
13130TIP3    H163369   8.022   5.188   2.108
13130TIP3    H263370   8.016   5.081   2.007
13131TIP3   OH263371   7.772   4.409   2.060
13131TIP3    H163372   7.803   4.491   2.018
13131TIP3    H263373   7.733   4.373   1.977
13132TIP3   OH263374   7.875   3.871   2.862
13132TIP3    H163375   7.860   3.875   2.766
13132TIP3    H263376   7.838   3.785   2.887
13133TIP3   OH263377   7.765   5.262   2.477
13133TIP3    H163378   7.681   5.310   2.471
13133TIP3    H263379   7.817   5.307   2.409
13134TIP3   OH263380   7.686   5.092   2.023
13134TIP3    H163381   7.782   5.101   2.041
13134TIP3    H263382   7.690   5.027   1.949
13135TIP3   OH263383   7.561   5.629   2.520
13135TIP3    H163384   7.488   5.580   2.475
13135TIP3    H263385   7.591   5.565   2.587
13136TIP3   OH263386   7.644   5.441   2.706
13136TIP3    H163387   7.608   5.354   2.729
13136TIP3    H263388   7.669   5.475   2.795
13137TIP3   OH263389   7.652   4.757   2.954
13137TIP3    H163390   7.674   4.741   2.860
13137TIP3    H263391   7.737   4.733   2.996
13138TIP3   OH263392   7.727   4.109   2.862
13138TIP3    H163393   7.780   4.028   2.878
13138TIP3    H263394   7.791   4.178   2.890
13139TIP3   OH263395   7.560   4.405   2.962
13139TIP3    H163396   7.617   4.386   2.885
13139TIP3    H263397   7.602   4.489   2.988
13140TIP3   OH263398   7.594   4.031   2.368
13140TIP3    H163399   7.500   4.053   2.354
13140TIP3    H263400   7.636   4.085   2.300
13141TIP3   OH263401   7.588   3.907   3.204
13141TIP3    H163402   7.513   3.873   3.256
13141TIP3    H263403   7.542   3.964   3.138
13142TIP3   OH263404   8.067   5.568   3.121
13142TIP3    H163405   8.007   5.613   3.180
13142TIP3    H263406   8.099   5.648   3.074
13143TIP3   OH263407   7.786   5.512   2.938
13143TIP3    H163408   7.788   5.463   3.022
13143TIP3    H263409   7.867   5.475   2.895
13144TIP3   OH263410   7.985   5.380   2.819
13144TIP3    H163411   7.979   5.283   2.828
13144TIP3    H263412   8.074   5.393   2.853
13145TIP3   OH263413   7.842   3.853   2.590
13145TIP3    H163414   7.760   3.836   2.538
13145TIP3    H263415   7.889   3.768   2.588
13146TIP3   OH263416   7.719   3.834   2.156
13146TIP3    H163417   7.771   3.902   2.107
13146TIP3    H263418   7.665   3.891   2.214
13147TIP3   OH263419   7.715   5.428   2.260
13147TIP3    H163420   7.644   5.427   2.194
13147TIP3    H263421   7.715   5.524   2.278
13148TIP3   OH263422   7.901   4.011   2.026
13148TIP3    H163423   7.954   3.977   1.951
13148TIP3    H263424   7.964   4.070   2.068
13149TIP3   OH263425   7.897   5.534   1.958
13149TIP3    H163426   7.868   5.557   2.047
13149TIP3    H263427   7.968   5.470   1.975
13150TIP3   OH263428   1.212   6.658   2.571
13150TIP3    H163429   1.209   6.756   2.572
13150TIP3    H263430   1.138   6.635   2.513
13151TIP3   OH263431   1.097   6.583   2.925
13151TIP3    H163432   1.096   6.517   2.997
13151TIP3    H263433   1.062   6.533   2.850
13152TIP3   OH263434   0.336   6.548   3.081
13152TIP3    H163435   0.343   6.479   3.150
13152TIP3    H263436   0.408   6.607   3.106
13153TIP3   OH263437   1.465   6.879   2.753
13153TIP3    H163438   1.422   6.807   2.799
13153TIP3    H263439   1.468   6.948   2.823
13154TIP3   OH263440   0.422   6.996   2.921
13154TIP3    H163441   0.393   6.905   2.898
13154TIP3    H263442   0.517   6.979   2.932
13155TIP3   OH263443   0.094   6.353   2.469
13155TIP3    H163444   0.049   6.440   2.474
13155TIP3    H263445   0.028   6.298   2.427
13156TIP3   OH263446   0.159   6.570   2.691
13156TIP3    H163447   0.185   6.488   2.738
13156TIP3    H263448   0.228   6.580   2.625
13157TIP3   OH263449   1.176   7.392   2.778
13157TIP3    H163450   1.242   7.325   2.747
13157TIP3    H263451   1.157   7.358   2.866
13158TIP3   OH263452   0.936   6.825   2.974
13158TIP3    H163453   0.967   6.761   2.908
13158TIP3    H263454   1.018   6.837   3.024
13159TIP3   OH263455   1.792   5.989   3.041
13159TIP3    H163456   1.808   6.043   3.122
13159TIP3    H263457   1.855   6.031   2.981
13160TIP3   OH263458   1.243   6.266   3.002
13160TIP3    H163459   1.273   6.174   3.000
13160TIP3    H263460   1.239   6.284   2.906
13161TIP3   OH263461   0.562   6.079   2.723
13161TIP3    H163462   0.573   6.162   2.673
13161TIP3    H263463   0.524   6.021   2.654
13162TIP3   OH263464   1.336   6.085   2.560
13162TIP3    H163465   1.400   6.054   2.628
13162TIP3    H263466   1.392   6.145   2.509
13163TIP3   OH263467   0.237   6.321   2.792
13163TIP3    H163468   0.296   6.261   2.841
13163TIP3    H263469   0.238   6.284   2.702
13164TIP3   OH263470   0.740   6.475   2.728
13164TIP3    H163471   0.806   6.417   2.769
13164TIP3    H263472   0.688   6.409   2.677
13165TIP3   OH263473   1.826   6.129   3.270
13165TIP3    H163474   1.774   6.210   3.270
13165TIP3    H263475   1.850   6.118   3.364
13166TIP3   OH263476   0.453   5.966   3.119
13166TIP3    H163477   0.424   6.029   3.051
13166TIP3    H263478   0.391   5.988   3.193
13167TIP3   OH263479   1.181   6.916   2.481
13167TIP3    H163480   1.155   6.889   2.392
13167TIP3    H263481   1.150   7.010   2.487
13168TIP3   OH263482   0.705   6.736   3.142
13168TIP3    H163483   0.635   6.794   3.176
13168TIP3    H263484   0.777   6.798   3.123
13169TIP3   OH263485   1.515   6.022   2.764
13169TIP3    H163486   1.497   5.944   2.816
13169TIP3    H263487   1.585   6.064   2.816
13170TIP3   OH263488   0.411   6.153   2.929
13170TIP3    H163489   0.473   6.223   2.962
13170TIP3    H263490   0.465   6.113   2.856
13171TIP3   OH263491   0.156   6.895   2.309
13171TIP3    H163492   0.130   6.929   2.223
13171TIP3    H263493   0.165   6.975   2.363
13172TIP3   OH263494   1.516   7.059   2.980
13172TIP3    H163495   1.422   7.074   3.002
13172TIP3    H263496   1.547   7.152   2.974
13173TIP3   OH263497   1.543   5.890   3.120
13173TIP3    H163498   1.477   5.960   3.118
13173TIP3    H263499   1.622   5.932   3.083
13174TIP3   OH263500   0.847   5.704   2.872
13174TIP3    H163501   0.833   5.607   2.867
13174TIP3    H263502   0.759   5.733   2.904
13175TIP3   OH263503   1.341   7.240   2.645
13175TIP3    H163504   1.386   7.167   2.597
13175TIP3    H263505   1.389   7.318   2.610
13176TIP3   OH263506   1.466   7.032   2.500
13176TIP3    H163507   1.435   6.963   2.439
13176TIP3    H263508   1.469   6.983   2.584
13177TIP3   OH263509   1.645   6.888   3.355
13177TIP3    H163510   1.636   6.828   3.277
13177TIP3    H263511   1.635   6.975   3.312
13178TIP3   OH263512   1.076   6.580   2.325
13178TIP3    H163513   1.007   6.639   2.288
13178TIP3    H263514   1.147   6.590   2.259
13179TIP3   OH263515   1.084   6.441   2.024
13179TIP3    H163516   1.154   6.438   2.091
13179TIP3    H263517   1.115   6.367   1.969
13180TIP3   OH263518   1.821   6.527   3.156
13180TIP3    H163519   1.748   6.592   3.160
13180TIP3    H263520   1.861   6.547   3.071
13181TIP3   OH263521   1.423   6.601   2.416
13181TIP3    H163522   1.349   6.626   2.476
13181TIP3    H263523   1.470   6.534   2.470
13182TIP3   OH263524   0.584   6.668   2.608
13182TIP3    H163525   0.550   6.629   2.524
13182TIP3    H263526   0.645   6.598   2.642
13183TIP3   OH263527   0.715   7.004   2.879
13183TIP3    H163528   0.714   6.955   2.796
13183TIP3    H263529   0.795   6.970   2.922
13184TIP3   OH263530   0.618   6.538   2.972
13184TIP3    H163531   0.671   6.551   2.892
13184TIP3    H263532   0.652   6.607   3.034
13185TIP3   OH263533   1.253   7.099   3.047
13185TIP3    H163534   1.232   7.165   3.114
13185TIP3    H263535   1.231   7.013   3.090
13186TIP3   OH263536   1.310   6.523   2.183
13186TIP3    H163537   1.365   6.540   2.263
13186TIP3    H263538   1.356   6.572   2.111
13187TIP3   OH263539   0.397   6.597   3.368
13187TIP3    H163540   0.413   6.670   3.430
13187TIP3    H263541   0.312   6.620   3.329
13188TIP3   OH263542   1.081   7.195   2.530
13188TIP3    H163543   1.124   7.225   2.611
13188TIP3    H263544   1.025   7.270   2.506
13189TIP3   OH263545   1.682   5.695   2.175
13189TIP3    H163546   1.587   5.706   2.198
13189TIP3    H263547   1.702   5.779   2.130
13190TIP3   OH263548   0.484   6.570   2.369
13190TIP3    H163549   0.450   6.648   2.320
13190TIP3    H263550   0.417   6.504   2.348
13191TIP3   OH263551   1.794   7.129   2.010
13191TIP3    H163552   1.810   7.224   2.026
13191TIP3    H263553   1.886   7.098   2.010
13192TIP3   OH263554   0.134   6.750   3.234
13192TIP3    H163555   0.067   6.804   3.187
13192TIP3    H263556   0.077   6.704   3.294
13193TIP3   OH263557   0.090   7.111   2.921
13193TIP3    H163558   0.178   7.077   2.943
13193TIP3    H263559   0.070   7.167   2.998
13194TIP3   OH263560   1.029   7.485   2.372
13194TIP3    H163561   1.017   7.478   2.276
13194TIP3    H263562   1.028   7.582   2.388
13195TIP3   OH263563   0.397   7.369   2.552
13195TIP3    H163564   0.407   7.332   2.642
13195TIP3    H263565   0.311   7.332   2.529
13196TIP3   OH263566   1.334   7.407   2.069
13196TIP3    H163567   1.380   7.331   2.027
13196TIP3    H263568   1.338   7.382   2.164
13197TIP3   OH263569   1.304   7.400   2.348
13197TIP3    H163570   1.207   7.407   2.364
13197TIP3    H263571   1.326   7.326   2.405
13198TIP3   OH263572   0.318   6.941   3.348
13198TIP3    H163573   0.335   6.918   3.442
13198TIP3    H263574   0.231   6.901   3.333
13199TIP3   OH263575   0.588   5.798   2.940
13199TIP3    H163576   0.496   5.781   2.911
13199TIP3    H263577   0.572   5.873   3.000
13200TIP3   OH263578   1.453   6.627   1.967
13200TIP3    H163579   1.451   6.607   1.870
13200TIP3    H263580   1.540   6.670   1.970
13201TIP3   OH263581   1.013   6.018   2.016
13201TIP3    H163582   0.982   6.011   2.108
13201TIP3    H263583   0.983   5.931   1.985
13202TIP3   OH263584   0.592   6.287   3.071
13202TIP3    H163585   0.523   6.288   3.140
13202TIP3    H263586   0.592   6.380   3.042
13203TIP3   OH263587   0.593   6.300   2.561
13203TIP3    H163588   0.498   6.278   2.549
13203TIP3    H263589   0.628   6.272   2.475
13204TIP3   OH263590   1.142   6.352   2.438
13204TIP3    H163591   1.104   6.434   2.401
13204TIP3    H263592   1.211   6.334   2.372
13205TIP3   OH263593   1.247   6.299   2.724
13205TIP3    H163594   1.218   6.357   2.651
13205TIP3    H263595   1.257   6.216   2.674
13206TIP3   OH263596   0.351   6.324   3.246
13206TIP3    H163597   0.366   6.355   3.337
13206TIP3    H263598   0.318   6.234   3.262
13207TIP3   OH263599   0.694   6.054   1.928
13207TIP3    H163600   0.648   6.012   2.004
13207TIP3    H263601   0.623   6.097   1.879
13208TIP3   OH263602   0.053   6.057   2.649
13208TIP3    H163603   0.104   6.021   2.725
13208TIP3    H263604   0.064   5.989   2.584
13209TIP3   OH263605   0.153   6.109   2.182
13209TIP3    H163606   0.202   6.161   2.115
13209TIP3    H263607   0.081   6.167   2.205
13210TIP3   OH263608   1.150   6.459   3.172
13210TIP3    H163609   1.207   6.394   3.125
13210TIP3    H263610   1.128   6.412   3.253
13211TIP3   OH263611   0.846   6.058   2.661
13211TIP3    H163612   0.753   6.057   2.690
13211TIP3    H263613   0.894   6.039   2.743
13212TIP3   OH263614   0.332   6.210   2.548
13212TIP3    H163615   0.243   6.228   2.512
13212TIP3    H263616   0.353   6.124   2.508
13213TIP3   OH263617   0.692   6.217   2.311
13213TIP3    H163618   0.787   6.228   2.327
13213TIP3    H263619   0.668   6.285   2.246
13214TIP3   OH263620   1.286   5.988   2.988
13214TIP3    H163621   1.216   5.979   3.053
13214TIP3    H263622   1.243   5.954   2.908
13215TIP3   OH263623   0.562   6.333   2.070
13215TIP3    H163624   0.509   6.297   1.997
13215TIP3    H263625   0.645   6.354   2.023
13216TIP3   OH263626   0.973   6.331   2.848
13216TIP3    H163627   1.036   6.280   2.796
13216TIP3    H263628   0.962   6.278   2.928
13217TIP3   OH263629   0.479   5.947   2.495
13217TIP3    H163630   0.443   5.856   2.495
13217TIP3    H263631   0.558   5.938   2.440
13218TIP3   OH263632   0.836   6.161   3.100
13218TIP3    H163633   0.754   6.216   3.097
13218TIP3    H263634   0.889   6.208   3.164
13219TIP3   OH263635   0.897   6.787   2.260
13219TIP3    H163636   0.817   6.741   2.227
13219TIP3    H263637   0.874   6.801   2.354
13220TIP3   OH263638   1.615   6.711   3.143
13220TIP3    H163639   1.675   6.758   3.080
13220TIP3    H263640   1.531   6.712   3.094
13221TIP3   OH263641   1.280   6.068   2.080
13221TIP3    H163642   1.185   6.084   2.066
13221TIP3    H263643   1.314   6.153   2.115
13222TIP3   OH263644   1.031   6.816   3.374
13222TIP3    H163645   1.013   6.771   3.460
13222TIP3    H263646   1.032   6.907   3.403
13223TIP3   OH263647   1.354   6.261   2.241
13223TIP3    H163648   1.441   6.248   2.283
13223TIP3    H263649   1.365   6.344   2.190
13224TIP3   OH263650   0.409   6.729   2.841
13224TIP3    H163651   0.474   6.720   2.770
13224TIP3    H263652   0.415   6.642   2.885
13225TIP3   OH263653   1.105   6.934   2.162
13225TIP3    H163654   1.072   7.018   2.200
13225TIP3    H263655   1.033   6.872   2.187
13226TIP3   OH263656   1.845   6.273   2.219
13226TIP3    H163657   1.787   6.246   2.145
13226TIP3    H263658   1.852   6.369   2.196
13227TIP3   OH263659   1.669   7.157   2.258
13227TIP3    H163660   1.636   7.073   2.293
13227TIP3    H263661   1.706   7.135   2.171
13228TIP3   OH263662   1.394   6.645   2.962
13228TIP3    H163663   1.301   6.618   2.963
13228TIP3    H263664   1.438   6.563   2.933
13229TIP3   OH263665   0.648   7.072   2.581
13229TIP3    H163666   0.696   7.153   2.560
13229TIP3    H263667   0.559   7.095   2.548
13230TIP3   OH263668   0.220   6.555   2.041
13230TIP3    H163669   0.283   6.621   2.078
13230TIP3    H263670   0.135   6.590   2.069
13231TIP3   OH263671   0.787   6.839   2.530
13231TIP3    H163672   0.754   6.931   2.542
13231TIP3    H263673   0.717   6.789   2.576
13232TIP3   OH263674   0.835   7.257   3.168
13232TIP3    H163675   0.879   7.341   3.147
13232TIP3    H263676   0.892   7.226   3.239
13233TIP3   OH263677   0.656   7.337   2.483
13233TIP3    H163678   0.559   7.349   2.500
13233TIP3    H263679   0.692   7.421   2.518
13234TIP3   OH263680   1.186   6.856   3.134
13234TIP3    H163681   1.152   6.834   3.223
13234TIP3    H263682   1.251   6.785   3.119
13235TIP3   OH263683   1.419   6.966   2.044
13235TIP3    H163684   1.448   6.917   2.124
13235TIP3    H263685   1.324   6.946   2.051
13236TIP3   OH263686   1.864   7.397   2.069
13236TIP3    H163687   1.932   7.463   2.048
13236TIP3    H263688   1.793   7.459   2.098
13237TIP3   OH263689   0.276   6.041   3.315
13237TIP3    H163690   0.185   6.073   3.322
13237TIP3    H263691   0.260   5.962   3.370
13238TIP3   OH263692   1.496   6.828   2.268
13238TIP3    H163693   1.472   6.749   2.321
13238TIP3    H263694   1.591   6.832   2.285
13239TIP3   OH263695   0.240   7.220   3.161
13239TIP3    H163696   0.266   7.126   3.172
13239TIP3    H263697   0.254   7.248   3.253
13240TIP3   OH263698   0.829   7.073   1.892
13240TIP3    H163699   0.845   6.995   1.837
13240TIP3    H263700   0.787   7.030   1.971
13241TIP3   OH263701   0.708   7.024   2.139
13241TIP3    H163702   0.737   6.973   2.215
13241TIP3    H263703   0.718   7.117   2.171
13242TIP3   OH263704   0.364   6.748   2.188
13242TIP3    H163705   0.291   6.787   2.242
13242TIP3    H263706   0.411   6.828   2.158
13243TIP3   OH263707   1.220   5.974   2.328
13243TIP3    H163708   1.243   6.019   2.245
13243TIP3    H263709   1.278   6.018   2.391
13244TIP3   OH263710   0.989   7.190   2.208
13244TIP3    H163711   0.907   7.244   2.216
13244TIP3    H263712   1.043   7.246   2.150
13245TIP3   OH263713   0.944   6.149   2.410
13245TIP3    H163714   1.021   6.209   2.415
13245TIP3    H263715   0.916   6.136   2.502
13246TIP3   OH263716   1.028   5.855   2.498
13246TIP3    H163717   0.995   5.921   2.561
13246TIP3    H263718   1.098   5.909   2.454
13247TIP3   OH263719   0.729   7.293   2.211
13247TIP3    H163720   0.739   7.374   2.156
13247TIP3    H263721   0.703   7.330   2.298
13248TIP3   OH263722   0.595   5.966   2.169
13248TIP3    H163723   0.589   6.055   2.208
13248TIP3    H263724   0.686   5.941   2.196
13249TIP3   OH263725   1.479   6.417   2.812
13249TIP3    H163726   1.395   6.373   2.787
13249TIP3    H263727   1.526   6.350   2.866
13250TIP3   OH263728   0.418   7.010   2.071
13250TIP3    H163729   0.485   7.071   2.105
13250TIP3    H263730   0.471   6.963   2.005
13251TIP3   OH263731   0.251   6.278   1.985
13251TIP3    H163732   0.252   6.373   2.010
13251TIP3    H263733   0.161   6.261   1.955
13252TIP3   OH263734   1.584   7.337   2.976
13252TIP3    H163735   1.572   7.413   2.917
13252TIP3    H263736   1.677   7.351   3.001
13253TIP3   OH263737   0.330   5.760   2.858
13253TIP3    H163738   0.311   5.755   2.762
13253TIP3    H263739   0.295   5.673   2.887
13254TIP3   OH263740   0.230   7.145   2.476
13254TIP3    H163741   0.146   7.193   2.472
13254TIP3    H263742   0.278   7.194   2.408
13255TIP3   OH263743   1.032   7.257   1.906
13255TIP3    H163744   0.962   7.191   1.928
13255TIP3    H263745   1.103   7.197   1.881
13256TIP3   OH263746   1.487   7.230   1.924
13256TIP3    H163747   1.516   7.153   1.975
13256TIP3    H263748   1.563   7.252   1.869
13257TIP3   OH263749   0.573   6.820   1.899
13257TIP3    H163750   0.586   6.752   1.967
13257TIP3    H263751   0.659   6.813   1.855
13258TIP3   OH263752   1.114   6.936   1.882
13258TIP3    H163753   1.092   6.944   1.977
13258TIP3    H263754   1.102   6.839   1.871
13259TIP3   OH263755   0.695   6.627   2.148
13259TIP3    H163756   0.645   6.574   2.212
13259TIP3    H263757   0.728   6.559   2.086
13260TIP3   OH263758   0.803   6.454   1.968
13260TIP3    H163759   0.789   6.438   1.873
13260TIP3    H263760   0.901   6.452   1.978
13261TIP3   OH263761   1.735   6.681   1.910
13261TIP3    H163762   1.717   6.644   1.822
13261TIP3    H263763   1.745   6.777   1.892
13262TIP3   OH263764   0.699   5.971   3.233
13262TIP3    H163765   0.746   6.030   3.170
13262TIP3    H263766   0.607   5.973   3.199
13263TIP3   OH263767   0.865   6.530   3.259
13263TIP3    H163768   0.939   6.519   3.200
13263TIP3    H263769   0.821   6.612   3.231
13264TIP3   OH263770   0.786   5.727   3.274
13264TIP3    H163771   0.758   5.820   3.267
13264TIP3    H263772   0.707   5.687   3.232
13265TIP3   OH263773   0.786   7.519   2.078
13265TIP3    H163774   0.882   7.529   2.084
13265TIP3    H263775   0.771   7.578   2.003
13266TIP3   OH263776   0.145   6.975   2.026
13266TIP3    H163777   0.242   6.987   2.042
13266TIP3    H263778   0.151   6.910   1.953
13267TIP3   OH263779   0.035   7.524   2.509
13267TIP3    H163780  -0.046   7.478   2.480
13267TIP3    H263781   0.054   7.464   2.583
13268TIP3   OH263782   0.123   7.331   2.700
13268TIP3    H163783   0.075   7.247   2.717
13268TIP3    H263784   0.134   7.367   2.790
13269TIP3   OH263785   1.861   7.403   3.003
13269TIP3    H163786   1.854   7.427   3.097
13269TIP3    H263787   1.923   7.468   2.970
13270TIP3   OH263788   1.790   6.773   2.305
13270TIP3    H163789   1.876   6.812   2.324
13270TIP3    H263790   1.787   6.702   2.372
13271TIP3   OH263791   1.825   6.581   2.495
13271TIP3    H163792   1.750   6.532   2.534
13271TIP3    H263793   1.885   6.593   2.572
13272TIP3   OH263794   1.798   6.850   2.996
13272TIP3    H163795   1.879   6.809   2.960
13272TIP3    H263796   1.813   6.944   2.974
13273TIP3   OH263797   1.855   6.563   2.134
13273TIP3    H163798   1.798   6.596   2.061
13273TIP3    H263799   1.845   6.634   2.199
13274TIP3   OH263800   1.693   6.285   1.984
13274TIP3    H163801   1.701   6.351   1.915
13274TIP3    H263802   1.674   6.203   1.935
13275TIP3   OH263803   1.607   6.428   2.553
13275TIP3    H163804   1.593   6.332   2.547
13275TIP3    H263805   1.575   6.448   2.643
13276TIP3   OH263806   0.109   6.635   2.954
13276TIP3    H163807   0.129   6.628   2.859
13276TIP3    H263808   0.195   6.619   2.996
13277TIP3   OH263809   1.618   6.033   1.898
13277TIP3    H163810   1.677   5.989   1.962
13277TIP3    H263811   1.532   5.992   1.913
13278TIP3   OH263812   1.571   6.186   2.392
13278TIP3    H163813   1.603   6.094   2.409
13278TIP3    H263814   1.654   6.226   2.363
13279TIP3   OH263815   1.638   6.239   2.938
13279TIP3    H163816   1.733   6.263   2.939
13279TIP3    H263817   1.618   6.255   3.031
13280TIP3   OH263818   1.642   5.915   2.402
13280TIP3    H163819   1.664   5.872   2.487
13280TIP3    H263820   1.582   5.851   2.359
13281TIP3   OH263821   0.190   5.995   2.863
13281TIP3    H163822   0.238   5.913   2.885
13281TIP3    H263823   0.243   6.065   2.903
13282TIP3   OH263824   0.042   6.301   2.972
13282TIP3    H163825   0.086   6.282   2.887
13282TIP3    H263826   0.071   6.391   2.990
13283TIP3   OH263827   1.823   5.918   2.058
13283TIP3    H163828   1.864   5.847   2.003
13283TIP3    H263829   1.894   5.984   2.063
13284TIP3   OH263830   0.075   5.903   2.320
13284TIP3    H163831  -0.018   5.927   2.335
13284TIP3    H263832   0.112   5.984   2.279
13285TIP3   OH263833   1.528   7.416   2.563
13285TIP3    H163834   1.597   7.386   2.501
13285TIP3    H263835   1.579   7.466   2.628
13286TIP3   OH263836   0.066   5.798   3.212
13286TIP3    H163837  -0.006   5.782   3.272
13286TIP3    H263838   0.018   5.863   3.154
13287TIP3   OH263839   0.560   7.212   3.235
13287TIP3    H163840   0.528   7.300   3.212
13287TIP3    H263841   0.655   7.219   3.217
13288TIP3   OH263842   0.548   7.487   3.147
13288TIP3    H163843   0.466   7.508   3.193
13288TIP3    H263844   0.549   7.553   3.076
13289TIP3   OH263845   1.022   7.479   3.065
13289TIP3    H163846   0.978   7.535   2.998
13289TIP3    H263847   1.034   7.544   3.138
13290TIP3   OH263848   1.247   7.368   3.143
13290TIP3    H163849   1.159   7.400   3.122
13290TIP3    H263850   1.297   7.450   3.152
13291TIP3   OH263851   0.256   7.401   2.934
13291TIP3    H163852   0.241   7.354   3.019
13291TIP3    H263853   0.335   7.357   2.896
13292TIP3   OH263854   0.458   7.266   2.803
13292TIP3    H163855   0.443   7.172   2.824
13292TIP3    H263856   0.545   7.282   2.847
13293TIP3   OH263857   0.714   7.313   2.891
13293TIP3    H163858   0.733   7.222   2.864
13293TIP3    H263859   0.727   7.309   2.987
13294TIP3   OH263860   1.066   5.880   2.805
13294TIP3    H163861   0.997   5.817   2.830
13294TIP3    H263862   1.119   5.828   2.744
13295TIP3   OH263863   1.580   5.684   2.807
13295TIP3    H163864   1.641   5.745   2.759
13295TIP3    H263865   1.491   5.721   2.788
13296TIP3   OH263866   1.744   5.811   2.635
13296TIP3    H163867   1.813   5.753   2.595
13296TIP3    H263868   1.796   5.894   2.648
13297TIP3   OH263869   0.308   5.742   2.584
13297TIP3    H163870   0.226   5.723   2.534
13297TIP3    H263871   0.351   5.654   2.580
13298TIP3   OH263872   0.179   5.715   2.158
13298TIP3    H163873   0.228   5.781   2.106
13298TIP3    H263874   0.128   5.774   2.218
13299TIP3   OH263875   0.748   5.735   2.567
13299TIP3    H163876   0.838   5.771   2.558
13299TIP3    H263877   0.746   5.714   2.660
13300TIP3   OH263878   1.322   5.737   2.730
13300TIP3    H163879   1.316   5.749   2.635
13300TIP3    H263880   1.282   5.647   2.743
13301TIP3   OH263881   1.447   5.740   2.297
13301TIP3    H163882   1.372   5.799   2.282
13301TIP3    H263883   1.403   5.655   2.322
13302TIP3   OH263884   0.169   7.319   2.264
13302TIP3    H163885   0.110   7.316   2.188
13302TIP3    H263886   0.169   7.415   2.279
13303TIP3   OH263887   0.365   5.912   2.012
13303TIP3    H163888   0.417   5.851   1.958
13303TIP3    H263889   0.433   5.943   2.074
13304TIP3   OH263890   0.864   5.936   2.251
13304TIP3    H163891   0.890   5.879   2.326
13304TIP3    H263892   0.872   6.023   2.296
13305TIP3   OH263893   1.058   7.445   2.096
13305TIP3    H163894   1.150   7.466   2.073
13305TIP3    H263895   1.036   7.391   2.016
13306TIP3   OH263896   1.727   7.394   2.369
13306TIP3    H163897   1.708   7.316   2.312
13306TIP3    H263898   1.721   7.468   2.304
13307TIP3   OH263899   0.347   7.406   1.955
13307TIP3    H163900   0.325   7.438   2.043
13307TIP3    H263901   0.429   7.356   1.971
13308TIP3   OH263902   3.097   6.658   2.573
13308TIP3    H163903   3.094   6.756   2.571
13308TIP3    H263904   3.024   6.634   2.514
13309TIP3   OH263905   2.983   6.581   2.921
13309TIP3    H163906   2.979   6.519   2.995
13309TIP3    H263907   2.947   6.529   2.847
13310TIP3   OH263908   2.214   6.557   3.089
13310TIP3    H163909   2.227   6.478   3.145
13310TIP3    H263910   2.298   6.604   3.096
13311TIP3   OH263911   3.347   6.877   2.748
13311TIP3    H163912   3.311   6.806   2.801
13311TIP3    H263913   3.355   6.946   2.816
13312TIP3   OH263914   2.310   6.994   2.931
13312TIP3    H163915   2.280   6.908   2.896
13312TIP3    H263916   2.406   6.979   2.932
13313TIP3   OH263917   1.973   6.350   2.478
13313TIP3    H163918   1.930   6.437   2.472
13313TIP3    H263919   1.917   6.296   2.420
13314TIP3   OH263920   2.045   6.573   2.692
13314TIP3    H163921   2.073   6.492   2.738
13314TIP3    H263922   2.114   6.584   2.625
13315TIP3   OH263923   3.062   7.393   2.778
13315TIP3    H163924   3.126   7.326   2.746
13315TIP3    H263925   3.041   7.358   2.865
13316TIP3   OH263926   2.821   6.826   2.971
13316TIP3    H163927   2.852   6.760   2.908
13316TIP3    H263928   2.901   6.838   3.023
13317TIP3   OH263929   3.687   5.990   3.048
13317TIP3    H163930   3.691   6.053   3.121
13317TIP3    H263931   3.738   6.035   2.979
13318TIP3   OH263932   3.129   6.268   3.004
13318TIP3    H163933   3.157   6.173   3.001
13318TIP3    H263934   3.125   6.284   2.908
13319TIP3   OH263935   2.447   6.078   2.723
13319TIP3    H163936   2.459   6.161   2.673
13319TIP3    H263937   2.408   6.021   2.654
13320TIP3   OH263938   3.222   6.085   2.560
13320TIP3    H163939   3.286   6.054   2.628
13320TIP3    H263940   3.278   6.145   2.509
13321TIP3   OH263941   2.110   6.320   2.795
13321TIP3    H163942   2.177   6.266   2.842
13321TIP3    H263943   2.122   6.287   2.705
13322TIP3   OH263944   2.626   6.475   2.729
13322TIP3    H163945   2.692   6.417   2.769
13322TIP3    H263946   2.574   6.410   2.678
13323TIP3   OH263947   2.337   5.970   3.125
13323TIP3    H163948   2.308   6.028   3.051
13323TIP3    H263949   2.269   5.986   3.193
13324TIP3   OH263950   3.066   6.916   2.482
13324TIP3    H163951   3.041   6.889   2.393
13324TIP3    H263952   3.036   7.010   2.487
13325TIP3   OH263953   2.593   6.733   3.149
13325TIP3    H163954   2.523   6.797   3.173
13325TIP3    H263955   2.662   6.795   3.121
13326TIP3   OH263956   3.401   6.019   2.760
13326TIP3    H163957   3.379   5.945   2.817
13326TIP3    H263958   3.468   6.064   2.815
13327TIP3   OH263959   2.294   6.157   2.927
13327TIP3    H163960   2.358   6.222   2.961
13327TIP3    H263961   2.348   6.113   2.857
13328TIP3   OH263962   2.424   6.930   3.215
13328TIP3    H163963   2.436   7.027   3.203
13328TIP3    H263964   2.357   6.929   3.282
13329TIP3   OH263965   2.043   6.893   2.312
13329TIP3    H163966   2.018   6.929   2.225
13329TIP3    H263967   2.051   6.975   2.365
13330TIP3   OH263968   3.403   7.063   2.989
13330TIP3    H163969   3.306   7.074   2.997
13330TIP3    H263970   3.431   7.154   2.968
13331TIP3   OH263971   3.442   5.895   3.138
13331TIP3    H163972   3.361   5.943   3.117
13331TIP3    H263973   3.508   5.936   3.081
13332TIP3   OH263974   2.727   5.704   2.864
13332TIP3    H163975   2.722   5.608   2.872
13332TIP3    H263976   2.645   5.732   2.908
13333TIP3   OH263977   3.229   7.240   2.647
13333TIP3    H163978   3.272   7.167   2.596
13333TIP3    H263979   3.275   7.318   2.609
13334TIP3   OH263980   3.351   7.032   2.499
13334TIP3    H163981   3.321   6.963   2.439
13334TIP3    H263982   3.354   6.983   2.583
13335TIP3   OH263983   2.961   6.580   2.323
13335TIP3    H163984   2.893   6.640   2.287
13335TIP3    H263985   3.033   6.590   2.259
13336TIP3   OH263986   2.971   6.439   2.025
13336TIP3    H163987   3.041   6.437   2.092
13336TIP3    H263988   3.001   6.366   1.970
13337TIP3   OH263989   3.701   6.523   3.144
13337TIP3    H163990   3.635   6.594   3.161
13337TIP3    H263991   3.749   6.556   3.068
13338TIP3   OH263992   3.309   6.601   2.416
13338TIP3    H163993   3.234   6.626   2.476
13338TIP3    H263994   3.356   6.534   2.470
13339TIP3   OH263995   3.287   6.417   3.326
13339TIP3    H163996   3.297   6.499   3.378
13339TIP3    H263997   3.230   6.452   3.257
13340TIP3   OH263998   2.468   6.668   2.608
13340TIP3    H163999   2.436   6.628   2.523
13340TIP3    H264000   2.530   6.599   2.642
13341TIP3   OH264001   2.600   7.008   2.879
13341TIP3    H164002   2.600   6.955   2.798
13341TIP3    H264003   2.679   6.972   2.923
13342TIP3   OH264004   2.498   6.543   2.972
13342TIP3    H164005   2.555   6.551   2.893
13342TIP3    H264006   2.540   6.606   3.034
13343TIP3   OH264007   3.143   7.105   3.049
13343TIP3    H164008   3.104   7.163   3.112
13343TIP3    H264009   3.118   7.015   3.082
13344TIP3   OH264010   3.196   6.523   2.183
13344TIP3    H164011   3.250   6.541   2.264
13344TIP3    H264012   3.241   6.572   2.111
13345TIP3   OH264013   2.966   7.194   2.530
13345TIP3    H164014   3.008   7.225   2.611
13345TIP3    H264015   2.910   7.269   2.506
13346TIP3   OH264016   3.568   5.695   2.175
13346TIP3    H164017   3.473   5.706   2.198
13346TIP3    H264018   3.587   5.779   2.130
13347TIP3   OH264019   2.363   6.569   2.373
13347TIP3    H164020   2.336   6.647   2.320
13347TIP3    H264021   2.299   6.502   2.346
13348TIP3   OH264022   3.679   7.129   2.010
13348TIP3    H164023   3.695   7.223   2.027
13348TIP3    H264024   3.771   7.098   2.010
13349TIP3   OH264025   1.950   7.087   2.939
13349TIP3    H164026   2.046   7.076   2.934
13349TIP3    H264027   1.940   7.167   2.992
13350TIP3   OH264028   2.913   7.484   2.370
13350TIP3    H164029   2.902   7.478   2.274
13350TIP3    H264030   2.914   7.580   2.387
13351TIP3   OH264031   2.277   7.375   2.556
13351TIP3    H164032   2.292   7.329   2.641
13351TIP3    H264033   2.193   7.333   2.531
13352TIP3   OH264034   3.219   7.406   2.070
13352TIP3    H164035   3.266   7.331   2.027
13352TIP3    H264036   3.224   7.381   2.164
13353TIP3   OH264037   3.189   7.398   2.346
13353TIP3    H164038   3.094   7.409   2.365
13353TIP3    H264039   3.212   7.325   2.406
13354TIP3   OH264040   2.468   5.795   2.943
13354TIP3    H164041   2.376   5.781   2.912
13354TIP3    H264042   2.458   5.872   3.001
13355TIP3   OH264043   3.340   6.626   1.967
13355TIP3    H164044   3.336   6.607   1.871
13355TIP3    H264045   3.426   6.670   1.970
13356TIP3   OH264046   2.899   6.018   2.016
13356TIP3    H164047   2.867   6.011   2.108
13356TIP3    H264048   2.868   5.931   1.985
13357TIP3   OH264049   2.481   6.290   3.071
13357TIP3    H164050   2.408   6.288   3.136
13357TIP3    H264051   2.478   6.382   3.037
13358TIP3   OH264052   2.477   6.299   2.562
13358TIP3    H164053   2.383   6.276   2.548
13358TIP3    H264054   2.514   6.272   2.476
13359TIP3   OH264055   3.030   6.353   2.439
13359TIP3    H164056   2.990   6.434   2.401
13359TIP3    H264057   3.098   6.334   2.372
13360TIP3   OH264058   3.132   6.299   2.725
13360TIP3    H164059   3.104   6.357   2.652
13360TIP3    H264060   3.142   6.216   2.675
13361TIP3   OH264061   2.252   6.313   3.250
13361TIP3    H164062   2.240   6.351   3.338
13361TIP3    H264063   2.194   6.235   3.260
13362TIP3   OH264064   2.579   6.054   1.928
13362TIP3    H164065   2.533   6.012   2.004
13362TIP3    H264066   2.509   6.098   1.879
13363TIP3   OH264067   1.909   6.024   2.643
13363TIP3    H164068   1.978   6.020   2.712
13363TIP3    H264069   1.954   5.987   2.564
13364TIP3   OH264070   2.035   6.096   2.176
13364TIP3    H164071   2.087   6.157   2.120
13364TIP3    H264072   1.967   6.159   2.207
13365TIP3   OH264073   3.047   6.458   3.176
13365TIP3    H164074   3.089   6.390   3.119
13365TIP3    H264075   3.005   6.407   3.245
13366TIP3   OH264076   2.731   6.060   2.664
13366TIP3    H164077   2.637   6.056   2.693
13366TIP3    H264078   2.779   6.036   2.745
13367TIP3   OH264079   2.213   6.212   2.549
13367TIP3    H164080   2.125   6.227   2.509
13367TIP3    H264081   2.242   6.127   2.509
13368TIP3   OH264082   2.577   6.217   2.311
13368TIP3    H164083   2.673   6.227   2.327
13368TIP3    H264084   2.553   6.285   2.246
13369TIP3   OH264085   3.170   5.997   2.982
13369TIP3    H164086   3.108   5.974   3.053
13369TIP3    H264087   3.127   5.949   2.909
13370TIP3   OH264088   2.449   6.334   2.070
13370TIP3    H164089   2.395   6.296   1.998
13370TIP3    H264090   2.530   6.355   2.022
13371TIP3   OH264091   2.861   6.332   2.850
13371TIP3    H164092   2.921   6.279   2.797
13371TIP3    H264093   2.846   6.277   2.929
13372TIP3   OH264094   2.361   5.947   2.494
13372TIP3    H164095   2.330   5.854   2.495
13372TIP3    H264096   2.440   5.939   2.439
13373TIP3   OH264097   2.726   6.166   3.091
13373TIP3    H164098   2.643   6.218   3.094
13373TIP3    H264099   2.778   6.200   3.165
13374TIP3   OH264100   2.783   6.787   2.262
13374TIP3    H164101   2.703   6.741   2.228
13374TIP3    H264102   2.760   6.801   2.356
13375TIP3   OH264103   3.502   6.704   3.140
13375TIP3    H164104   3.562   6.758   3.086
13375TIP3    H264105   3.418   6.714   3.094
13376TIP3   OH264106   3.165   6.068   2.080
13376TIP3    H164107   3.071   6.084   2.066
13376TIP3    H264108   3.200   6.153   2.115
13377TIP3   OH264109   3.239   6.261   2.241
13377TIP3    H164110   3.327   6.248   2.283
13377TIP3    H264111   3.251   6.344   2.190
13378TIP3   OH264112   2.294   6.728   2.845
13378TIP3    H164113   2.360   6.721   2.773
13378TIP3    H264114   2.300   6.640   2.884
13379TIP3   OH264115   2.992   6.934   2.165
13379TIP3    H164116   2.958   7.018   2.200
13379TIP3    H264117   2.919   6.872   2.188
13380TIP3   OH264118   3.730   6.273   2.219
13380TIP3    H164119   3.673   6.246   2.145
13380TIP3    H264120   3.738   6.369   2.196
13381TIP3   OH264121   3.554   7.157   2.258
13381TIP3    H164122   3.522   7.074   2.294
13381TIP3    H264123   3.591   7.134   2.171
13382TIP3   OH264124   3.279   6.642   2.969
13382TIP3    H164125   3.185   6.617   2.961
13382TIP3    H264126   3.322   6.563   2.932
13383TIP3   OH264127   2.531   7.073   2.582
13383TIP3    H164128   2.581   7.153   2.560
13383TIP3    H264129   2.444   7.095   2.547
13384TIP3   OH264130   2.109   6.556   2.038
13384TIP3    H164131   2.166   6.623   2.079
13384TIP3    H264132   2.019   6.587   2.062
13385TIP3   OH264133   2.672   6.840   2.531
13385TIP3    H164134   2.640   6.931   2.542
13385TIP3    H264135   2.602   6.789   2.577
13386TIP3   OH264136   2.720   7.257   3.163
13386TIP3    H164137   2.767   7.339   3.143
13386TIP3    H264138   2.769   7.220   3.237
13387TIP3   OH264139   2.541   7.337   2.484
13387TIP3    H164140   2.445   7.350   2.500
13387TIP3    H264141   2.578   7.421   2.518
13388TIP3   OH264142   3.075   6.862   3.137
13388TIP3    H164143   3.038   6.835   3.223
13388TIP3    H264144   3.133   6.786   3.118
13389TIP3   OH264145   3.305   6.966   2.044
13389TIP3    H164146   3.334   6.917   2.124
13389TIP3    H264147   3.210   6.946   2.051
13390TIP3   OH264148   3.749   7.396   2.070
13390TIP3    H164149   3.818   7.463   2.048
13390TIP3    H264150   3.679   7.459   2.098
13391TIP3   OH264151   3.382   6.828   2.268
13391TIP3    H164152   3.358   6.749   2.321
13391TIP3    H264153   3.477   6.832   2.285
13392TIP3   OH264154   2.121   7.221   3.166
13392TIP3    H164155   2.150   7.129   3.163
13392TIP3    H264156   2.152   7.249   3.253
13393TIP3   OH264157   2.718   7.072   1.894
13393TIP3    H164158   2.727   6.996   1.834
13393TIP3    H264159   2.672   7.029   1.969
13394TIP3   OH264160   2.593   7.024   2.139
13394TIP3    H164161   2.622   6.973   2.216
13394TIP3    H264162   2.604   7.117   2.172
13395TIP3   OH264163   2.249   6.749   2.187
13395TIP3    H164164   2.177   6.789   2.240
13395TIP3    H264165   2.299   6.827   2.157
13396TIP3   OH264166   3.106   5.973   2.328
13396TIP3    H164167   3.129   6.020   2.245
13396TIP3    H264168   3.163   6.019   2.391
13397TIP3   OH264169   2.875   7.190   2.208
13397TIP3    H164170   2.793   7.244   2.216
13397TIP3    H264171   2.929   7.246   2.150
13398TIP3   OH264172   2.829   6.149   2.410
13398TIP3    H164173   2.906   6.209   2.415
13398TIP3    H264174   2.802   6.137   2.503
13399TIP3   OH264175   2.879   6.248   3.329
13399TIP3    H164176   2.893   6.318   3.394
13399TIP3    H264177   2.951   6.185   3.333
13400TIP3   OH264178   2.913   5.855   2.495
13400TIP3    H164179   2.881   5.919   2.561
13400TIP3    H264180   2.984   5.910   2.453
13401TIP3   OH264181   2.615   7.293   2.212
13401TIP3    H164182   2.624   7.374   2.156
13401TIP3    H264183   2.587   7.331   2.298
13402TIP3   OH264184   2.479   5.966   2.169
13402TIP3    H164185   2.474   6.056   2.208
13402TIP3    H264186   2.570   5.941   2.195
13403TIP3   OH264187   3.363   6.418   2.810
13403TIP3    H164188   3.280   6.373   2.787
13403TIP3    H264189   3.412   6.351   2.864
13404TIP3   OH264190   2.302   7.010   2.073
13404TIP3    H164191   2.370   7.072   2.105
13404TIP3    H264192   2.355   6.963   2.005
13405TIP3   OH264193   2.137   6.278   1.988
13405TIP3    H164194   2.139   6.373   2.009
13405TIP3    H264195   2.048   6.261   1.957
13406TIP3   OH264196   3.467   7.341   2.983
13406TIP3    H164197   3.459   7.410   2.914
13406TIP3    H264198   3.564   7.347   2.999
13407TIP3   OH264199   2.215   5.757   2.862
13407TIP3    H164200   2.200   5.757   2.765
13407TIP3    H264201   2.179   5.669   2.887
13408TIP3   OH264202   2.114   7.149   2.478
13408TIP3    H164203   2.028   7.193   2.471
13408TIP3    H264204   2.161   7.193   2.405
13409TIP3   OH264205   2.917   7.257   1.906
13409TIP3    H164206   2.847   7.191   1.927
13409TIP3    H264207   2.989   7.197   1.881
13410TIP3   OH264208   3.373   7.230   1.924
13410TIP3    H164209   3.402   7.153   1.975
13410TIP3    H264210   3.449   7.252   1.869
13411TIP3   OH264211   2.461   6.825   1.905
13411TIP3    H164212   2.475   6.750   1.964
13411TIP3    H264213   2.536   6.814   1.844
13412TIP3   OH264214   3.004   6.937   1.884
13412TIP3    H164215   2.977   6.944   1.977
13412TIP3    H264216   2.986   6.841   1.869
13413TIP3   OH264217   2.581   6.627   2.150
13413TIP3    H164218   2.530   6.573   2.212
13413TIP3    H264219   2.612   6.560   2.085
13414TIP3   OH264220   2.689   6.450   1.969
13414TIP3    H164221   2.674   6.441   1.873
13414TIP3    H264222   2.787   6.454   1.976
13415TIP3   OH264223   3.620   6.681   1.910
13415TIP3    H164224   3.603   6.644   1.822
13415TIP3    H264225   3.630   6.777   1.892
13416TIP3   OH264226   2.587   5.989   3.247
13416TIP3    H164227   2.636   6.028   3.172
13416TIP3    H264228   2.502   5.968   3.204
13417TIP3   OH264229   2.743   6.524   3.261
13417TIP3    H164230   2.822   6.518   3.206
13417TIP3    H264231   2.707   6.611   3.235
13418TIP3   OH264232   2.671   7.519   2.079
13418TIP3    H164233   2.768   7.529   2.085
13418TIP3    H264234   2.657   7.577   2.003
13419TIP3   OH264235   2.026   6.976   2.025
13419TIP3    H164236   2.123   6.986   2.042
13419TIP3    H264237   2.031   6.912   1.949
13420TIP3   OH264238   1.908   7.512   2.518
13420TIP3    H164239   1.834   7.465   2.474
13420TIP3    H264240   1.934   7.449   2.587
13421TIP3   OH264241   1.992   7.330   2.709
13421TIP3    H164242   1.953   7.243   2.727
13421TIP3    H264243   2.011   7.362   2.798
13422TIP3   OH264244   3.746   7.405   3.002
13422TIP3    H164245   3.742   7.430   3.095
13422TIP3    H264246   3.812   7.468   2.970
13423TIP3   OH264247   3.675   6.773   2.305
13423TIP3    H164248   3.762   6.812   2.324
13423TIP3    H264249   3.673   6.702   2.372
13424TIP3   OH264250   3.710   6.581   2.495
13424TIP3    H164251   3.635   6.532   2.535
13424TIP3    H264252   3.771   6.593   2.571
13425TIP3   OH264253   3.682   6.848   2.989
13425TIP3    H164254   3.767   6.811   2.960
13425TIP3    H264255   3.699   6.944   2.978
13426TIP3   OH264256   3.541   7.146   3.221
13426TIP3    H164257   3.472   7.167   3.283
13426TIP3    H264258   3.493   7.096   3.151
13427TIP3   OH264259   3.741   6.563   2.133
13427TIP3    H164260   3.684   6.596   2.061
13427TIP3    H264261   3.730   6.634   2.199
13428TIP3   OH264262   3.579   6.285   1.984
13428TIP3    H164263   3.586   6.351   1.915
13428TIP3    H264264   3.560   6.203   1.934
13429TIP3   OH264265   3.492   6.428   2.554
13429TIP3    H164266   3.478   6.333   2.547
13429TIP3    H264267   3.461   6.447   2.644
13430TIP3   OH264268   1.994   6.636   2.958
13430TIP3    H164269   2.010   6.628   2.861
13430TIP3    H264270   2.084   6.617   2.993
13431TIP3   OH264271   3.504   6.033   1.898
13431TIP3    H164272   3.562   5.989   1.962
13431TIP3    H264273   3.417   5.992   1.913
13432TIP3   OH264274   3.457   6.186   2.392
13432TIP3    H164275   3.489   6.094   2.409
13432TIP3    H264276   3.540   6.227   2.363
13433TIP3   OH264277   3.524   6.240   2.939
13433TIP3    H164278   3.620   6.264   2.940
13433TIP3    H264279   3.506   6.255   3.035
13434TIP3   OH264280   3.523   6.316   3.199
13434TIP3    H164281   3.449   6.340   3.259
13434TIP3    H264282   3.582   6.396   3.205
13435TIP3   OH264283   3.527   5.915   2.402
13435TIP3    H164284   3.549   5.873   2.487
13435TIP3    H264285   3.468   5.851   2.359
13436TIP3   OH264286   2.075   5.996   2.861
13436TIP3    H164287   2.120   5.912   2.885
13436TIP3    H264288   2.131   6.064   2.900
13437TIP3   OH264289   1.900   6.294   2.957
13437TIP3    H164290   1.960   6.271   2.882
13437TIP3    H264291   1.947   6.372   2.990
13438TIP3   OH264292   3.708   5.918   2.057
13438TIP3    H164293   3.749   5.847   2.003
13438TIP3    H264294   3.779   5.984   2.062
13439TIP3   OH264295   1.941   5.924   2.370
13439TIP3    H164296   1.846   5.939   2.353
13439TIP3    H264297   1.982   5.971   2.296
13440TIP3   OH264298   3.414   7.416   2.565
13440TIP3    H164299   3.483   7.386   2.502
13440TIP3    H264300   3.465   7.467   2.629
13441TIP3   OH264301   1.939   5.790   3.195
13441TIP3    H164302   1.873   5.767   3.262
13441TIP3    H264303   1.888   5.858   3.147
13442TIP3   OH264304   2.446   7.208   3.234
13442TIP3    H164305   2.416   7.297   3.216
13442TIP3    H264306   2.542   7.217   3.216
13443TIP3   OH264307   3.614   5.737   3.369
13443TIP3    H164308   3.529   5.768   3.333
13443TIP3    H264309   3.626   5.652   3.321
13444TIP3   OH264310   2.183   7.530   3.240
13444TIP3    H164311   2.102   7.575   3.209
13444TIP3    H264312   2.157   7.512   3.334
13445TIP3   OH264313   2.438   7.489   3.147
13445TIP3    H164314   2.353   7.499   3.193
13445TIP3    H264315   2.442   7.548   3.070
13446TIP3   OH264316   2.906   7.477   3.070
13446TIP3    H164317   2.866   7.530   2.999
13446TIP3    H264318   2.929   7.546   3.134
13447TIP3   OH264319   3.384   7.515   3.188
13447TIP3    H164320   3.393   7.612   3.170
13447TIP3    H264321   3.420   7.483   3.103
13448TIP3   OH264322   2.147   7.403   2.939
13448TIP3    H164323   2.130   7.346   3.017
13448TIP3    H264324   2.220   7.355   2.896
13449TIP3   OH264325   2.343   7.269   2.804
13449TIP3    H164326   2.329   7.174   2.821
13449TIP3    H264327   2.431   7.280   2.845
13450TIP3   OH264328   2.602   7.316   2.889
13450TIP3    H164329   2.620   7.223   2.863
13450TIP3    H264330   2.610   7.310   2.985
13451TIP3   OH264331   2.950   5.881   2.801
13451TIP3    H164332   2.885   5.816   2.836
13451TIP3    H264333   3.007   5.826   2.747
13452TIP3   OH264334   3.464   5.682   2.806
13452TIP3    H164335   3.524   5.745   2.759
13452TIP3    H264336   3.375   5.721   2.788
13453TIP3   OH264337   3.631   5.812   2.634
13453TIP3    H164338   3.699   5.753   2.595
13453TIP3    H264339   3.683   5.895   2.647
13454TIP3   OH264340   2.189   5.743   2.588
13454TIP3    H164341   2.109   5.725   2.535
13454TIP3    H264342   2.234   5.656   2.583
13455TIP3   OH264343   2.064   5.718   2.159
13455TIP3    H164344   2.114   5.783   2.106
13455TIP3    H264345   2.008   5.776   2.214
13456TIP3   OH264346   2.634   5.734   2.568
13456TIP3    H164347   2.723   5.771   2.557
13456TIP3    H264348   2.633   5.714   2.662
13457TIP3   OH264349   3.207   5.738   2.730
13457TIP3    H164350   3.201   5.748   2.635
13457TIP3    H264351   3.167   5.649   2.745
13458TIP3   OH264352   3.333   5.740   2.297
13458TIP3    H164353   3.258   5.799   2.282
13458TIP3    H264354   3.289   5.655   2.322
13459TIP3   OH264355   2.055   7.313   2.264
13459TIP3    H164356   1.989   7.311   2.192
13459TIP3    H264357   2.055   7.409   2.280
13460TIP3   OH264358   2.247   5.912   2.011
13460TIP3    H164359   2.300   5.851   1.959
13460TIP3    H264360   2.313   5.945   2.074
13461TIP3   OH264361   2.749   5.936   2.251
13461TIP3    H164362   2.775   5.879   2.325
13461TIP3    H264363   2.758   6.023   2.296
13462TIP3   OH264364   2.944   7.445   2.096
13462TIP3    H164365   3.036   7.466   2.074
13462TIP3    H264366   2.922   7.392   2.016
13463TIP3   OH264367   3.612   7.395   2.369
13463TIP3    H164368   3.593   7.316   2.312
13463TIP3    H264369   3.607   7.468   2.304
13464TIP3   OH264370   2.235   7.412   1.958
13464TIP3    H164371   2.209   7.438   2.047
13464TIP3    H264372   2.313   7.356   1.973
13465TIP3   OH264373   4.983   6.658   2.571
13465TIP3    H164374   4.980   6.756   2.572
13465TIP3    H264375   4.909   6.635   2.513
13466TIP3   OH264376   4.872   6.582   2.925
13466TIP3    H164377   4.863   6.517   2.996
13466TIP3    H264378   4.835   6.534   2.849
13467TIP3   OH264379   4.102   6.553   3.082
13467TIP3    H164380   4.112   6.480   3.146
13467TIP3    H264381   4.180   6.606   3.099
13468TIP3   OH264382   5.240   6.879   2.752
13468TIP3    H164383   5.193   6.807   2.797
13468TIP3    H264384   5.233   6.949   2.820
13469TIP3   OH264385   4.195   6.996   2.920
13469TIP3    H164386   4.166   6.905   2.898
13469TIP3    H264387   4.290   6.978   2.937
13470TIP3   OH264388   3.858   6.350   2.478
13470TIP3    H164389   3.815   6.437   2.471
13470TIP3    H264390   3.803   6.296   2.421
13471TIP3   OH264391   3.931   6.573   2.692
13471TIP3    H164392   3.958   6.491   2.737
13471TIP3    H264393   4.000   6.585   2.626
13472TIP3   OH264394   4.947   7.393   2.777
13472TIP3    H164395   5.013   7.325   2.747
13472TIP3    H264396   4.926   7.358   2.864
13473TIP3   OH264397   4.707   6.828   2.969
13473TIP3    H164398   4.737   6.760   2.907
13473TIP3    H264399   4.786   6.840   3.022
13474TIP3   OH264400   5.565   5.989   3.046
13474TIP3    H164401   5.582   6.048   3.121
13474TIP3    H264402   5.621   6.029   2.978
13475TIP3   OH264403   5.016   6.266   3.006
13475TIP3    H164404   5.040   6.172   3.002
13475TIP3    H264405   5.011   6.284   2.910
13476TIP3   OH264406   4.332   6.079   2.724
13476TIP3    H164407   4.344   6.161   2.673
13476TIP3    H264408   4.294   6.021   2.655
13477TIP3   OH264409   5.108   6.085   2.559
13477TIP3    H164410   5.171   6.055   2.628
13477TIP3    H264411   5.164   6.145   2.508
13478TIP3   OH264412   3.994   6.317   2.798
13478TIP3    H164413   4.063   6.266   2.843
13478TIP3    H264414   4.007   6.288   2.706
13479TIP3   OH264415   4.511   6.475   2.730
13479TIP3    H164416   4.578   6.417   2.770
13479TIP3    H264417   4.460   6.409   2.679
13480TIP3   OH264418   5.617   6.134   3.274
13480TIP3    H164419   5.544   6.200   3.262
13480TIP3    H264420   5.612   6.113   3.369
13481TIP3   OH264421   4.220   5.969   3.124
13481TIP3    H164422   4.195   6.029   3.051
13481TIP3    H264423   4.156   5.996   3.194
13482TIP3   OH264424   4.952   6.916   2.482
13482TIP3    H164425   4.926   6.889   2.393
13482TIP3    H264426   4.922   7.009   2.487
13483TIP3   OH264427   4.473   6.740   3.129
13483TIP3    H164428   4.406   6.795   3.175
13483TIP3    H264429   4.548   6.800   3.126
13484TIP3   OH264430   5.286   6.021   2.762
13484TIP3    H164431   5.268   5.944   2.815
13484TIP3    H264432   5.356   6.064   2.816
13485TIP3   OH264433   4.182   6.155   2.933
13485TIP3    H164434   4.240   6.228   2.960
13485TIP3    H264435   4.233   6.114   2.858
13486TIP3   OH264436   4.316   6.935   3.219
13486TIP3    H164437   4.318   7.029   3.205
13486TIP3    H264438   4.242   6.927   3.282
13487TIP3   OH264439   3.928   6.893   2.312
13487TIP3    H164440   3.904   6.929   2.225
13487TIP3    H264441   3.937   6.975   2.365
13488TIP3   OH264442   5.289   7.063   2.975
13488TIP3    H164443   5.194   7.072   3.002
13488TIP3    H264444   5.311   7.158   2.974
13489TIP3   OH264445   4.617   5.704   2.872
13489TIP3    H164446   4.604   5.608   2.870
13489TIP3    H264447   4.530   5.732   2.907
13490TIP3   OH264448   5.119   7.239   2.650
13490TIP3    H164449   5.155   7.168   2.594
13490TIP3    H264450   5.158   7.318   2.608
13491TIP3   OH264451   5.240   7.031   2.500
13491TIP3    H164452   5.205   6.965   2.438
13491TIP3    H264453   5.236   6.981   2.583
13492TIP3   OH264454   4.847   6.580   2.325
13492TIP3    H164455   4.779   6.639   2.288
13492TIP3    H264456   4.919   6.590   2.259
13493TIP3   OH264457   4.860   6.441   2.020
13493TIP3    H164458   4.924   6.438   2.094
13493TIP3    H264459   4.887   6.362   1.972
13494TIP3   OH264460   5.590   6.523   3.153
13494TIP3    H164461   5.524   6.595   3.162
13494TIP3    H264462   5.633   6.549   3.070
13495TIP3   OH264463   5.194   6.601   2.417
13495TIP3    H164464   5.119   6.626   2.477
13495TIP3    H264465   5.242   6.535   2.469
13496TIP3   OH264466   5.182   6.416   3.331
13496TIP3    H164467   5.193   6.496   3.384
13496TIP3    H264468   5.121   6.443   3.262
13497TIP3   OH264469   4.354   6.667   2.609
13497TIP3    H164470   4.322   6.628   2.524
13497TIP3    H264471   4.415   6.598   2.642
13498TIP3   OH264472   4.485   7.008   2.878
13498TIP3    H164473   4.485   6.954   2.798
13498TIP3    H264474   4.563   6.971   2.924
13499TIP3   OH264475   4.386   6.540   2.971
13499TIP3    H164476   4.442   6.553   2.893
13499TIP3    H264477   4.423   6.607   3.034
13500TIP3   OH264478   5.031   7.100   3.048
13500TIP3    H164479   4.997   7.165   3.110
13500TIP3    H264480   5.001   7.014   3.086
13501TIP3   OH264481   5.081   6.522   2.182
13501TIP3    H164482   5.135   6.540   2.263
13501TIP3    H264483   5.128   6.574   2.112
13502TIP3   OH264484   4.853   7.195   2.531
13502TIP3    H164485   4.895   7.225   2.612
13502TIP3    H264486   4.796   7.269   2.506
13503TIP3   OH264487   5.456   5.696   2.177
13503TIP3    H164488   5.360   5.705   2.198
13503TIP3    H264489   5.472   5.779   2.128
13504TIP3   OH264490   4.249   6.569   2.372
13504TIP3    H164491   4.222   6.647   2.320
13504TIP3    H264492   4.185   6.502   2.346
13505TIP3   OH264493   5.565   7.130   2.009
13505TIP3    H164494   5.582   7.224   2.026
13505TIP3    H264495   5.657   7.098   2.010
13506TIP3   OH264496   3.875   6.811   3.240
13506TIP3    H164497   3.807   6.806   3.171
13506TIP3    H264498   3.858   6.727   3.283
13507TIP3   OH264499   3.836   7.088   2.940
13507TIP3    H164500   3.931   7.074   2.936
13507TIP3    H264501   3.827   7.169   2.991
13508TIP3   OH264502   4.753   7.116   3.392
13508TIP3    H164503   4.759   7.194   3.447
13508TIP3    H264504   4.665   7.079   3.413
13509TIP3   OH264505   4.800   7.485   2.371
13509TIP3    H164506   4.788   7.478   2.275
13509TIP3    H264507   4.799   7.582   2.388
13510TIP3   OH264508   4.163   7.373   2.554
13510TIP3    H164509   4.178   7.332   2.642
13510TIP3    H264510   4.078   7.332   2.531
13511TIP3   OH264511   5.105   7.406   2.070
13511TIP3    H164512   5.152   7.331   2.027
13511TIP3    H264513   5.109   7.381   2.164
13512TIP3   OH264514   5.075   7.401   2.348
13512TIP3    H164515   4.979   7.407   2.364
13512TIP3    H264516   5.097   7.326   2.405
13513TIP3   OH264517   4.088   6.937   3.352
13513TIP3    H164518   4.109   6.908   3.441
13513TIP3    H264519   4.000   6.897   3.332
13514TIP3   OH264520   4.357   5.797   2.938
13514TIP3    H164521   4.264   5.779   2.913
13514TIP3    H264522   4.344   5.870   3.002
13515TIP3   OH264523   4.823   5.761   3.289
13515TIP3    H164524   4.856   5.719   3.370
13515TIP3    H264525   4.725   5.749   3.300
13516TIP3   OH264526   5.226   6.623   1.967
13516TIP3    H164527   5.224   6.609   1.870
13516TIP3    H264528   5.310   6.671   1.972
13517TIP3   OH264529   4.786   6.019   2.014
13517TIP3    H164530   4.754   6.012   2.106
13517TIP3    H264531   4.754   5.931   1.985
13518TIP3   OH264532   4.363   6.298   2.561
13518TIP3    H164533   4.269   6.276   2.548
13518TIP3    H264534   4.400   6.272   2.475
13519TIP3   OH264535   4.915   6.351   2.438
13519TIP3    H164536   4.876   6.434   2.401
13519TIP3    H264537   4.983   6.334   2.372
13520TIP3   OH264538   5.017   6.300   2.725
13520TIP3    H164539   4.989   6.357   2.651
13520TIP3    H264540   5.028   6.216   2.676
13521TIP3   OH264541   4.121   6.320   3.246
13521TIP3    H164542   4.136   6.353   3.335
13521TIP3    H264543   4.084   6.233   3.263
13522TIP3   OH264544   4.465   6.054   1.928
13522TIP3    H164545   4.419   6.012   2.004
13522TIP3    H264546   4.394   6.098   1.879
13523TIP3   OH264547   3.795   6.024   2.642
13523TIP3    H164548   3.865   6.020   2.711
13523TIP3    H264549   3.839   5.988   2.563
13524TIP3   OH264550   3.920   6.096   2.176
13524TIP3    H164551   3.973   6.157   2.120
13524TIP3    H264552   3.852   6.159   2.207
13525TIP3   OH264553   4.941   6.460   3.187
13525TIP3    H164554   4.973   6.394   3.122
13525TIP3    H264555   4.888   6.403   3.246
13526TIP3   OH264556   4.616   6.059   2.664
13526TIP3    H164557   4.522   6.057   2.693
13526TIP3    H264558   4.665   6.038   2.744
13527TIP3   OH264559   4.099   6.211   2.550
13527TIP3    H164560   4.011   6.227   2.510
13527TIP3    H264561   4.128   6.127   2.509
13528TIP3   OH264562   4.463   6.217   2.311
13528TIP3    H164563   4.559   6.228   2.327
13528TIP3    H264564   4.439   6.285   2.246
13529TIP3   OH264565   5.056   5.983   2.993
13529TIP3    H164566   4.984   5.980   3.056
13529TIP3    H264567   5.013   5.955   2.910
13530TIP3   OH264568   4.334   6.334   2.070
13530TIP3    H164569   4.281   6.296   1.998
13530TIP3    H264570   4.416   6.355   2.022
13531TIP3   OH264571   4.747   6.331   2.849
13531TIP3    H164572   4.808   6.279   2.795
13531TIP3    H264573   4.733   6.277   2.928
13532TIP3   OH264574   4.247   5.947   2.494
13532TIP3    H164575   4.216   5.855   2.495
13532TIP3    H264576   4.326   5.939   2.440
13533TIP3   OH264577   4.610   6.164   3.092
13533TIP3    H164578   4.529   6.215   3.101
13533TIP3    H264579   4.666   6.198   3.164
13534TIP3   OH264580   4.669   6.787   2.262
13534TIP3    H164581   4.588   6.741   2.228
13534TIP3    H264582   4.645   6.801   2.356
13535TIP3   OH264583   5.386   6.703   3.143
13535TIP3    H164584   5.444   6.756   3.086
13535TIP3    H264585   5.303   6.709   3.093
13536TIP3   OH264586   5.052   6.072   2.075
13536TIP3    H164587   4.955   6.083   2.069
13536TIP3    H264588   5.085   6.153   2.119
13537TIP3   OH264589   5.124   6.262   2.240
13537TIP3    H164590   5.211   6.248   2.283
13537TIP3    H264591   5.136   6.346   2.193
13538TIP3   OH264592   4.178   6.728   2.840
13538TIP3    H164593   4.248   6.719   2.773
13538TIP3    H264594   4.186   6.643   2.889
13539TIP3   OH264595   4.877   6.934   2.165
13539TIP3    H164596   4.843   7.018   2.200
13539TIP3    H264597   4.805   6.872   2.188
13540TIP3   OH264598   5.617   6.273   2.219
13540TIP3    H164599   5.558   6.247   2.146
13540TIP3    H264600   5.624   6.368   2.196
13541TIP3   OH264601   5.444   7.156   2.261
13541TIP3    H164602   5.406   7.073   2.291
13541TIP3    H264603   5.478   7.136   2.172
13542TIP3   OH264604   5.163   6.641   2.974
13542TIP3    H164605   5.070   6.617   2.957
13542TIP3    H264606   5.207   6.567   2.929
13543TIP3   OH264607   4.418   7.073   2.581
13543TIP3    H164608   4.467   7.154   2.560
13543TIP3    H264609   4.330   7.095   2.547
13544TIP3   OH264610   3.995   6.556   2.037
13544TIP3    H164611   4.052   6.623   2.079
13544TIP3    H264612   3.905   6.586   2.061
13545TIP3   OH264613   4.557   6.839   2.530
13545TIP3    H164614   4.526   6.931   2.542
13545TIP3    H264615   4.488   6.789   2.577
13546TIP3   OH264616   4.607   7.258   3.170
13546TIP3    H164617   4.652   7.338   3.144
13546TIP3    H264618   4.664   7.220   3.238
13547TIP3   OH264619   4.426   7.337   2.484
13547TIP3    H164620   4.330   7.350   2.500
13547TIP3    H264621   4.463   7.421   2.518
13548TIP3   OH264622   4.959   6.859   3.133
13548TIP3    H164623   4.917   6.839   3.216
13548TIP3    H264624   5.020   6.786   3.114
13549TIP3   OH264625   5.191   6.966   2.044
13549TIP3    H164626   5.220   6.917   2.124
13549TIP3    H264627   5.096   6.947   2.051
13550TIP3   OH264628   5.227   7.313   3.383
13550TIP3    H164629   5.168   7.265   3.326
13550TIP3    H264630   5.263   7.383   3.325
13551TIP3   OH264631   5.635   7.397   2.069
13551TIP3    H164632   5.704   7.463   2.048
13551TIP3    H264633   5.564   7.459   2.098
13552TIP3   OH264634   4.044   6.045   3.330
13552TIP3    H164635   3.953   6.078   3.315
13552TIP3    H264636   4.031   5.954   3.359
13553TIP3   OH264637   5.267   6.828   2.267
13553TIP3    H164638   5.243   6.750   2.322
13553TIP3    H264639   5.362   6.832   2.286
13554TIP3   OH264640   4.009   7.218   3.169
13554TIP3    H164641   4.035   7.124   3.167
13554TIP3    H264642   4.045   7.249   3.253
13555TIP3   OH264643   4.604   7.072   1.894
13555TIP3    H164644   4.612   6.996   1.835
13555TIP3    H264645   4.557   7.029   1.969
13556TIP3   OH264646   4.479   7.024   2.139
13556TIP3    H164647   4.508   6.973   2.216
13556TIP3    H264648   4.489   7.117   2.172
13557TIP3   OH264649   4.135   6.749   2.187
13557TIP3    H164650   4.063   6.789   2.240
13557TIP3    H264651   4.185   6.827   2.157
13558TIP3   OH264652   4.992   5.974   2.327
13558TIP3    H164653   5.014   6.020   2.244
13558TIP3    H264654   5.049   6.018   2.391
13559TIP3   OH264655   4.760   7.190   2.208
13559TIP3    H164656   4.678   7.244   2.216
13559TIP3    H264657   4.814   7.246   2.150
13560TIP3   OH264658   4.715   6.149   2.410
13560TIP3    H164659   4.792   6.209   2.415
13560TIP3    H264660   4.687   6.137   2.503
13561TIP3   OH264661   4.777   6.261   3.320
13561TIP3    H164662   4.771   6.306   3.406
13561TIP3    H264663   4.827   6.181   3.342
13562TIP3   OH264664   4.799   5.855   2.498
13562TIP3    H164665   4.767   5.920   2.563
13562TIP3    H264666   4.869   5.909   2.454
13563TIP3   OH264667   4.501   7.293   2.212
13563TIP3    H164668   4.510   7.375   2.156
13563TIP3    H264669   4.473   7.330   2.299
13564TIP3   OH264670   4.365   5.966   2.169
13564TIP3    H164671   4.360   6.056   2.208
13564TIP3    H264672   4.456   5.941   2.195
13565TIP3   OH264673   5.249   6.419   2.810
13565TIP3    H164674   5.166   6.372   2.788
13565TIP3    H264675   5.298   6.352   2.864
13566TIP3   OH264676   4.188   7.010   2.073
13566TIP3    H164677   4.255   7.072   2.105
13566TIP3    H264678   4.240   6.963   2.005
13567TIP3   OH264679   4.023   6.278   1.988
13567TIP3    H164680   4.025   6.373   2.009
13567TIP3    H264681   3.933   6.261   1.957
13568TIP3   OH264682   5.358   7.337   2.974
13568TIP3    H164683   5.343   7.413   2.914
13568TIP3    H264684   5.450   7.353   3.002
13569TIP3   OH264685   4.102   5.757   2.863
13569TIP3    H164686   4.085   5.758   2.766
13569TIP3    H264687   4.064   5.670   2.887
13570TIP3   OH264688   3.999   7.149   2.477
13570TIP3    H164689   3.914   7.193   2.471
13570TIP3    H264690   4.046   7.193   2.406
13571TIP3   OH264691   4.803   7.257   1.906
13571TIP3    H164692   4.733   7.191   1.927
13571TIP3    H264693   4.874   7.197   1.881
13572TIP3   OH264694   5.258   7.231   1.924
13572TIP3    H164695   5.288   7.153   1.975
13572TIP3    H264696   5.335   7.252   1.869
13573TIP3   OH264697   4.346   6.825   1.905
13573TIP3    H164698   4.360   6.750   1.964
13573TIP3    H264699   4.422   6.814   1.844
13574TIP3   OH264700   4.890   6.934   1.883
13574TIP3    H164701   4.863   6.943   1.976
13574TIP3    H264702   4.870   6.839   1.869
13575TIP3   OH264703   4.467   6.627   2.151
13575TIP3    H164704   4.416   6.573   2.212
13575TIP3    H264705   4.497   6.560   2.085
13576TIP3   OH264706   4.575   6.448   1.970
13576TIP3    H164707   4.556   6.443   1.874
13576TIP3    H264708   4.672   6.455   1.976
13577TIP3   OH264709   5.506   6.681   1.910
13577TIP3    H164710   5.488   6.643   1.822
13577TIP3    H264711   5.516   6.777   1.891
13578TIP3   OH264712   4.472   5.985   3.242
13578TIP3    H164713   4.522   6.029   3.172
13578TIP3    H264714   4.384   5.971   3.202
13579TIP3   OH264715   4.557   5.732   3.272
13579TIP3    H164716   4.531   5.826   3.269
13579TIP3    H264717   4.478   5.685   3.239
13580TIP3   OH264718   4.557   7.519   2.079
13580TIP3    H164719   4.653   7.528   2.085
13580TIP3    H264720   4.543   7.577   2.003
13581TIP3   OH264721   3.912   6.976   2.025
13581TIP3    H164722   4.009   6.985   2.042
13581TIP3    H264723   3.916   6.912   1.949
13582TIP3   OH264724   3.794   7.512   2.517
13582TIP3    H164725   3.719   7.465   2.474
13582TIP3    H264726   3.819   7.449   2.587
13583TIP3   OH264727   3.873   7.328   2.707
13583TIP3    H164728   3.837   7.241   2.728
13583TIP3    H264729   3.897   7.361   2.795
13584TIP3   OH264730   5.630   7.406   3.003
13584TIP3    H164731   5.633   7.425   3.099
13584TIP3    H264732   5.698   7.469   2.973
13585TIP3   OH264733   5.598   7.362   3.287
13585TIP3    H164734   5.533   7.292   3.263
13585TIP3    H264735   5.633   7.325   3.369
13586TIP3   OH264736   5.559   6.776   2.308
13586TIP3    H164737   5.648   6.812   2.323
13586TIP3    H264738   5.559   6.701   2.371
13587TIP3   OH264739   5.596   6.580   2.494
13587TIP3    H164740   5.520   6.532   2.534
13587TIP3    H264741   5.657   6.591   2.570
13588TIP3   OH264742   5.569   6.847   2.984
13588TIP3    H164743   5.655   6.807   2.961
13588TIP3    H264744   5.589   6.941   2.992
13589TIP3   OH264745   5.426   7.149   3.215
13589TIP3    H164746   5.365   7.168   3.289
13589TIP3    H264747   5.371   7.096   3.154
13590TIP3   OH264748   5.627   6.563   2.134
13590TIP3    H164749   5.569   6.596   2.061
13590TIP3    H264750   5.616   6.635   2.199
13591TIP3   OH264751   5.461   6.285   1.983
13591TIP3    H164752   5.474   6.352   1.915
13591TIP3    H264753   5.447   6.202   1.934
13592TIP3   OH264754   5.378   6.428   2.553
13592TIP3    H164755   5.364   6.332   2.548
13592TIP3    H264756   5.345   6.448   2.643
13593TIP3   OH264757   3.879   6.643   2.956
13593TIP3    H164758   3.897   6.627   2.861
13593TIP3    H264759   3.964   6.618   2.997
13594TIP3   OH264760   5.388   6.034   1.898
13594TIP3    H164761   5.448   5.990   1.961
13594TIP3    H264762   5.304   5.989   1.914
13595TIP3   OH264763   5.341   6.187   2.390
13595TIP3    H164764   5.372   6.095   2.408
13595TIP3    H264765   5.424   6.227   2.363
13596TIP3   OH264766   5.409   6.242   2.939
13596TIP3    H164767   5.505   6.262   2.938
13596TIP3    H264768   5.392   6.255   3.034
13597TIP3   OH264769   5.417   6.313   3.220
13597TIP3    H164770   5.331   6.342   3.259
13597TIP3    H264771   5.461   6.400   3.202
13598TIP3   OH264772   5.417   5.913   2.401
13598TIP3    H164773   5.432   5.872   2.489
13598TIP3    H264774   5.353   5.852   2.358
13599TIP3   OH264775   3.962   5.996   2.857
13599TIP3    H164776   4.007   5.912   2.883
13599TIP3    H264777   4.018   6.065   2.896
13600TIP3   OH264778   3.788   6.291   2.961
13600TIP3    H164779   3.846   6.270   2.885
13600TIP3    H264780   3.831   6.373   2.991
13601TIP3   OH264781   5.596   5.916   2.060
13601TIP3    H164782   5.633   5.847   2.001
13601TIP3    H264783   5.664   5.985   2.059
13602TIP3   OH264784   3.826   5.924   2.370
13602TIP3    H164785   3.732   5.939   2.353
13602TIP3    H264786   3.867   5.971   2.296
13603TIP3   OH264787   5.301   7.414   2.566
13603TIP3    H164788   5.368   7.389   2.500
13603TIP3    H264789   5.351   7.470   2.627
13604TIP3   OH264790   3.823   5.793   3.204
13604TIP3    H164791   3.749   5.770   3.263
13604TIP3    H264792   3.775   5.856   3.145
13605TIP3   OH264793   4.069   7.515   3.232
13605TIP3    H164794   4.008   7.585   3.200
13605TIP3    H264795   4.049   7.513   3.326
13606TIP3   OH264796   4.326   7.501   3.153
13606TIP3    H164797   4.236   7.500   3.189
13606TIP3    H264798   4.316   7.548   3.068
13607TIP3   OH264799   4.795   7.480   3.070
13607TIP3    H164800   4.750   7.530   2.999
13607TIP3    H264801   4.806   7.548   3.138
13608TIP3   OH264802   5.018   7.365   3.171
13608TIP3    H164803   4.937   7.389   3.123
13608TIP3    H264804   5.073   7.443   3.154
13609TIP3   OH264805   5.268   7.522   3.188
13609TIP3    H164806   5.279   7.617   3.164
13609TIP3    H264807   5.303   7.481   3.106
13610TIP3   OH264808   4.025   7.394   2.934
13610TIP3    H164809   4.020   7.352   3.022
13610TIP3    H264810   4.107   7.356   2.896
13611TIP3   OH264811   4.231   7.266   2.801
13611TIP3    H164812   4.215   7.173   2.826
13611TIP3    H264813   4.317   7.282   2.845
13612TIP3   OH264814   4.493   7.315   2.890
13612TIP3    H164815   4.506   7.222   2.865
13612TIP3    H264816   4.494   7.307   2.987
13613TIP3   OH264817   4.839   5.881   2.804
13613TIP3    H164818   4.770   5.818   2.832
13613TIP3    H264819   4.891   5.827   2.744
13614TIP3   OH264820   5.350   5.687   2.812
13614TIP3    H164821   5.411   5.745   2.760
13614TIP3    H264822   5.261   5.721   2.786
13615TIP3   OH264823   5.515   5.811   2.637
13615TIP3    H164824   5.583   5.751   2.598
13615TIP3    H264825   5.566   5.894   2.650
13616TIP3   OH264826   4.075   5.743   2.588
13616TIP3    H164827   3.995   5.725   2.535
13616TIP3    H264828   4.119   5.656   2.582
13617TIP3   OH264829   3.950   5.718   2.159
13617TIP3    H164830   4.000   5.783   2.106
13617TIP3    H264831   3.894   5.776   2.214
13618TIP3   OH264832   4.519   5.735   2.567
13618TIP3    H164833   4.609   5.771   2.558
13618TIP3    H264834   4.518   5.714   2.660
13619TIP3   OH264835   5.093   5.737   2.731
13619TIP3    H164836   5.087   5.749   2.635
13619TIP3    H264837   5.053   5.648   2.743
13620TIP3   OH264838   5.218   5.740   2.297
13620TIP3    H164839   5.143   5.799   2.282
13620TIP3    H264840   5.175   5.655   2.321
13621TIP3   OH264841   3.941   7.313   2.264
13621TIP3    H164842   3.875   7.311   2.193
13621TIP3    H264843   3.941   7.409   2.280
13622TIP3   OH264844   4.132   5.912   2.011
13622TIP3    H164845   4.186   5.851   1.959
13622TIP3    H264846   4.199   5.945   2.074
13623TIP3   OH264847   4.635   5.936   2.251
13623TIP3    H164848   4.661   5.879   2.325
13623TIP3    H264849   4.644   6.024   2.296
13624TIP3   OH264850   4.829   7.445   2.095
13624TIP3    H164851   4.922   7.466   2.074
13624TIP3    H264852   4.807   7.391   2.016
13625TIP3   OH264853   5.498   7.393   2.370
13625TIP3    H164854   5.479   7.316   2.311
13625TIP3    H264855   5.493   7.468   2.306
13626TIP3   OH264856   4.123   7.418   1.956
13626TIP3    H164857   4.094   7.437   2.046
13626TIP3    H264858   4.198   7.356   1.971
13627TIP3   OH264859   6.869   6.658   2.571
13627TIP3    H164860   6.866   6.756   2.572
13627TIP3    H264861   6.795   6.635   2.513
13628TIP3   OH264862   6.752   6.583   2.926
13628TIP3    H164863   6.753   6.513   2.993
13628TIP3    H264864   6.719   6.535   2.848
13629TIP3   OH264865   5.988   6.551   3.081
13629TIP3    H164866   6.009   6.488   3.148
13629TIP3    H264867   6.061   6.614   3.096
13630TIP3   OH264868   7.119   6.880   2.751
13630TIP3    H164869   7.082   6.806   2.800
13630TIP3    H264870   7.127   6.947   2.822
13631TIP3   OH264871   6.078   6.995   2.927
13631TIP3    H164872   6.051   6.906   2.896
13631TIP3    H264873   6.174   6.978   2.931
13632TIP3   OH264874   5.745   6.348   2.478
13632TIP3    H164875   5.704   6.437   2.472
13632TIP3    H264876   5.687   6.298   2.419
13633TIP3   OH264877   5.816   6.577   2.694
13633TIP3    H164878   5.842   6.492   2.735
13633TIP3    H264879   5.883   6.586   2.625
13634TIP3   OH264880   6.831   7.395   2.780
13634TIP3    H164881   6.897   7.328   2.748
13634TIP3    H264882   6.812   7.358   2.867
13635TIP3   OH264883   6.589   6.817   2.978
13635TIP3    H164884   6.622   6.763   2.904
13635TIP3    H264885   6.674   6.843   3.018
13636TIP3   OH264886   7.454   5.986   3.048
13636TIP3    H164887   7.462   6.053   3.116
13636TIP3    H264888   7.507   6.028   2.978
13637TIP3   OH264889   6.901   6.267   3.005
13637TIP3    H164890   6.926   6.173   3.004
13637TIP3    H264891   6.899   6.282   2.908
13638TIP3   OH264892   6.216   6.078   2.723
13638TIP3    H164893   6.232   6.162   2.675
13638TIP3    H264894   6.182   6.021   2.653
13639TIP3   OH264895   6.992   6.086   2.561
13639TIP3    H164896   7.056   6.054   2.628
13639TIP3    H264897   7.049   6.144   2.509
13640TIP3   OH264898   5.879   6.319   2.797
13640TIP3    H164899   5.948   6.266   2.841
13640TIP3    H264900   5.892   6.290   2.705
13641TIP3   OH264901   6.396   6.475   2.731
13641TIP3    H164902   6.465   6.417   2.768
13641TIP3    H264903   6.345   6.410   2.679
13642TIP3   OH264904   6.113   5.975   3.126
13642TIP3    H164905   6.081   6.024   3.048
13642TIP3    H264906   6.041   5.985   3.190
13643TIP3   OH264907   6.837   6.916   2.481
13643TIP3    H164908   6.812   6.889   2.392
13643TIP3    H264909   6.808   7.009   2.487
13644TIP3   OH264910   6.349   6.729   3.137
13644TIP3    H164911   6.287   6.796   3.171
13644TIP3    H264912   6.426   6.786   3.119
13645TIP3   OH264913   7.172   6.021   2.759
13645TIP3    H164914   7.153   5.945   2.815
13645TIP3    H264915   7.241   6.065   2.812
13646TIP3   OH264916   6.066   6.156   2.930
13646TIP3    H164917   6.131   6.223   2.958
13646TIP3    H264918   6.118   6.112   2.857
13647TIP3   OH264919   6.202   6.934   3.239
13647TIP3    H164920   6.196   7.019   3.191
13647TIP3    H264921   6.114   6.919   3.277
13648TIP3   OH264922   5.811   6.893   2.313
13648TIP3    H164923   5.789   6.928   2.225
13648TIP3    H264924   5.824   6.976   2.362
13649TIP3   OH264925   7.173   7.060   2.978
13649TIP3    H164926   7.080   7.073   3.003
13649TIP3    H264927   7.204   7.152   2.975
13650TIP3   OH264928   7.206   5.891   3.139
13650TIP3    H164929   7.133   5.949   3.113
13650TIP3    H264930   7.277   5.927   3.083
13651TIP3   OH264931   6.502   5.702   2.871
13651TIP3    H164932   6.487   5.605   2.867
13651TIP3    H264933   6.415   5.732   2.905
13652TIP3   OH264934   6.999   7.241   2.646
13652TIP3    H164935   7.043   7.168   2.598
13652TIP3    H264936   7.046   7.318   2.608
13653TIP3   OH264937   7.123   7.032   2.500
13653TIP3    H164938   7.092   6.963   2.439
13653TIP3    H264939   7.125   6.983   2.584
13654TIP3   OH264940   6.733   6.581   2.325
13654TIP3    H164941   6.665   6.639   2.288
13654TIP3    H264942   6.804   6.590   2.259
13655TIP3   OH264943   6.742   6.439   2.025
13655TIP3    H164944   6.812   6.437   2.092
13655TIP3    H264945   6.772   6.366   1.970
13656TIP3   OH264946   7.470   6.518   3.145
13656TIP3    H164947   7.414   6.596   3.166
13656TIP3    H264948   7.523   6.553   3.072
13657TIP3   OH264949   7.080   6.601   2.416
13657TIP3    H164950   7.005   6.626   2.476
13657TIP3    H264951   7.127   6.534   2.470
13658TIP3   OH264952   7.066   6.419   3.333
13658TIP3    H164953   7.073   6.503   3.381
13658TIP3    H264954   7.010   6.448   3.258
13659TIP3   OH264955   6.238   6.666   2.609
13659TIP3    H164956   6.207   6.629   2.523
13659TIP3    H264957   6.301   6.599   2.641
13660TIP3   OH264958   6.370   7.005   2.877
13660TIP3    H164959   6.371   6.954   2.795
13660TIP3    H264960   6.450   6.972   2.920
13661TIP3   OH264961   6.275   6.535   2.977
13661TIP3    H164962   6.325   6.551   2.894
13661TIP3    H264963   6.307   6.611   3.032
13662TIP3   OH264964   6.910   7.100   3.048
13662TIP3    H164965   6.888   7.165   3.116
13662TIP3    H264966   6.891   7.014   3.088
13663TIP3   OH264967   6.369   6.995   3.437
13663TIP3    H164968   6.330   7.054   3.503
13663TIP3    H264969   6.295   6.963   3.380
13664TIP3   OH264970   6.967   6.523   2.183
13664TIP3    H164971   7.022   6.540   2.263
13664TIP3    H264972   7.012   6.572   2.111
13665TIP3   OH264973   6.059   6.621   3.348
13665TIP3    H164974   6.064   6.664   3.435
13665TIP3    H264975   5.964   6.619   3.337
13666TIP3   OH264976   6.736   7.194   2.531
13666TIP3    H164977   6.780   7.225   2.611
13666TIP3    H264978   6.682   7.269   2.506
13667TIP3   OH264979   7.340   5.695   2.175
13667TIP3    H164980   7.245   5.705   2.198
13667TIP3    H264981   7.359   5.779   2.130
13668TIP3   OH264982   6.135   6.569   2.373
13668TIP3    H164983   6.107   6.647   2.320
13668TIP3    H264984   6.070   6.502   2.346
13669TIP3   OH264985   7.451   7.129   2.010
13669TIP3    H164986   7.467   7.224   2.026
13669TIP3    H264987   7.543   7.098   2.010
13670TIP3   OH264988   5.758   6.807   3.242
13670TIP3    H164989   5.692   6.808   3.172
13670TIP3    H264990   5.740   6.721   3.280
13671TIP3   OH264991   5.734   7.089   2.948
13671TIP3    H164992   5.831   7.077   2.944
13671TIP3    H264993   5.728   7.169   3.003
13672TIP3   OH264994   6.635   7.127   3.383
13672TIP3    H164995   6.655   7.192   3.453
13672TIP3    H264996   6.563   7.073   3.422
13673TIP3   OH264997   6.684   7.484   2.370
13673TIP3    H164998   6.674   7.478   2.274
13673TIP3    H264999   6.683   7.580   2.388
13674TIP3   OH265000   6.050   7.374   2.555
13674TIP3    H165001   6.066   7.333   2.643
13674TIP3    H265002   5.965   7.332   2.530
13675TIP3   OH265003   6.991   7.406   2.069
13675TIP3    H165004   7.037   7.331   2.027
13675TIP3    H265005   6.995   7.381   2.164
13676TIP3   OH265006   6.960   7.402   2.347
13676TIP3    H165007   6.864   7.407   2.364
13676TIP3    H265008   6.984   7.327   2.405
13677TIP3   OH265009   6.241   5.795   2.943
13677TIP3    H165010   6.149   5.779   2.914
13677TIP3    H265011   6.229   5.874   2.998
13678TIP3   OH265012   6.703   5.766   3.287
13678TIP3    H165013   6.739   5.723   3.367
13678TIP3    H265014   6.606   5.745   3.303
13679TIP3   OH265015   7.111   6.626   1.967
13679TIP3    H165016   7.108   6.607   1.871
13679TIP3    H265017   7.197   6.670   1.971
13680TIP3   OH265018   6.670   6.018   2.016
13680TIP3    H165019   6.638   6.011   2.108
13680TIP3    H265020   6.640   5.931   1.985
13681TIP3   OH265021   6.252   6.291   3.079
13681TIP3    H165022   6.176   6.287   3.137
13681TIP3    H265023   6.250   6.380   3.035
13682TIP3   OH265024   6.248   6.296   2.561
13682TIP3    H165025   6.154   6.278   2.547
13682TIP3    H265026   6.287   6.273   2.474
13683TIP3   OH265027   6.801   6.352   2.439
13683TIP3    H165028   6.762   6.434   2.401
13683TIP3    H265029   6.869   6.333   2.372
13684TIP3   OH265030   6.905   6.301   2.723
13684TIP3    H165031   6.875   6.357   2.650
13684TIP3    H265032   6.913   6.216   2.676
13685TIP3   OH265033   6.351   6.053   1.928
13685TIP3    H165034   6.304   6.012   2.004
13685TIP3    H265035   6.280   6.098   1.879
13686TIP3   OH265036   5.681   6.026   2.642
13686TIP3    H165037   5.747   6.021   2.715
13686TIP3    H265038   5.721   5.989   2.564
13687TIP3   OH265039   5.809   6.098   2.182
13687TIP3    H165040   5.858   6.155   2.119
13687TIP3    H265041   5.738   6.162   2.204
13688TIP3   OH265042   6.815   6.458   3.181
13688TIP3    H165043   6.861   6.395   3.120
13688TIP3    H265044   6.784   6.399   3.249
13689TIP3   OH265045   6.505   6.058   2.663
13689TIP3    H165046   6.412   6.057   2.693
13689TIP3    H265047   6.553   6.038   2.745
13690TIP3   OH265048   5.981   6.207   2.552
13690TIP3    H165049   5.897   6.231   2.507
13690TIP3    H265050   6.018   6.133   2.504
13691TIP3   OH265051   6.346   6.215   2.312
13691TIP3    H165052   6.442   6.226   2.327
13691TIP3    H265053   6.324   6.284   2.246
13692TIP3   OH265054   6.943   5.983   2.989
13692TIP3    H165055   6.872   5.983   3.057
13692TIP3    H265056   6.897   5.955   2.909
13693TIP3   OH265057   6.220   6.334   2.070
13693TIP3    H165058   6.166   6.296   1.998
13693TIP3    H265059   6.302   6.355   2.022
13694TIP3   OH265060   6.632   6.332   2.853
13694TIP3    H165061   6.690   6.281   2.795
13694TIP3    H265062   6.618   6.274   2.928
13695TIP3   OH265063   6.131   5.940   2.488
13695TIP3    H165064   6.129   5.843   2.499
13695TIP3    H265065   6.216   5.946   2.441
13696TIP3   OH265066   6.495   6.162   3.091
13696TIP3    H165067   6.413   6.216   3.094
13696TIP3    H265068   6.553   6.200   3.156
13697TIP3   OH265069   6.555   6.787   2.262
13697TIP3    H165070   6.474   6.741   2.228
13697TIP3    H265071   6.531   6.801   2.356
13698TIP3   OH265072   7.271   6.701   3.142
13698TIP3    H165073   7.332   6.757   3.089
13698TIP3    H265074   7.189   6.711   3.092
13699TIP3   OH265075   6.936   6.068   2.080
13699TIP3    H165076   6.842   6.084   2.066
13699TIP3    H265077   6.971   6.153   2.115
13700TIP3   OH265078   7.010   6.262   2.240
13700TIP3    H165079   7.098   6.248   2.283
13700TIP3    H265080   7.022   6.344   2.190
13701TIP3   OH265081   6.065   6.726   2.845
13701TIP3    H165082   6.133   6.719   2.775
13701TIP3    H265083   6.071   6.639   2.886
13702TIP3   OH265084   6.763   6.934   2.165
13702TIP3    H165085   6.729   7.018   2.200
13702TIP3    H265086   6.690   6.872   2.188
13703TIP3   OH265087   6.923   7.045   3.392
13703TIP3    H165088   6.838   7.081   3.363
13703TIP3    H265089   6.931   7.090   3.478
13704TIP3   OH265090   7.499   6.273   2.221
13704TIP3    H165091   7.443   6.246   2.145
13704TIP3    H265092   7.509   6.368   2.196
13705TIP3   OH265093   7.326   7.157   2.258
13705TIP3    H165094   7.293   7.074   2.294
13705TIP3    H265095   7.363   7.135   2.171
13706TIP3   OH265096   7.048   6.638   2.970
13706TIP3    H165097   6.955   6.615   2.953
13706TIP3    H265098   7.095   6.563   2.929
13707TIP3   OH265099   6.301   7.073   2.583
13707TIP3    H165100   6.352   7.153   2.560
13707TIP3    H265101   6.215   7.095   2.547
13708TIP3   OH265102   5.880   6.556   2.038
13708TIP3    H165103   5.938   6.622   2.080
13708TIP3    H265104   5.791   6.587   2.062
13709TIP3   OH265105   6.443   6.839   2.530
13709TIP3    H165106   6.412   6.931   2.540
13709TIP3    H265107   6.373   6.789   2.576
13710TIP3   OH265108   6.490   7.258   3.174
13710TIP3    H165109   6.538   7.336   3.145
13710TIP3    H265110   6.554   7.219   3.237
13711TIP3   OH265111   6.312   7.337   2.485
13711TIP3    H165112   6.216   7.350   2.500
13711TIP3    H265113   6.349   7.421   2.518
13712TIP3   OH265114   6.836   6.850   3.129
13712TIP3    H165115   6.827   6.851   3.225
13712TIP3    H265116   6.912   6.789   3.115
13713TIP3   OH265117   7.077   6.966   2.044
13713TIP3    H165118   7.106   6.917   2.124
13713TIP3    H265119   6.981   6.946   2.051
13714TIP3   OH265120   7.118   7.317   3.382
13714TIP3    H165121   7.053   7.267   3.332
13714TIP3    H265122   7.141   7.389   3.321
13715TIP3   OH265123   7.520   7.398   2.068
13715TIP3    H165124   7.590   7.463   2.047
13715TIP3    H265125   7.450   7.460   2.098
13716TIP3   OH265126   7.153   6.828   2.268
13716TIP3    H165127   7.129   6.749   2.322
13716TIP3    H265128   7.248   6.832   2.285
13717TIP3   OH265129   5.896   7.218   3.162
13717TIP3    H165130   5.917   7.124   3.166
13717TIP3    H265131   5.911   7.251   3.253
13718TIP3   OH265132   6.489   7.072   1.894
13718TIP3    H165133   6.498   6.996   1.835
13718TIP3    H265134   6.443   7.029   1.969
13719TIP3   OH265135   6.363   7.025   2.140
13719TIP3    H165136   6.394   6.973   2.216
13719TIP3    H265137   6.375   7.117   2.172
13720TIP3   OH265138   6.020   6.749   2.187
13720TIP3    H165139   5.948   6.789   2.241
13720TIP3    H265140   6.070   6.827   2.157
13721TIP3   OH265141   6.790   6.023   3.225
13721TIP3    H165142   6.869   6.021   3.279
13721TIP3    H265143   6.761   5.929   3.235
13722TIP3   OH265144   6.876   5.974   2.328
13722TIP3    H165145   6.900   6.019   2.245
13722TIP3    H265146   6.934   6.018   2.391
13723TIP3   OH265147   6.646   7.190   2.208
13723TIP3    H165148   6.564   7.244   2.216
13723TIP3    H265149   6.700   7.246   2.150
13724TIP3   OH265150   6.600   6.149   2.410
13724TIP3    H165151   6.678   6.208   2.415
13724TIP3    H265152   6.573   6.136   2.503
13725TIP3   OH265153   6.684   5.855   2.497
13725TIP3    H165154   6.652   5.919   2.562
13725TIP3    H265155   6.754   5.909   2.454
13726TIP3   OH265156   6.387   7.293   2.212
13726TIP3    H165157   6.395   7.375   2.156
13726TIP3    H265158   6.359   7.331   2.298
13727TIP3   OH265159   6.248   5.965   2.174
13727TIP3    H165160   6.247   6.057   2.207
13727TIP3    H265161   6.342   5.942   2.192
13728TIP3   OH265162   7.135   6.418   2.810
13728TIP3    H165163   7.051   6.373   2.787
13728TIP3    H265164   7.183   6.351   2.864
13729TIP3   OH265165   6.074   7.010   2.073
13729TIP3    H165166   6.141   7.072   2.105
13729TIP3    H265167   6.126   6.963   2.005
13730TIP3   OH265168   5.908   6.277   1.988
13730TIP3    H165169   5.911   6.373   2.009
13730TIP3    H265170   5.818   6.262   1.956
13731TIP3   OH265171   7.242   7.341   2.979
13731TIP3    H165172   7.230   7.412   2.912
13731TIP3    H265173   7.337   7.350   2.997
13732TIP3   OH265174   5.989   5.756   2.866
13732TIP3    H165175   5.972   5.754   2.770
13732TIP3    H265176   5.950   5.669   2.891
13733TIP3   OH265177   5.883   7.151   2.480
13733TIP3    H165178   5.799   7.196   2.466
13733TIP3    H265179   5.933   7.191   2.408
13734TIP3   OH265180   6.689   7.257   1.906
13734TIP3    H165181   6.619   7.191   1.927
13734TIP3    H265182   6.760   7.197   1.881
13735TIP3   OH265183   7.144   7.231   1.925
13735TIP3    H165184   7.173   7.153   1.975
13735TIP3    H265185   7.220   7.252   1.869
13736TIP3   OH265186   6.232   6.825   1.905
13736TIP3    H165187   6.246   6.750   1.964
13736TIP3    H265188   6.308   6.814   1.844
13737TIP3   OH265189   6.776   6.937   1.884
13737TIP3    H165190   6.749   6.944   1.977
13737TIP3    H265191   6.757   6.841   1.869
13738TIP3   OH265192   7.030   6.779   3.372
13738TIP3    H165193   7.114   6.828   3.374
13738TIP3    H265194   6.971   6.852   3.395
13739TIP3   OH265195   6.352   6.627   2.151
13739TIP3    H165196   6.301   6.573   2.212
13739TIP3    H265197   6.383   6.560   2.085
13740TIP3   OH265198   6.282   6.407   3.372
13740TIP3    H165199   6.226   6.477   3.413
13740TIP3    H265200   6.315   6.452   3.293
13741TIP3   OH265201   6.460   6.450   1.969
13741TIP3    H165202   6.446   6.442   1.872
13741TIP3    H265203   6.558   6.454   1.976
13742TIP3   OH265204   7.391   6.681   1.910
13742TIP3    H165205   7.374   6.644   1.822
13742TIP3    H265206   7.401   6.777   1.892
13743TIP3   OH265207   6.359   5.993   3.243
13743TIP3    H165208   6.409   6.026   3.165
13743TIP3    H265209   6.272   5.971   3.202
13744TIP3   OH265210   6.441   5.731   3.267
13744TIP3    H165211   6.417   5.825   3.272
13744TIP3    H265212   6.361   5.688   3.234
13745TIP3   OH265213   6.442   7.518   2.078
13745TIP3    H165214   6.539   7.529   2.085
13745TIP3    H265215   6.428   7.577   2.003
13746TIP3   OH265216   5.797   6.975   2.025
13746TIP3    H165217   5.894   6.986   2.042
13746TIP3    H265218   5.802   6.912   1.949
13747TIP3   OH265219   5.679   7.512   2.520
13747TIP3    H165220   5.605   7.466   2.474
13747TIP3    H265221   5.705   7.448   2.588
13748TIP3   OH265222   5.755   7.331   2.709
13748TIP3    H165223   5.735   7.240   2.729
13748TIP3    H265224   5.789   7.364   2.795
13749TIP3   OH265225   7.509   7.410   3.003
13749TIP3    H165226   7.516   7.427   3.098
13749TIP3    H265227   7.582   7.464   2.969
13750TIP3   OH265228   7.447   6.774   2.305
13750TIP3    H165229   7.533   6.812   2.324
13750TIP3    H265230   7.444   6.702   2.372
13751TIP3   OH265231   7.480   6.581   2.494
13751TIP3    H165232   7.405   6.532   2.535
13751TIP3    H265233   7.541   6.592   2.570
13752TIP3   OH265234   7.450   6.848   2.979
13752TIP3    H165235   7.538   6.809   2.965
13752TIP3    H265236   7.472   6.943   2.976
13753TIP3   OH265237   7.514   6.564   2.133
13753TIP3    H165238   7.455   6.596   2.061
13753TIP3    H265239   7.502   6.634   2.199
13754TIP3   OH265240   7.351   6.285   1.984
13754TIP3    H165241   7.357   6.352   1.915
13754TIP3    H265242   7.331   6.203   1.935
13755TIP3   OH265243   7.263   6.427   2.553
13755TIP3    H165244   7.250   6.332   2.548
13755TIP3    H265245   7.233   6.447   2.644
13756TIP3   OH265246   5.764   6.639   2.958
13756TIP3    H165247   5.782   6.628   2.862
13756TIP3    H265248   5.854   6.621   2.994
13757TIP3   OH265249   7.275   6.033   1.898
13757TIP3    H165250   7.333   5.989   1.962
13757TIP3    H265251   7.188   5.992   1.913
13758TIP3   OH265252   7.228   6.186   2.392
13758TIP3    H165253   7.259   6.094   2.409
13758TIP3    H265254   7.311   6.227   2.363
13759TIP3   OH265255   7.294   6.239   2.939
13759TIP3    H165256   7.390   6.264   2.940
13759TIP3    H265257   7.275   6.253   3.034
13760TIP3   OH265258   7.294   6.311   3.211
13760TIP3    H165259   7.214   6.347   3.254
13760TIP3    H265260   7.351   6.393   3.202
13761TIP3   OH265261   7.296   5.916   2.402
13761TIP3    H165262   7.320   5.873   2.487
13761TIP3    H265263   7.239   5.850   2.359
13762TIP3   OH265264   5.852   5.996   2.851
13762TIP3    H165265   5.890   5.913   2.887
13762TIP3    H265266   5.901   6.064   2.898
13763TIP3   OH265267   5.680   6.291   2.968
13763TIP3    H165268   5.727   6.269   2.885
13763TIP3    H265269   5.717   6.378   2.984
13764TIP3   OH265270   7.479   5.919   2.057
13764TIP3    H165271   7.521   5.847   2.004
13764TIP3    H265272   7.549   5.985   2.063
13765TIP3   OH265273   5.718   5.927   2.370
13765TIP3    H165274   5.621   5.934   2.357
13765TIP3    H265275   5.747   5.974   2.289
13766TIP3   OH265276   7.184   7.417   2.565
13766TIP3    H165277   7.252   7.386   2.502
13766TIP3    H265278   7.237   7.465   2.630
13767TIP3   OH265279   5.706   5.789   3.196
13767TIP3    H165280   5.645   5.765   3.267
13767TIP3    H265281   5.657   5.855   3.145
13768TIP3   OH265282   5.957   7.522   3.249
13768TIP3    H165283   5.893   7.580   3.202
13768TIP3    H265284   5.919   7.519   3.338
13769TIP3   OH265285   6.207   7.484   3.145
13769TIP3    H165286   6.122   7.509   3.186
13769TIP3    H265287   6.208   7.547   3.071
13770TIP3   OH265288   6.682   7.482   3.065
13770TIP3    H165289   6.633   7.533   2.998
13770TIP3    H265290   6.689   7.543   3.139
13771TIP3   OH265291   6.907   7.362   3.168
13771TIP3    H165292   6.823   7.389   3.129
13771TIP3    H265293   6.959   7.444   3.157
13772TIP3   OH265294   7.161   7.517   3.185
13772TIP3    H165295   7.164   7.614   3.167
13772TIP3    H265296   7.193   7.479   3.102
13773TIP3   OH265297   5.905   7.390   2.932
13773TIP3    H165298   5.903   7.356   3.024
13773TIP3    H265299   5.993   7.360   2.899
13774TIP3   OH265300   6.113   7.266   2.801
13774TIP3    H165301   6.103   7.172   2.823
13774TIP3    H265302   6.200   7.284   2.844
13775TIP3   OH265303   6.373   7.314   2.887
13775TIP3    H165304   6.392   7.221   2.863
13775TIP3    H265305   6.382   7.311   2.984
13776TIP3   OH265306   6.721   5.880   2.801
13776TIP3    H165307   6.654   5.816   2.831
13776TIP3    H265308   6.779   5.826   2.747
13777TIP3   OH265309   7.237   5.684   2.808
13777TIP3    H165310   7.298   5.745   2.759
13777TIP3    H265311   7.148   5.720   2.788
13778TIP3   OH265312   7.402   5.812   2.633
13778TIP3    H165313   7.472   5.753   2.594
13778TIP3    H265314   7.454   5.894   2.647
13779TIP3   OH265315   5.954   5.730   2.596
13779TIP3    H165316   5.873   5.699   2.550
13779TIP3    H265317   6.006   5.646   2.590
13780TIP3   OH265318   5.846   5.720   2.171
13780TIP3    H165319   5.884   5.781   2.104
13780TIP3    H265320   5.773   5.774   2.207
13781TIP3   OH265321   6.402   5.740   2.568
13781TIP3    H165322   6.494   5.770   2.556
13781TIP3    H265323   6.405   5.712   2.660
13782TIP3   OH265324   6.978   5.737   2.731
13782TIP3    H165325   6.973   5.749   2.635
13782TIP3    H265326   6.940   5.647   2.741
13783TIP3   OH265327   7.104   5.740   2.297
13783TIP3    H165328   7.029   5.799   2.282
13783TIP3    H265329   7.061   5.655   2.322
13784TIP3   OH265330   5.827   7.313   2.264
13784TIP3    H165331   5.761   7.311   2.192
13784TIP3    H265332   5.827   7.409   2.280
13785TIP3   OH265333   6.017   5.910   2.016
13785TIP3    H165334   6.069   5.853   1.957
13785TIP3    H265335   6.087   5.946   2.073
13786TIP3   OH265336   6.519   5.937   2.251
13786TIP3    H165337   6.546   5.879   2.325
13786TIP3    H265338   6.529   6.024   2.296
13787TIP3   OH265339   6.715   7.445   2.095
13787TIP3    H165340   6.807   7.466   2.074
13787TIP3    H265341   6.693   7.391   2.016
13788TIP3   OH265342   7.384   7.394   2.369
13788TIP3    H165343   7.364   7.315   2.312
13788TIP3    H265344   7.380   7.467   2.303
13789TIP3   OH265345   6.006   7.412   1.957
13789TIP3    H165346   5.980   7.438   2.047
13789TIP3    H265347   6.084   7.356   1.973
13790TIP3   OH265348   7.873   6.555   3.078
13790TIP3    H165349   7.882   6.481   3.141
13790TIP3    H265350   7.953   6.605   3.100
13791TIP3   OH265351   7.947   6.982   2.942
13791TIP3    H165352   7.931   6.898   2.896
13791TIP3    H265353   8.045   6.985   2.937
13792TIP3   OH265354   7.627   6.350   2.477
13792TIP3    H165355   7.586   6.438   2.471
13792TIP3    H265356   7.569   6.296   2.421
13793TIP3   OH265357   7.702   6.573   2.690
13793TIP3    H165358   7.729   6.493   2.738
13793TIP3    H265359   7.773   6.583   2.625
13794TIP3   OH265360   7.762   6.317   2.796
13794TIP3    H165361   7.833   6.268   2.844
13794TIP3    H265362   7.781   6.288   2.706
13795TIP3   OH265363   7.972   5.962   3.123
13795TIP3    H165364   7.966   6.030   3.052
13795TIP3    H265365   7.918   6.001   3.193
13796TIP3   OH265366   7.939   6.137   2.922
13796TIP3    H165367   7.993   6.211   2.962
13796TIP3    H265368   7.998   6.110   2.850
13797TIP3   OH265369   8.075   6.964   3.224
13797TIP3    H165370   8.068   7.056   3.198
13797TIP3    H265371   7.993   6.948   3.277
13798TIP3   OH265372   7.705   6.895   2.312
13798TIP3    H165373   7.674   6.927   2.226
13798TIP3    H265374   7.706   6.977   2.365
13799TIP3   OH265375   8.019   6.573   2.366
13799TIP3    H165376   7.990   6.653   2.319
13799TIP3    H265377   7.951   6.508   2.346
13800TIP3   OH265378   7.607   7.091   2.937
13800TIP3    H165379   7.702   7.074   2.935
13800TIP3    H265380   7.601   7.170   2.992
13801TIP3   OH265381   7.923   7.364   2.556
13801TIP3    H165382   7.940   7.326   2.645
13801TIP3    H265383   7.837   7.324   2.536
13802TIP3   OH265384   7.852   6.946   3.358
13802TIP3    H165385   7.872   6.912   3.449
13802TIP3    H265386   7.765   6.905   3.343
13803TIP3   OH265387   7.876   6.294   3.196
13803TIP3    H165388   7.911   6.349   3.269
13803TIP3    H265389   7.851   6.217   3.248
13804TIP3   OH265390   7.563   6.023   2.642
13804TIP3    H165391   7.632   6.020   2.711
13804TIP3    H265392   7.611   5.989   2.563
13805TIP3   OH265393   7.688   6.097   2.177
13805TIP3    H165394   7.741   6.157   2.122
13805TIP3    H265395   7.619   6.160   2.207
13806TIP3   OH265396   7.866   6.216   2.547
13806TIP3    H165397   7.778   6.224   2.507
13806TIP3    H265398   7.899   6.129   2.517
13807TIP3   OH265399   7.969   5.941   2.475
13807TIP3    H165400   7.964   5.847   2.502
13807TIP3    H265401   8.065   5.949   2.468
13808TIP3   OH265402   7.946   6.727   2.835
13808TIP3    H165403   8.024   6.721   2.778
13808TIP3    H265404   7.954   6.645   2.889
13809TIP3   OH265405   7.771   6.555   2.039
13809TIP3    H165406   7.823   6.625   2.081
13809TIP3    H265407   7.679   6.583   2.060
13810TIP3   OH265408   7.811   6.045   3.327
13810TIP3    H165409   7.722   6.079   3.317
13810TIP3    H265410   7.801   5.962   3.373
13811TIP3   OH265411   7.788   7.221   3.164
13811TIP3    H165412   7.799   7.124   3.167
13811TIP3    H265413   7.805   7.245   3.255
13812TIP3   OH265414   7.907   6.751   2.183
13812TIP3    H165415   7.835   6.786   2.240
13812TIP3    H265416   7.956   6.832   2.163
13813TIP3   OH265417   7.957   7.012   2.067
13813TIP3    H165418   8.022   7.073   2.107
13813TIP3    H265419   8.016   6.966   2.007
13814TIP3   OH265420   7.796   6.275   1.994
13814TIP3    H165421   7.797   6.372   2.004
13814TIP3    H265422   7.709   6.259   1.956
13815TIP3   OH265423   7.875   5.757   2.863
13815TIP3    H165424   7.862   5.760   2.767
13815TIP3    H265425   7.836   5.671   2.887
13816TIP3   OH265426   7.765   7.148   2.476
13816TIP3    H165427   7.681   7.196   2.471
13816TIP3    H265428   7.817   7.192   2.409
13817TIP3   OH265429   7.686   6.977   2.023
13817TIP3    H165430   7.782   6.987   2.041
13817TIP3    H265431   7.690   6.912   1.948
13818TIP3   OH265432   7.564   7.514   2.517
13818TIP3    H165433   7.490   7.465   2.475
13818TIP3    H265434   7.592   7.450   2.587
13819TIP3   OH265435   7.644   7.327   2.704
13819TIP3    H165436   7.609   7.240   2.727
13819TIP3    H265437   7.672   7.360   2.792
13820TIP3   OH265438   7.649   6.643   2.950
13820TIP3    H165439   7.674   6.627   2.857
13820TIP3    H265440   7.731   6.618   2.997
13821TIP3   OH265441   7.727   5.995   2.862
13821TIP3    H165442   7.780   5.914   2.879
13821TIP3    H265443   7.790   6.064   2.892
13822TIP3   OH265444   7.556   6.292   2.958
13822TIP3    H165445   7.618   6.270   2.886
13822TIP3    H265446   7.601   6.372   2.992
13823TIP3   OH265447   7.596   5.921   2.368
13823TIP3    H165448   7.502   5.938   2.354
13823TIP3    H265449   7.637   5.972   2.296
13824TIP3   OH265450   7.588   5.788   3.203
13824TIP3    H165451   7.518   5.769   3.265
13824TIP3    H265452   7.546   5.854   3.143
13825TIP3   OH265453   7.833   7.531   3.227
13825TIP3    H165454   7.765   7.590   3.191
13825TIP3    H265455   7.800   7.516   3.316
13826TIP3   OH265456   8.076   7.456   3.124
13826TIP3    H165457   8.005   7.492   3.180
13826TIP3    H265458   8.095   7.536   3.073
13827TIP3   OH265459   7.786   7.396   2.937
13827TIP3    H165460   7.793   7.353   3.024
13827TIP3    H265461   7.869   7.362   2.898
13828TIP3   OH265462   7.981   7.266   2.817
13828TIP3    H165463   7.976   7.169   2.830
13828TIP3    H265464   8.071   7.279   2.852
13829TIP3   OH265465   7.838   5.737   2.591
13829TIP3    H165466   7.759   5.719   2.536
13829TIP3    H265467   7.891   5.656   2.586
13830TIP3   OH265468   7.720   5.719   2.156
13830TIP3    H165469   7.770   5.787   2.107
13830TIP3    H265470   7.665   5.774   2.214
13831TIP3   OH265471   7.715   7.314   2.260
13831TIP3    H165472   7.644   7.312   2.192
13831TIP3    H265473   7.715   7.410   2.278
13832TIP3   OH265474   7.902   5.907   2.019
13832TIP3    H165475   7.958   5.856   1.958
13832TIP3    H265476   7.967   5.951   2.075
13833TIP3   OH265477   7.898   7.419   1.957
13833TIP3    H165478   7.868   7.442   2.047
13833TIP3    H265479   7.968   7.356   1.975
13834TIP3   OH265480   1.807   7.870   3.046
13834TIP3    H165481   1.811   7.933   3.121
13834TIP3    H265482   1.848   7.919   2.975
13835TIP3   OH265483   0.563   7.963   2.724
13835TIP3    H165484   0.575   8.045   2.676
13835TIP3    H265485   0.527   7.904   2.654
13836TIP3   OH265486   1.339   7.967   2.553
13836TIP3    H165487   1.399   7.941   2.627
13836TIP3    H265488   1.401   8.025   2.509
13837TIP3   OH265489   1.820   8.001   3.280
13837TIP3    H165490   1.776   8.086   3.267
13837TIP3    H265491   1.852   8.004   3.370
13838TIP3   OH265492   0.455   7.841   3.133
13838TIP3    H165493   0.428   7.900   3.060
13838TIP3    H265494   0.389   7.871   3.201
13839TIP3   OH265495   1.509   7.891   2.760
13839TIP3    H165496   1.494   7.825   2.828
13839TIP3    H265497   1.570   7.953   2.806
13840TIP3   OH265498   0.424   8.003   2.945
13840TIP3    H165499   0.466   8.089   2.967
13840TIP3    H265500   0.466   7.988   2.857
13841TIP3   OH265501   1.548   7.772   3.117
13841TIP3    H165502   1.475   7.835   3.113
13841TIP3    H265503   1.622   7.816   3.074
13842TIP3   OH265504   0.848   7.587   2.869
13842TIP3    H165505   0.832   7.491   2.867
13842TIP3    H265506   0.763   7.618   2.906
13843TIP3   OH265507   1.683   7.577   2.176
13843TIP3    H165508   1.588   7.591   2.198
13843TIP3    H265509   1.703   7.661   2.131
13844TIP3   OH265510   0.587   7.679   2.946
13844TIP3    H165511   0.495   7.666   2.914
13844TIP3    H265512   0.574   7.757   3.003
13845TIP3   OH265513   1.048   7.643   3.288
13845TIP3    H165514   1.080   7.607   3.371
13845TIP3    H265515   0.949   7.635   3.302
13846TIP3   OH265516   1.363   8.012   3.361
13846TIP3    H165517   1.330   8.006   3.451
13846TIP3    H265518   1.364   8.108   3.343
13847TIP3   OH265519   1.020   7.895   2.027
13847TIP3    H165520   0.978   7.893   2.114
13847TIP3    H265521   0.982   7.815   1.986
13848TIP3   OH265522   0.692   7.934   1.926
13848TIP3    H165523   0.651   7.901   2.009
13848TIP3    H265524   0.619   7.978   1.882
13849TIP3   OH265525   0.051   7.943   2.650
13849TIP3    H165526   0.101   7.906   2.726
13849TIP3    H265527   0.062   7.875   2.584
13850TIP3   OH265528   0.134   7.953   2.159
13850TIP3    H165529   0.199   8.018   2.125
13850TIP3    H265530   0.087   8.020   2.210
13851TIP3   OH265531   0.845   7.929   2.660
13851TIP3    H165532   0.753   7.938   2.690
13851TIP3    H265533   0.898   7.924   2.741
13852TIP3   OH265534   1.289   7.863   2.991
13852TIP3    H165535   1.217   7.878   3.053
13852TIP3    H265536   1.241   7.841   2.910
13853TIP3   OH265537   0.482   7.831   2.499
13853TIP3    H165538   0.445   7.740   2.493
13853TIP3    H265539   0.556   7.826   2.438
13854TIP3   OH265540   0.840   8.032   3.083
13854TIP3    H165541   0.765   8.092   3.088
13854TIP3    H265542   0.893   8.071   3.154
13855TIP3   OH265543   1.284   7.961   2.091
13855TIP3    H165544   1.189   7.968   2.065
13855TIP3    H265545   1.311   8.052   2.108
13856TIP3   OH265546   0.274   7.920   3.321
13856TIP3    H165547   0.185   7.957   3.321
13856TIP3    H265548   0.261   7.837   3.370
13857TIP3   OH265549   1.132   7.905   3.230
13857TIP3    H165550   1.219   7.903   3.272
13857TIP3    H265551   1.105   7.810   3.234
13858TIP3   OH265552   1.210   7.867   2.331
13858TIP3    H165553   1.244   7.900   2.245
13858TIP3    H265554   1.276   7.899   2.396
13859TIP3   OH265555   0.955   8.024   2.412
13859TIP3    H165556   1.019   8.098   2.415
13859TIP3    H265557   0.915   8.025   2.501
13860TIP3   OH265558   1.030   7.741   2.501
13860TIP3    H165559   0.997   7.806   2.566
13860TIP3    H265560   1.098   7.795   2.454
13861TIP3   OH265561   0.598   7.850   2.169
13861TIP3    H165562   0.589   7.939   2.209
13861TIP3    H265563   0.690   7.826   2.193
13862TIP3   OH265564   1.595   7.878   3.353
13862TIP3    H165565   1.517   7.936   3.357
13862TIP3    H265566   1.658   7.924   3.294
13863TIP3   OH265567   0.337   7.642   2.857
13863TIP3    H165568   0.310   7.644   2.763
13863TIP3    H265569   0.295   7.557   2.886
13864TIP3   OH265570   0.705   7.863   3.234
13864TIP3    H165571   0.755   7.913   3.168
13864TIP3    H265572   0.612   7.865   3.204
13865TIP3   OH265573   0.786   7.613   3.259
13865TIP3    H165574   0.760   7.706   3.277
13865TIP3    H265575   0.699   7.578   3.237
13866TIP3   OH265576   1.617   7.916   1.898
13866TIP3    H165577   1.678   7.877   1.962
13866TIP3    H265578   1.531   7.875   1.916
13867TIP3   OH265579   1.593   8.056   2.430
13867TIP3    H165580   1.616   7.962   2.412
13867TIP3    H265581   1.652   8.100   2.364
13868TIP3   OH265582   1.644   7.796   2.398
13868TIP3    H165583   1.664   7.757   2.486
13868TIP3    H265584   1.583   7.731   2.358
13869TIP3   OH265585   0.197   7.878   2.857
13869TIP3    H165586   0.239   7.795   2.885
13869TIP3    H265587   0.242   7.942   2.912
13870TIP3   OH265588   1.821   7.796   2.056
13870TIP3    H165589   1.864   7.729   2.000
13870TIP3    H265590   1.891   7.864   2.067
13871TIP3   OH265591   0.072   7.781   2.331
13871TIP3    H165592  -0.020   7.810   2.339
13871TIP3    H265593   0.113   7.858   2.284
13872TIP3   OH265594   0.069   7.694   3.212
13872TIP3    H165595  -0.001   7.657   3.265
13872TIP3    H265596   0.013   7.747   3.151
13873TIP3   OH265597   1.064   7.763   2.799
13873TIP3    H165598   0.998   7.699   2.830
13873TIP3    H265599   1.123   7.707   2.747
13874TIP3   OH265600   1.581   7.572   2.807
13874TIP3    H165601   1.642   7.631   2.758
13874TIP3    H265602   1.493   7.610   2.788
13875TIP3   OH265603   1.744   7.692   2.633
13875TIP3    H165604   1.816   7.637   2.593
13875TIP3    H265605   1.794   7.775   2.648
13876TIP3   OH265606   0.306   7.629   2.585
13876TIP3    H165607   0.225   7.609   2.535
13876TIP3    H265608   0.351   7.542   2.581
13877TIP3   OH265609   0.178   7.600   2.158
13877TIP3    H165610   0.228   7.667   2.109
13877TIP3    H265611   0.127   7.658   2.218
13878TIP3   OH265612   0.750   7.619   2.566
13878TIP3    H165613   0.840   7.657   2.560
13878TIP3    H265614   0.742   7.606   2.660
13879TIP3   OH265615   1.318   7.622   2.731
13879TIP3    H165616   1.317   7.633   2.636
13879TIP3    H265617   1.279   7.532   2.742
13880TIP3   OH265618   1.446   7.626   2.296
13880TIP3    H165619   1.372   7.687   2.283
13880TIP3    H265620   1.403   7.541   2.321
13881TIP3   OH265621   0.369   7.802   2.009
13881TIP3    H165622   0.416   7.733   1.959
13881TIP3    H265623   0.436   7.827   2.076
13882TIP3   OH265624   0.861   7.822   2.253
13882TIP3    H165625   0.892   7.765   2.325
13882TIP3    H265626   0.871   7.908   2.300
13883TIP3   OH265627   3.677   7.876   3.036
13883TIP3    H165628   3.698   7.918   3.123
13883TIP3    H265629   3.739   7.919   2.977
13884TIP3   OH265630   2.447   7.961   2.725
13884TIP3    H165631   2.462   8.044   2.677
13884TIP3    H265632   2.412   7.904   2.653
13885TIP3   OH265633   3.234   7.935   2.557
13885TIP3    H165634   3.295   7.936   2.634
13885TIP3    H265635   3.264   8.022   2.518
13886TIP3   OH265636   3.724   7.986   3.268
13886TIP3    H165637   3.689   8.073   3.244
13886TIP3    H265638   3.735   7.995   3.364
13887TIP3   OH265639   2.338   7.844   3.138
13887TIP3    H165640   2.320   7.909   3.065
13887TIP3    H265641   2.272   7.878   3.205
13888TIP3   OH265642   3.397   7.890   2.762
13888TIP3    H165643   3.379   7.826   2.830
13888TIP3    H265644   3.457   7.954   2.806
13889TIP3   OH265645   2.310   8.002   2.944
13889TIP3    H165646   2.348   8.090   2.967
13889TIP3    H265647   2.351   7.991   2.855
13890TIP3   OH265648   3.432   7.770   3.120
13890TIP3    H165649   3.364   7.839   3.124
13890TIP3    H265650   3.509   7.819   3.085
13891TIP3   OH265651   2.733   7.587   2.873
13891TIP3    H165652   2.719   7.491   2.865
13891TIP3    H265653   2.646   7.617   2.905
13892TIP3   OH265654   3.568   7.577   2.175
13892TIP3    H165655   3.473   7.593   2.198
13892TIP3    H265656   3.589   7.662   2.131
13893TIP3   OH265657   2.469   7.675   2.954
13893TIP3    H165658   2.394   7.670   2.892
13893TIP3    H265659   2.467   7.764   2.992
13894TIP3   OH265660   2.926   7.649   3.298
13894TIP3    H165661   2.968   7.600   3.369
13894TIP3    H265662   2.832   7.625   3.301
13895TIP3   OH265663   3.243   7.962   3.350
13895TIP3    H165664   3.231   7.989   3.442
13895TIP3    H265665   3.259   8.057   3.326
13896TIP3   OH265666   2.905   7.895   2.028
13896TIP3    H165667   2.865   7.893   2.116
13896TIP3    H265668   2.867   7.815   1.987
13897TIP3   OH265669   2.576   7.935   1.927
13897TIP3    H165670   2.536   7.901   2.009
13897TIP3    H265671   2.504   7.978   1.882
13898TIP3   OH265672   1.908   7.907   2.641
13898TIP3    H165673   1.973   7.906   2.714
13898TIP3    H265674   1.955   7.873   2.563
13899TIP3   OH265675   2.019   7.950   2.166
13899TIP3    H165676   2.080   8.015   2.126
13899TIP3    H265677   1.968   8.018   2.214
13900TIP3   OH265678   2.727   7.928   2.660
13900TIP3    H165679   2.636   7.940   2.691
13900TIP3    H265680   2.783   7.926   2.740
13901TIP3   OH265681   3.175   7.862   2.988
13901TIP3    H165682   3.106   7.882   3.054
13901TIP3    H265683   3.123   7.844   2.908
13902TIP3   OH265684   2.366   7.828   2.503
13902TIP3    H165685   2.332   7.738   2.491
13902TIP3    H265686   2.438   7.829   2.440
13903TIP3   OH265687   2.721   8.026   3.093
13903TIP3    H165688   2.653   8.094   3.089
13903TIP3    H265689   2.784   8.072   3.152
13904TIP3   OH265690   3.171   7.960   2.084
13904TIP3    H165691   3.074   7.970   2.067
13904TIP3    H265692   3.199   8.049   2.113
13905TIP3   OH265693   2.151   7.912   3.313
13905TIP3    H165694   2.070   7.964   3.323
13905TIP3    H265695   2.141   7.843   3.380
13906TIP3   OH265696   3.015   7.903   3.230
13906TIP3    H165697   3.106   7.912   3.270
13906TIP3    H265698   3.000   7.807   3.232
13907TIP3   OH265699   3.099   7.861   2.328
13907TIP3    H165700   3.130   7.903   2.246
13907TIP3    H265701   3.158   7.901   2.396
13908TIP3   OH265702   2.840   8.024   2.411
13908TIP3    H165703   2.906   8.097   2.413
13908TIP3    H265704   2.803   8.027   2.501
13909TIP3   OH265705   2.915   7.742   2.499
13909TIP3    H165706   2.883   7.809   2.563
13909TIP3    H265707   2.985   7.795   2.453
13910TIP3   OH265708   2.481   7.851   2.171
13910TIP3    H165709   2.474   7.939   2.209
13910TIP3    H265710   2.574   7.826   2.194
13911TIP3   OH265711   2.215   7.638   2.851
13911TIP3    H165712   2.197   7.644   2.754
13911TIP3    H265713   2.174   7.549   2.868
13912TIP3   OH265714   3.503   7.916   1.897
13912TIP3    H165715   3.563   7.877   1.963
13912TIP3    H265716   3.417   7.876   1.916
13913TIP3   OH265717   3.481   8.057   2.427
13913TIP3    H165718   3.500   7.962   2.411
13913TIP3    H265719   3.537   8.100   2.361
13914TIP3   OH265720   3.531   7.796   2.398
13914TIP3    H165721   3.547   7.757   2.488
13914TIP3    H265722   3.467   7.733   2.359
13915TIP3   OH265723   2.076   7.881   2.854
13915TIP3    H165724   2.121   7.798   2.876
13915TIP3    H265725   2.126   7.947   2.903
13916TIP3   OH265726   3.705   7.796   2.056
13916TIP3    H165727   3.750   7.729   2.001
13916TIP3    H265728   3.774   7.864   2.067
13917TIP3   OH265729   1.939   7.810   2.371
13917TIP3    H165730   1.845   7.824   2.351
13917TIP3    H265731   1.982   7.854   2.295
13918TIP3   OH265732   1.940   7.677   3.198
13918TIP3    H165733   1.870   7.653   3.262
13918TIP3    H265734   1.888   7.741   3.144
13919TIP3   OH265735   2.950   7.761   2.806
13919TIP3    H165736   2.882   7.696   2.831
13919TIP3    H265737   3.007   7.710   2.746
13920TIP3   OH265738   3.464   7.572   2.810
13920TIP3    H165739   3.526   7.630   2.761
13920TIP3    H265740   3.377   7.611   2.788
13921TIP3   OH265741   3.631   7.690   2.638
13921TIP3    H165742   3.702   7.637   2.595
13921TIP3    H265743   3.679   7.776   2.647
13922TIP3   OH265744   2.187   7.628   2.588
13922TIP3    H165745   2.108   7.610   2.533
13922TIP3    H265746   2.233   7.541   2.579
13923TIP3   OH265747   2.064   7.602   2.158
13923TIP3    H165748   2.114   7.670   2.108
13923TIP3    H265749   2.007   7.659   2.213
13924TIP3   OH265750   2.636   7.618   2.566
13924TIP3    H165751   2.725   7.657   2.559
13924TIP3    H265752   2.630   7.606   2.661
13925TIP3   OH265753   3.205   7.622   2.730
13925TIP3    H165754   3.202   7.637   2.635
13925TIP3    H265755   3.165   7.533   2.740
13926TIP3   OH265756   3.331   7.627   2.295
13926TIP3    H165757   3.258   7.689   2.285
13926TIP3    H265758   3.288   7.542   2.321
13927TIP3   OH265759   2.251   7.802   2.010
13927TIP3    H165760   2.298   7.734   1.959
13927TIP3    H265761   2.318   7.830   2.074
13928TIP3   OH265762   2.748   7.824   2.253
13928TIP3    H165763   2.777   7.765   2.325
13928TIP3    H265764   2.759   7.909   2.301
13929TIP3   OH265765   5.563   7.875   3.036
13929TIP3    H165766   5.581   7.924   3.120
13929TIP3    H265767   5.622   7.920   2.975
13930TIP3   OH265768   4.334   7.961   2.723
13930TIP3    H165769   4.347   8.044   2.676
13930TIP3    H265770   4.297   7.903   2.654
13931TIP3   OH265771   5.110   7.967   2.553
13931TIP3    H165772   5.170   7.941   2.627
13931TIP3    H265773   5.173   8.026   2.509
13932TIP3   OH265774   5.603   7.984   3.269
13932TIP3    H165775   5.577   8.074   3.242
13932TIP3    H265776   5.624   7.997   3.363
13933TIP3   OH265777   4.222   7.848   3.141
13933TIP3    H165778   4.200   7.898   3.058
13933TIP3    H265779   4.147   7.869   3.196
13934TIP3   OH265780   5.283   7.891   2.757
13934TIP3    H165781   5.268   7.824   2.824
13934TIP3    H265782   5.344   7.952   2.804
13935TIP3   OH265783   4.196   8.002   2.944
13935TIP3    H165784   4.237   8.088   2.966
13935TIP3    H265785   4.237   7.987   2.856
13936TIP3   OH265786   5.316   7.780   3.130
13936TIP3    H165787   5.244   7.841   3.106
13936TIP3    H265788   5.393   7.816   3.081
13937TIP3   OH265789   4.618   7.587   2.870
13937TIP3    H165790   4.602   7.491   2.867
13937TIP3    H265791   4.532   7.619   2.905
13938TIP3   OH265792   5.454   7.577   2.176
13938TIP3    H165793   5.360   7.591   2.198
13938TIP3    H265794   5.475   7.661   2.131
13939TIP3   OH265795   4.355   7.678   2.944
13939TIP3    H165796   4.263   7.665   2.913
13939TIP3    H265797   4.345   7.757   3.000
13940TIP3   OH265798   4.815   7.656   3.300
13940TIP3    H165799   4.845   7.587   3.358
13940TIP3    H265800   4.718   7.634   3.291
13941TIP3   OH265801   4.791   7.895   2.027
13941TIP3    H165802   4.749   7.893   2.114
13941TIP3    H265803   4.753   7.814   1.986
13942TIP3   OH265804   4.459   7.930   1.924
13942TIP3    H165805   4.423   7.902   2.010
13942TIP3    H265806   4.390   7.982   1.885
13943TIP3   OH265807   3.795   7.909   2.640
13943TIP3    H165808   3.860   7.904   2.713
13943TIP3    H265809   3.841   7.873   2.562
13944TIP3   OH265810   3.905   7.951   2.165
13944TIP3    H165811   3.966   8.017   2.128
13944TIP3    H265812   3.853   8.017   2.214
13945TIP3   OH265813   4.614   7.930   2.660
13945TIP3    H165814   4.522   7.939   2.691
13945TIP3    H265815   4.668   7.926   2.742
13946TIP3   OH265816   5.062   7.858   2.996
13946TIP3    H165817   4.986   7.881   3.052
13946TIP3    H265818   5.016   7.843   2.911
13947TIP3   OH265819   4.250   7.830   2.499
13947TIP3    H165820   4.218   7.738   2.493
13947TIP3    H265821   4.325   7.827   2.438
13948TIP3   OH265822   4.613   8.013   3.076
13948TIP3    H165823   4.546   8.085   3.081
13948TIP3    H265824   4.666   8.062   3.143
13949TIP3   OH265825   5.055   7.961   2.091
13949TIP3    H165826   4.960   7.968   2.065
13949TIP3    H265827   5.082   8.052   2.108
13950TIP3   OH265828   4.905   7.902   3.223
13950TIP3    H165829   4.980   7.914   3.280
13950TIP3    H265830   4.875   7.811   3.235
13951TIP3   OH265831   4.983   7.865   2.331
13951TIP3    H165832   5.016   7.899   2.245
13951TIP3    H265833   5.047   7.899   2.395
13952TIP3   OH265834   4.726   8.024   2.412
13952TIP3    H165835   4.790   8.098   2.415
13952TIP3    H265836   4.686   8.025   2.501
13953TIP3   OH265837   4.802   7.740   2.501
13953TIP3    H165838   4.768   7.807   2.564
13953TIP3    H265839   4.869   7.795   2.453
13954TIP3   OH265840   4.368   7.851   2.171
13954TIP3    H165841   4.360   7.939   2.209
13954TIP3    H265842   4.459   7.826   2.194
13955TIP3   OH265843   4.105   7.642   2.862
13955TIP3    H165844   4.088   7.645   2.765
13955TIP3    H265845   4.065   7.555   2.884
13956TIP3   OH265846   4.495   8.044   3.368
13956TIP3    H165847   4.438   7.971   3.393
13956TIP3    H265848   4.462   8.118   3.424
13957TIP3   OH265849   4.470   7.841   3.223
13957TIP3    H165850   4.524   7.909   3.175
13957TIP3    H265851   4.380   7.861   3.187
13958TIP3   OH265852   4.554   7.613   3.292
13958TIP3    H165853   4.535   7.706   3.263
13958TIP3    H265854   4.483   7.572   3.234
13959TIP3   OH265855   5.388   7.916   1.898
13959TIP3    H165856   5.450   7.877   1.962
13959TIP3    H265857   5.303   7.875   1.916
13960TIP3   OH265858   5.364   8.056   2.429
13960TIP3    H165859   5.387   7.962   2.412
13960TIP3    H265860   5.423   8.100   2.364
13961TIP3   OH265861   5.416   7.796   2.398
13961TIP3    H165862   5.435   7.757   2.486
13961TIP3    H265863   5.355   7.731   2.358
13962TIP3   OH265864   3.966   7.881   2.851
13962TIP3    H165865   4.007   7.797   2.881
13962TIP3    H265866   4.012   7.945   2.906
13963TIP3   OH265867   5.592   7.796   2.056
13963TIP3    H165868   5.636   7.729   2.000
13963TIP3    H265869   5.663   7.864   2.066
13964TIP3   OH265870   3.825   7.808   2.370
13964TIP3    H165871   3.731   7.824   2.351
13964TIP3    H265872   3.867   7.855   2.295
13965TIP3   OH265873   5.506   7.625   3.355
13965TIP3    H165874   5.414   7.642   3.335
13965TIP3    H265875   5.516   7.534   3.325
13966TIP3   OH265876   4.838   7.764   2.802
13966TIP3    H165877   4.770   7.701   2.831
13966TIP3    H265878   4.893   7.708   2.745
13967TIP3   OH265879   5.349   7.572   2.809
13967TIP3    H165880   5.411   7.630   2.758
13967TIP3    H265881   5.262   7.610   2.785
13968TIP3   OH265882   5.515   7.691   2.636
13968TIP3    H165883   5.586   7.639   2.593
13968TIP3    H265884   5.564   7.775   2.649
13969TIP3   OH265885   4.075   7.628   2.589
13969TIP3    H165886   3.994   7.610   2.536
13969TIP3    H265887   4.119   7.541   2.582
13970TIP3   OH265888   3.949   7.601   2.159
13970TIP3    H165889   3.999   7.669   2.110
13970TIP3    H265890   3.892   7.658   2.214
13971TIP3   OH265891   4.522   7.619   2.566
13971TIP3    H165892   4.611   7.657   2.559
13971TIP3    H265893   4.515   7.608   2.661
13972TIP3   OH265894   5.091   7.621   2.730
13972TIP3    H165895   5.087   7.633   2.635
13972TIP3    H265896   5.051   7.532   2.741
13973TIP3   OH265897   5.217   7.626   2.295
13973TIP3    H165898   5.143   7.687   2.283
13973TIP3    H265899   5.174   7.541   2.321
13974TIP3   OH265900   4.140   7.807   2.003
13974TIP3    H165901   4.185   7.730   1.964
13974TIP3    H265902   4.201   7.829   2.076
13975TIP3   OH265903   4.633   7.822   2.253
13975TIP3    H165904   4.664   7.765   2.325
13975TIP3    H265905   4.642   7.908   2.300
13976TIP3   OH265906   7.459   7.871   3.049
13976TIP3    H165907   7.466   7.934   3.121
13976TIP3    H265908   7.508   7.917   2.979
13977TIP3   OH265909   6.219   7.963   2.723
13977TIP3    H165910   6.232   8.045   2.675
13977TIP3    H265911   6.182   7.904   2.654
13978TIP3   OH265912   7.005   7.957   2.547
13978TIP3    H165913   7.055   7.937   2.630
13978TIP3    H265914   7.045   8.044   2.530
13979TIP3   OH265915   6.114   7.843   3.132
13979TIP3    H165916   6.087   7.898   3.055
13979TIP3    H265917   6.042   7.866   3.196
13980TIP3   OH265918   7.166   7.891   2.756
13980TIP3    H165919   7.151   7.825   2.825
13980TIP3    H265920   7.224   7.955   2.803
13981TIP3   OH265921   6.080   8.005   2.943
13981TIP3    H165922   6.126   8.088   2.967
13981TIP3    H265923   6.123   7.987   2.856
13982TIP3   OH265924   7.206   7.777   3.130
13982TIP3    H165925   7.132   7.838   3.120
13982TIP3    H265926   7.276   7.818   3.077
13983TIP3   OH265927   6.505   7.588   2.872
13983TIP3    H165928   6.490   7.492   2.868
13983TIP3    H265929   6.417   7.617   2.906
13984TIP3   OH265930   7.341   7.578   2.177
13984TIP3    H165931   7.246   7.589   2.196
13984TIP3    H265932   7.362   7.660   2.129
13985TIP3   OH265933   6.245   7.679   2.943
13985TIP3    H165934   6.152   7.664   2.915
13985TIP3    H265935   6.231   7.754   3.002
13986TIP3   OH265936   7.032   8.022   3.378
13986TIP3    H165937   6.984   8.005   3.460
13986TIP3    H265938   7.017   8.113   3.353
13987TIP3   OH265939   6.682   7.893   2.030
13987TIP3    H165940   6.632   7.893   2.113
13987TIP3    H265941   6.639   7.816   1.986
13988TIP3   OH265942   6.348   7.935   1.928
13988TIP3    H165943   6.307   7.901   2.009
13988TIP3    H265944   6.276   7.978   1.882
13989TIP3   OH265945   5.680   7.908   2.641
13989TIP3    H165946   5.746   7.904   2.714
13989TIP3    H265947   5.727   7.873   2.562
13990TIP3   OH265948   5.790   7.950   2.166
13990TIP3    H165949   5.851   8.015   2.127
13990TIP3    H265950   5.739   8.018   2.214
13991TIP3   OH265951   6.499   7.929   2.664
13991TIP3    H165952   6.407   7.939   2.693
13991TIP3    H265953   6.552   7.924   2.744
13992TIP3   OH265954   6.947   7.864   2.988
13992TIP3    H165955   6.875   7.874   3.051
13992TIP3    H265956   6.899   7.840   2.907
13993TIP3   OH265957   6.136   7.830   2.499
13993TIP3    H165958   6.103   7.739   2.493
13993TIP3    H265959   6.210   7.828   2.438
13994TIP3   OH265960   6.494   8.048   3.101
13994TIP3    H165961   6.413   8.100   3.104
13994TIP3    H265962   6.547   8.083   3.171
13995TIP3   OH265963   6.941   7.963   2.100
13995TIP3    H165964   6.848   7.967   2.064
13995TIP3    H265965   6.966   8.057   2.101
13996TIP3   OH265966   5.903   7.874   3.288
13996TIP3    H165967   5.842   7.947   3.310
13996TIP3    H265968   5.915   7.833   3.375
13997TIP3   OH265969   6.871   7.854   2.330
13997TIP3    H165970   6.887   7.903   2.246
13997TIP3    H265971   6.912   7.901   2.405
13998TIP3   OH265972   6.616   8.022   2.412
13998TIP3    H165973   6.673   8.101   2.414
13998TIP3    H265974   6.571   8.027   2.498
13999TIP3   OH265975   6.688   7.742   2.502
13999TIP3    H165976   6.653   7.807   2.565
13999TIP3    H265977   6.753   7.797   2.453
14000TIP3   OH265978   6.253   7.851   2.171
14000TIP3    H165979   6.245   7.939   2.209
14000TIP3    H265980   6.345   7.825   2.194
14001TIP3   OH265981   5.989   7.641   2.863
14001TIP3    H165982   5.971   7.645   2.766
14001TIP3    H265983   5.950   7.555   2.886
14002TIP3   OH265984   6.356   8.038   3.470
14002TIP3    H165985   6.327   7.957   3.421
14002TIP3    H265986   6.306   8.108   3.429
14003TIP3   OH265987   6.346   7.880   3.248
14003TIP3    H165988   6.410   7.905   3.180
14003TIP3    H265989   6.267   7.859   3.195
14004TIP3   OH265990   7.272   7.919   1.903
14004TIP3    H165991   7.337   7.874   1.961
14004TIP3    H265992   7.189   7.871   1.913
14005TIP3   OH265993   7.249   8.056   2.419
14005TIP3    H165994   7.288   7.965   2.419
14005TIP3    H265995   7.314   8.105   2.365
14006TIP3   OH265996   7.294   7.798   2.399
14006TIP3    H165997   7.323   7.756   2.484
14006TIP3    H265998   7.244   7.724   2.358
14007TIP3   OH265999   5.850   7.880   2.853
14007TIP3    H166000   5.893   7.797   2.882
14007TIP3    H266001   5.898   7.944   2.905
14008TIP3   OH266002   7.474   7.797   2.056
14008TIP3    H166003   7.520   7.730   2.001
14008TIP3    H266004   7.545   7.865   2.067
14009TIP3   OH266005   5.710   7.808   2.370
14009TIP3    H166006   5.616   7.824   2.350
14009TIP3    H266007   5.753   7.854   2.296
14010TIP3   OH266008   5.707   7.674   3.190
14010TIP3    H166009   5.642   7.658   3.264
14010TIP3    H266010   5.658   7.745   3.144
14011TIP3   OH266011   6.724   7.763   2.805
14011TIP3    H166012   6.653   7.700   2.830
14011TIP3    H266013   6.777   7.707   2.747
14012TIP3   OH266014   7.235   7.573   2.813
14012TIP3    H166015   7.298   7.628   2.762
14012TIP3    H266016   7.148   7.609   2.788
14013TIP3   OH266017   7.400   7.692   2.633
14013TIP3    H166018   7.472   7.637   2.595
14013TIP3    H266019   7.451   7.774   2.651
14014TIP3   OH266020   5.960   7.628   2.588
14014TIP3    H166021   5.879   7.610   2.536
14014TIP3    H266022   6.004   7.542   2.582
14015TIP3   OH266023   5.835   7.602   2.158
14015TIP3    H166024   5.885   7.670   2.108
14015TIP3    H266025   5.779   7.659   2.213
14016TIP3   OH266026   6.407   7.618   2.566
14016TIP3    H166027   6.496   7.657   2.559
14016TIP3    H266028   6.400   7.607   2.661
14017TIP3   OH266029   6.974   7.624   2.731
14017TIP3    H166030   6.973   7.632   2.636
14017TIP3    H266031   6.936   7.534   2.743
14018TIP3   OH266032   7.101   7.631   2.299
14018TIP3    H166033   7.022   7.681   2.279
14018TIP3    H266034   7.064   7.543   2.320
14019TIP3   OH266035   6.022   7.802   2.010
14019TIP3    H166036   6.069   7.734   1.959
14019TIP3    H266037   6.089   7.830   2.074
14020TIP3   OH266038   6.522   7.823   2.252
14020TIP3    H166039   6.547   7.765   2.325
14020TIP3    H266040   6.527   7.909   2.300
14021TIP3   OH266041   7.966   7.840   3.126
14021TIP3    H166042   7.969   7.908   3.054
14021TIP3    H266043   7.919   7.886   3.199
14022TIP3   OH266044   7.977   8.014   2.941
14022TIP3    H166045   8.007   8.106   2.958
14022TIP3    H266046   8.009   7.997   2.851
14023TIP3   OH266047   7.563   7.908   2.639
14023TIP3    H166048   7.629   7.907   2.713
14023TIP3    H266049   7.614   7.874   2.563
14024TIP3   OH266050   7.671   7.950   2.164
14024TIP3    H166051   7.735   8.014   2.128
14024TIP3    H266052   7.623   8.018   2.213
14025TIP3   OH266053   7.965   7.822   2.480
14025TIP3    H166054   7.964   7.727   2.502
14025TIP3    H266055   8.060   7.835   2.467
14026TIP3   OH266056   7.814   7.926   3.331
14026TIP3    H166057   7.724   7.960   3.318
14026TIP3    H266058   7.800   7.841   3.373
14027TIP3   OH266059   7.874   7.641   2.863
14027TIP3    H166060   7.861   7.645   2.766
14027TIP3    H266061   7.837   7.554   2.887
14028TIP3   OH266062   7.734   7.879   2.858
14028TIP3    H166063   7.782   7.796   2.879
14028TIP3    H266064   7.789   7.945   2.901
14029TIP3   OH266065   7.594   7.807   2.368
14029TIP3    H166066   7.501   7.823   2.349
14029TIP3    H266067   7.638   7.854   2.296
14030TIP3   OH266068   7.587   7.666   3.199
14030TIP3    H166069   7.519   7.659   3.268
14030TIP3    H266070   7.548   7.737   3.143
14031TIP3   OH266071   7.836   7.622   2.590
14031TIP3    H166072   7.757   7.605   2.535
14031TIP3    H266073   7.888   7.541   2.585
14032TIP3   OH266074   7.719   7.602   2.156
14032TIP3    H166075   7.769   7.672   2.109
14032TIP3    H266076   7.664   7.657   2.214
14033TIP3   OH266077   7.904   7.793   2.019
14033TIP3    H166078   7.958   7.740   1.958
14033TIP3    H266079   7.972   7.836   2.074
   8.08472   8.08472  10.98250
