Generated by CHARMM-GUI FF-Converter
66079
   37PMPE     N    1   4.916   5.058   7.435
   37PMPE   HN1    2   4.956   5.022   7.346
   37PMPE   HN2    3   4.899   5.159   7.430
   37PMPE   HN3    4   4.991   5.038   7.506
   37PMPE   C12    5   4.789   4.985   7.469
   37PMPE  H12A    6   4.715   5.004   7.387
   37PMPE  H12B    7   4.747   5.028   7.562
   37PMPE   C11    8   4.819   4.836   7.483
   37PMPE  H11A    9   4.725   4.779   7.496
   37PMPE  H11B   10   4.882   4.820   7.574
   37PMPE     P   11   5.023   4.720   7.360
   37PMPE   O13   12   5.027   4.595   7.440
   37PMPE   O14   13   5.119   4.824   7.401
   37PMPE   O11   14   5.042   4.683   7.211
   37PMPE   O12   15   4.880   4.788   7.364
   37PMPE    C1   16   4.990   4.763   7.105
   37PMPE    HA   17   5.036   4.864   7.106
   37PMPE    HB   18   4.880   4.774   7.113
   37PMPE    C2   19   5.018   4.687   6.974
   37PMPE    HS   20   4.961   4.591   6.982
   37PMPE   O21   21   5.159   4.661   6.962
   37PMPE   C21   22   5.181   4.561   6.879
   37PMPE   O22   23   5.098   4.494   6.821
   37PMPE   C22   24   5.326   4.558   6.845
   37PMPE   H2R   25   5.397   4.567   6.930
   37PMPE   H2S   26   5.322   4.646   6.781
   37PMPE    C3   27   4.965   4.765   6.851
   37PMPE    HX   28   4.858   4.785   6.867
   37PMPE    HY   29   4.968   4.694   6.764
   37PMPE   O31   30   5.030   4.896   6.839
   37PMPE   C31   31   5.071   4.919   6.715
   37PMPE   O32   32   5.058   4.836   6.628
   37PMPE   C32   33   5.137   5.058   6.700
   37PMPE   H2X   34   5.244   5.071   6.715
   37PMPE   H2Y   35   5.113   5.116   6.788
   37PMPE   C23   36   5.364   4.470   6.730
   37PMPE   H3R   37   5.289   4.478   6.648
   37PMPE   H3S   38   5.363   4.367   6.772
   37PMPE   C24   39   5.503   4.489   6.671
   37PMPE   H4R   40   5.478   4.411   6.596
   37PMPE   H4S   41   5.592   4.506   6.735
   37PMPE   C25   42   5.576   4.563   6.564
   37PMPE   H5R   43   5.591   4.654   6.630
   37PMPE   H5S   44   5.503   4.546   6.477
   37PMPE   C26   45   5.677   4.548   6.462
   37PMPE   H6R   46   5.652   4.461   6.396
   37PMPE   H6S   47   5.770   4.550   6.520
   37PMPE   C27   48   5.688   4.669   6.378
   37PMPE   H7R   49   5.729   4.629   6.284
   37PMPE   H7S   50   5.719   4.768   6.409
   37PMPE   C28   51   5.610   4.709   6.279
   37PMPE   H8R   52   5.518   4.666   6.320
   37PMPE   H8S   53   5.555   4.632   6.217
   37PMPE   C29   54   5.639   4.886   6.243
   37PMPE   H9R   55   5.706   4.870   6.160
   37PMPE  C217   56   5.652   5.020   6.324
   37PMPE  H17R   57   5.725   5.080   6.267
   37PMPE  H17S   58   5.600   5.047   6.413
   37PMPE  C210   59   5.525   5.036   6.235
   37PMPE  H10R   60   5.562   5.102   6.160
   37PMPE  C211   61   5.330   5.048   6.221
   37PMPE  H11R   62   5.291   5.146   6.214
   37PMPE  H11S   63   5.271   5.012   6.308
   37PMPE  C212   64   5.216   4.956   6.130
   37PMPE  H12R   65   5.114   4.960   6.170
   37PMPE  H12S   66   5.207   4.843   6.131
   37PMPE  C213   67   5.213   4.983   5.982
   37PMPE  H13R   68   5.305   4.991   5.926
   37PMPE  H13S   69   5.185   5.087   5.968
   37PMPE  C214   70   5.155   4.873   5.896
   37PMPE  H14R   71   5.046   4.886   5.907
   37PMPE  H14S   72   5.180   4.768   5.922
   37PMPE  C215   73   5.208   4.898   5.757
   37PMPE  H15R   74   5.162   4.812   5.706
   37PMPE  H15S   75   5.311   4.875   5.722
   37PMPE  C216   76   5.177   5.044   5.715
   37PMPE  H16R   77   5.072   5.070   5.720
   37PMPE  H16S   78   5.212   5.132   5.769
   37PMPE  H16T   79   5.214   5.042   5.613
   37PMPE   C33   80   5.141   5.111   6.557
   37PMPE   H3X   81   5.166   5.035   6.480
   37PMPE   H3Y   82   5.223   5.187   6.551
   37PMPE   C34   83   5.011   5.177   6.523
   37PMPE   H4X   84   5.027   5.216   6.421
   37PMPE   H4Y   85   5.000   5.260   6.594
   37PMPE   C35   86   4.884   5.092   6.533
   37PMPE   H5X   87   4.803   5.163   6.507
   37PMPE   H5Y   88   4.861   5.056   6.636
   37PMPE   C36   89   4.883   4.976   6.435
   37PMPE   H6X   90   4.935   4.890   6.476
   37PMPE   H6Y   91   4.939   5.003   6.343
   37PMPE   C37   92   4.746   4.925   6.394
   37PMPE   H7X   93   4.685   5.013   6.367
   37PMPE   H7Y   94   4.697   4.873   6.480
   37PMPE   C38   95   4.760   4.824   6.279
   37PMPE   H8X   96   4.805   4.871   6.189
   37PMPE   H8Y   97   4.661   4.786   6.249
   37PMPE   C39   98   4.847   4.704   6.318
   37PMPE   H9X   99   4.807   4.659   6.412
   37PMPE   H9Y  100   4.951   4.735   6.342
   37PMPE  C310  101   4.860   4.604   6.203
   37PMPE  H10X  102   4.901   4.657   6.114
   37PMPE  H10Y  103   4.762   4.562   6.174
   37PMPE  C311  104   4.951   4.489   6.243
   37PMPE  H11X  105   4.902   4.432   6.324
   37PMPE  H11Y  106   5.049   4.529   6.282
   37PMPE  C312  107   4.974   4.401   6.123
   37PMPE  H12X  108   4.883   4.394   6.060
   37PMPE  H12Y  109   4.992   4.297   6.150
   37PMPE  C313  110   5.089   4.462   6.047
   37PMPE  H13X  111   5.185   4.463   6.105
   37PMPE  H13Y  112   5.065   4.566   6.016
   37PMPE  C314  113   5.112   4.395   5.916
   37PMPE  H14X  114   5.014   4.357   5.879
   37PMPE  H14Y  115   5.169   4.314   5.956
   37PMPE  C315  116   5.192   4.494   5.829
   37PMPE  H15X  117   5.277   4.522   5.895
   37PMPE  H15Y  118   5.116   4.566   5.794
   37PMPE  C316  119   5.262   4.459   5.703
   37PMPE  H16X  120   5.331   4.510   5.634
   37PMPE  H16Y  121   5.181   4.434   5.634
   37PMPE  H16Z  122   5.325   4.387   5.757
   38PMPE     N  123   3.199   4.711   7.185
   38PMPE   HN1  124   3.194   4.801   7.131
   38PMPE   HN2  125   3.210   4.631   7.120
   38PMPE   HN3  126   3.112   4.696   7.241
   38PMPE   C12  127   3.317   4.714   7.280
   38PMPE  H12A  128   3.331   4.818   7.315
   38PMPE  H12B  129   3.405   4.681   7.222
   38PMPE   C11  130   3.297   4.626   7.406
   38PMPE  H11A  131   3.232   4.682   7.477
   38PMPE  H11B  132   3.396   4.607   7.453
   38PMPE     P  133   3.222   4.377   7.470
   38PMPE   O13  134   3.097   4.393   7.544
   38PMPE   O14  135   3.345   4.357   7.549
   38PMPE   O11  136   3.202   4.262   7.367
   38PMPE   O12  137   3.234   4.504   7.372
   38PMPE    C1  138   3.315   4.227   7.290
   38PMPE    HA  139   3.285   4.129   7.255
   38PMPE    HB  140   3.408   4.214   7.352
   38PMPE    C2  141   3.345   4.321   7.168
   38PMPE    HS  142   3.388   4.414   7.212
   38PMPE   O21  143   3.224   4.346   7.096
   38PMPE   C21  144   3.235   4.427   6.996
   38PMPE   O22  145   3.325   4.509   6.978
   38PMPE   C22  146   3.107   4.419   6.916
   38PMPE   H2R  147   3.028   4.475   6.970
   38PMPE   H2S  148   3.077   4.312   6.908
   38PMPE    C3  149   3.452   4.268   7.070
   38PMPE    HX  150   3.532   4.245   7.140
   38PMPE    HY  151   3.499   4.343   7.004
   38PMPE   O31  152   3.404   4.158   6.992
   38PMPE   C31  153   3.490   4.102   6.910
   38PMPE   O32  154   3.588   4.156   6.861
   38PMPE   C32  155   3.442   3.964   6.876
   38PMPE   H2X  156   3.425   3.900   6.963
   38PMPE   H2Y  157   3.528   3.911   6.834
   38PMPE   C23  158   3.127   4.471   6.775
   38PMPE   H3R  159   3.215   4.421   6.726
   38PMPE   H3S  160   3.151   4.580   6.783
   38PMPE   C24  161   3.005   4.435   6.689
   38PMPE   H4R  162   2.915   4.477   6.738
   38PMPE   H4S  163   2.993   4.325   6.682
   38PMPE   C25  164   3.021   4.489   6.549
   38PMPE   H5R  165   2.925   4.483   6.491
   38PMPE   H5S  166   3.094   4.439   6.484
   38PMPE   C26  167   3.066   4.630   6.576
   38PMPE   H6R  168   3.171   4.658   6.593
   38PMPE   H6S  169   3.000   4.672   6.659
   38PMPE   C27  170   3.030   4.705   6.464
   38PMPE   H7R  171   3.013   4.805   6.489
   38PMPE   H7S  172   2.927   4.698   6.485
   38PMPE   C28  173   3.111   4.701   6.336
   38PMPE   H8R  174   3.195   4.768   6.371
   38PMPE   H8S  175   3.057   4.745   6.252
   38PMPE   C29  176   3.180   4.586   6.282
   38PMPE   H9R  177   3.264   4.559   6.344
   38PMPE  C217  178   3.217   4.589   6.132
   38PMPE  H17R  179   3.312   4.546   6.112
   38PMPE  H17S  180   3.171   4.665   6.069
   38PMPE  C210  181   3.117   4.491   6.185
   38PMPE  H10R  182   3.139   4.390   6.216
   38PMPE  C211  183   2.990   4.522   6.121
   38PMPE  H11R  184   2.998   4.603   6.044
   38PMPE  H11S  185   2.920   4.535   6.202
   38PMPE  C212  186   2.922   4.421   6.045
   38PMPE  H12R  187   2.851   4.363   6.109
   38PMPE  H12S  188   2.999   4.354   6.000
   38PMPE  C213  189   2.849   4.500   5.936
   38PMPE  H13R  190   2.812   4.432   5.874
   38PMPE  H13S  191   2.908   4.558   5.864
   38PMPE  C214  192   2.702   4.521   5.953
   38PMPE  H14R  193   2.698   4.596   6.022
   38PMPE  H14S  194   2.650   4.436   5.989
   38PMPE  C215  195   2.625   4.608   5.863
   38PMPE  H15R  196   2.692   4.666   5.791
   38PMPE  H15S  197   2.560   4.668   5.930
   38PMPE  C216  198   2.511   4.564   5.790
   38PMPE  H16R  199   2.500   4.465   5.754
   38PMPE  H16S  200   2.469   4.628   5.713
   38PMPE  H16T  201   2.591   4.513   5.750
   38PMPE   C33  202   3.305   3.968   6.802
   38PMPE   H3X  203   3.239   4.045   6.845
   38PMPE   H3Y  204   3.253   3.869   6.801
   38PMPE   C34  205   3.319   4.008   6.660
   38PMPE   H4X  206   3.338   3.911   6.618
   38PMPE   H4Y  207   3.402   4.076   6.640
   38PMPE   C35  208   3.198   4.018   6.577
   38PMPE   H5X  209   3.146   4.113   6.589
   38PMPE   H5Y  210   3.137   3.932   6.603
   38PMPE   C36  211   3.217   3.988   6.432
   38PMPE   H6X  212   3.131   4.042   6.386
   38PMPE   H6Y  213   3.247   3.888   6.394
   38PMPE   C37  214   3.280   4.078   6.344
   38PMPE   H7X  215   3.349   4.103   6.429
   38PMPE   H7Y  216   3.258   4.183   6.368
   38PMPE   C38  217   3.326   4.027   6.186
   38PMPE   H8X  218   3.403   3.947   6.163
   38PMPE   H8Y  219   3.405   4.086   6.134
   38PMPE   C39  220   3.269   4.094   6.066
   38PMPE   H9X  221   3.243   4.199   6.083
   38PMPE   H9Y  222   3.199   4.028   6.106
   38PMPE  C310  223   3.324   4.049   5.930
   38PMPE  H10X  224   3.236   4.007   5.877
   38PMPE  H10Y  225   3.400   3.968   5.939
   38PMPE  C311  226   3.373   4.163   5.840
   38PMPE  H11X  227   3.416   4.122   5.747
   38PMPE  H11Y  228   3.456   4.221   5.878
   38PMPE  C312  229   3.279   4.282   5.825
   38PMPE  H12X  230   3.256   4.327   5.925
   38PMPE  H12Y  231   3.185   4.246   5.780
   38PMPE  C313  232   3.345   4.396   5.745
   38PMPE  H13X  233   3.389   4.353   5.652
   38PMPE  H13Y  234   3.428   4.435   5.809
   38PMPE  C314  235   3.243   4.508   5.724
   38PMPE  H14X  236   3.233   4.559   5.823
   38PMPE  H14Y  237   3.150   4.454   5.700
   38PMPE  C315  238   3.241   4.611   5.609
   38PMPE  H15X  239   3.308   4.693   5.610
   38PMPE  H15Y  240   3.151   4.672   5.622
   38PMPE  C316  241   3.267   4.569   5.467
   38PMPE  H16X  242   3.261   4.663   5.405
   38PMPE  H16Y  243   3.189   4.498   5.441
   38PMPE  H16Z  244   3.371   4.528   5.455
   39PMPE     N  245   3.777   5.490   7.658
   39PMPE   HN1  246   3.842   5.409   7.647
   39PMPE   HN2  247   3.832   5.572   7.624
   39PMPE   HN3  248   3.751   5.506   7.758
   39PMPE   C12  249   3.658   5.473   7.567
   39PMPE  H12A  250   3.642   5.572   7.518
   39PMPE  H12B  251   3.569   5.447   7.627
   39PMPE   C11  252   3.687   5.363   7.465
   39PMPE  H11A  253   3.597   5.354   7.399
   39PMPE  H11B  254   3.700   5.266   7.519
   39PMPE     P  255   3.864   5.283   7.293
   39PMPE   O13  256   3.850   5.155   7.367
   39PMPE   O14  257   3.997   5.326   7.248
   39PMPE   O11  258   3.764   5.282   7.173
   39PMPE   O12  259   3.802   5.397   7.388
   39PMPE    C1  260   3.730   5.394   7.094
   39PMPE    HA  261   3.777   5.491   7.128
   39PMPE    HB  262   3.621   5.408   7.102
   39PMPE    C2  263   3.767   5.368   6.944
   39PMPE    HS  264   3.697   5.426   6.880
   39PMPE   O21  265   3.764   5.228   6.907
   39PMPE   C21  266   3.641   5.176   6.906
   39PMPE   O22  267   3.540   5.234   6.942
   39PMPE   C22  268   3.639   5.040   6.834
   39PMPE   H2R  269   3.625   4.958   6.906
   39PMPE   H2S  270   3.737   5.026   6.785
   39PMPE    C3  271   3.909   5.429   6.918
   39PMPE    HX  272   3.960   5.445   7.016
   39PMPE    HY  273   3.895   5.528   6.870
   39PMPE   O31  274   3.995   5.347   6.841
   39PMPE   C31  275   4.004   5.370   6.715
   39PMPE   O32  276   3.939   5.445   6.644
   39PMPE   C32  277   4.116   5.288   6.668
   39PMPE   H2X  278   4.207   5.308   6.730
   39PMPE   H2Y  279   4.143   5.306   6.562
   39PMPE   C23  280   3.526   5.035   6.728
   39PMPE   H3R  281   3.523   5.130   6.671
   39PMPE   H3S  282   3.427   5.025   6.778
   39PMPE   C24  283   3.546   4.921   6.626
   39PMPE   H4R  284   3.549   4.823   6.679
   39PMPE   H4S  285   3.642   4.935   6.572
   39PMPE   C25  286   3.431   4.913   6.526
   39PMPE   H5R  287   3.338   4.903   6.587
   39PMPE   H5S  288   3.437   4.821   6.464
   39PMPE   C26  289   3.418   5.036   6.434
   39PMPE   H6R  290   3.387   5.125   6.494
   39PMPE   H6S  291   3.336   5.013   6.364
   39PMPE   C27  292   3.537   5.073   6.342
   39PMPE   H7R  293   3.629   5.084   6.403
   39PMPE   H7S  294   3.514   5.169   6.292
   39PMPE   C28  295   3.569   4.965   6.237
   39PMPE   H8R  296   3.562   4.880   6.300
   39PMPE   H8S  297   3.663   4.978   6.180
   39PMPE   C29  298   3.464   4.945   6.137
   39PMPE   H9R  299   3.411   5.036   6.137
   39PMPE  C217  300   3.388   4.816   6.117
   39PMPE  H17R  301   3.291   4.815   6.072
   39PMPE  H17S  302   3.418   4.737   6.182
   39PMPE  C210  303   3.487   4.865   6.012
   39PMPE  H10R  304   3.469   4.931   5.926
   39PMPE  C211  305   3.586   4.759   5.987
   39PMPE  H11R  306   3.538   4.659   5.974
   39PMPE  H11S  307   3.649   4.762   6.076
   39PMPE  C212  308   3.657   4.803   5.860
   39PMPE  H12R  309   3.578   4.829   5.786
   39PMPE  H12S  310   3.719   4.720   5.821
   39PMPE  C213  311   3.739   4.930   5.880
   39PMPE  H13R  312   3.821   4.901   5.949
   39PMPE  H13S  313   3.677   5.013   5.919
   39PMPE  C214  314   3.805   4.990   5.758
   39PMPE  H14R  315   3.882   4.918   5.754
   39PMPE  H14S  316   3.872   5.076   5.769
   39PMPE  C215  317   3.712   5.022   5.642
   39PMPE  H15R  318   3.641   4.939   5.625
   39PMPE  H15S  319   3.774   5.045   5.551
   39PMPE  C216  320   3.627   5.143   5.654
   39PMPE  H16R  321   3.534   5.121   5.709
   39PMPE  H16S  322   3.690   5.212   5.712
   39PMPE  H16T  323   3.605   5.181   5.552
   39PMPE   C33  324   4.067   5.149   6.699
   39PMPE   H3X  325   4.050   5.114   6.802
   39PMPE   H3Y  326   4.162   5.111   6.680
   39PMPE   C34  327   3.958   5.095   6.614
   39PMPE   H4X  328   3.893   5.170   6.566
   39PMPE   H4Y  329   3.901   5.016   6.671
   39PMPE   C35  330   4.003   5.019   6.500
   39PMPE   H5X  331   3.906   4.992   6.448
   39PMPE   H5Y  332   4.040   4.923   6.542
   39PMPE   C36  333   4.096   5.075   6.394
   39PMPE   H6X  334   4.145   4.982   6.356
   39PMPE   H6Y  335   4.199   5.090   6.405
   39PMPE   C37  336   4.038   5.187   6.299
   39PMPE   H7X  337   4.129   5.220   6.242
   39PMPE   H7Y  338   3.999   5.263   6.368
   39PMPE   C38  339   3.927   5.165   6.188
   39PMPE   H8X  340   3.843   5.098   6.214
   39PMPE   H8Y  341   3.978   5.122   6.101
   39PMPE   C39  342   3.889   5.264   6.081
   39PMPE   H9X  343   3.848   5.212   5.989
   39PMPE   H9Y  344   3.981   5.317   6.046
   39PMPE  C310  345   3.784   5.349   6.141
   39PMPE  H10X  346   3.837   5.413   6.214
   39PMPE  H10Y  347   3.710   5.286   6.196
   39PMPE  C311  348   3.718   5.431   6.032
   39PMPE  H11X  349   3.655   5.504   6.087
   39PMPE  H11Y  350   3.652   5.366   5.970
   39PMPE  C312  351   3.824   5.503   5.947
   39PMPE  H12X  352   3.885   5.433   5.884
   39PMPE  H12Y  353   3.895   5.547   6.021
   39PMPE  C313  354   3.765   5.616   5.863
   39PMPE  H13X  355   3.832   5.704   5.870
   39PMPE  H13Y  356   3.669   5.644   5.909
   39PMPE  C314  357   3.745   5.586   5.713
   39PMPE  H14X  358   3.840   5.542   5.675
   39PMPE  H14Y  359   3.730   5.683   5.660
   39PMPE  C315  360   3.625   5.495   5.684
   39PMPE  H15X  361   3.632   5.404   5.748
   39PMPE  H15Y  362   3.628   5.459   5.579
   39PMPE  C316  363   3.488   5.559   5.712
   39PMPE  H16X  364   3.408   5.487   5.690
   39PMPE  H16Y  365   3.472   5.650   5.650
   39PMPE  H16Z  366   3.477   5.585   5.819
   40PMPE     N  367   4.492   3.455   7.161
   40PMPE   HN1  368   4.493   3.558   7.146
   40PMPE   HN2  369   4.587   3.416   7.143
   40PMPE   HN3  370   4.419   3.409   7.103
   40PMPE   C12  371   4.458   3.438   7.306
   40PMPE  H12A  372   4.423   3.334   7.321
   40PMPE  H12B  373   4.375   3.509   7.326
   40PMPE   C11  374   4.578   3.473   7.397
   40PMPE  H11A  375   4.659   3.397   7.386
   40PMPE  H11B  376   4.542   3.465   7.503
   40PMPE     P  377   4.615   3.718   7.476
   40PMPE   O13  378   4.708   3.686   7.586
   40PMPE   O14  379   4.471   3.729   7.506
   40PMPE   O11  380   4.669   3.844   7.406
   40PMPE   O12  381   4.631   3.602   7.366
   40PMPE    C1  382   4.734   3.842   7.282
   40PMPE    HA  383   4.727   3.745   7.226
   40PMPE    HB  384   4.840   3.870   7.289
   40PMPE    C2  385   4.664   3.946   7.206
   40PMPE    HS  386   4.696   4.050   7.233
   40PMPE   O21  387   4.524   3.921   7.226
   40PMPE   C21  388   4.476   3.995   7.139
   40PMPE   O22  389   4.532   4.090   7.089
   40PMPE   C22  390   4.360   3.925   7.076
   40PMPE   H2R  391   4.288   4.007   7.059
   40PMPE   H2S  392   4.451   3.903   7.016
   40PMPE    C3  393   4.710   3.919   7.067
   40PMPE    HX  394   4.816   3.931   7.081
   40PMPE    HY  395   4.708   4.017   7.006
   40PMPE   O31  396   4.657   3.779   7.026
   40PMPE   C31  397   4.634   3.785   6.899
   40PMPE   O32  398   4.653   3.900   6.855
   40PMPE   C32  399   4.588   3.631   6.817
   40PMPE   H2X  400   4.526   3.587   6.892
   40PMPE   H2Y  401   4.662   3.547   6.817
   40PMPE   C23  402   4.327   3.816   6.965
   40PMPE   H3R  403   4.219   3.806   6.946
   40PMPE   H3S  404   4.365   3.720   6.999
   40PMPE   C24  405   4.369   3.851   6.825
   40PMPE   H4R  406   4.328   3.792   6.744
   40PMPE   H4S  407   4.462   3.891   6.816
   40PMPE   C25  408   4.362   3.992   6.793
   40PMPE   H5R  409   4.347   4.064   6.870
   40PMPE   H5S  410   4.259   3.977   6.827
   40PMPE   C26  411   4.412   4.052   6.640
   40PMPE   H6R  412   4.473   3.965   6.631
   40PMPE   H6S  413   4.447   4.153   6.681
   40PMPE   C27  414   4.324   4.077   6.493
   40PMPE   H7R  415   4.223   4.114   6.478
   40PMPE   H7S  416   4.259   3.995   6.460
   40PMPE   C28  417   4.363   4.164   6.384
   40PMPE   H8R  418   4.393   4.256   6.440
   40PMPE   H8S  419   4.277   4.182   6.311
   40PMPE   C29  420   4.447   4.045   6.360
   40PMPE   H9R  421   4.423   3.937   6.388
   40PMPE  C217  422   4.583   4.084   6.412
   40PMPE  H17R  423   4.619   3.998   6.460
   40PMPE  H17S  424   4.584   4.186   6.451
   40PMPE  C210  425   4.552   4.062   6.266
   40PMPE  H10R  426   4.585   3.965   6.227
   40PMPE  C211  427   4.541   4.189   6.187
   40PMPE  H11R  428   4.579   4.273   6.250
   40PMPE  H11S  429   4.436   4.213   6.159
   40PMPE  C212  430   4.628   4.177   6.063
   40PMPE  H12R  431   4.733   4.164   6.096
   40PMPE  H12S  432   4.624   4.274   6.010
   40PMPE  C213  433   4.596   4.059   5.969
   40PMPE  H13R  434   4.613   3.963   6.023
   40PMPE  H13S  435   4.670   4.061   5.886
   40PMPE  C214  436   4.454   4.058   5.908
   40PMPE  H14R  437   4.449   4.128   5.822
   40PMPE  H14S  438   4.384   4.099   5.984
   40PMPE  C215  439   4.404   3.915   5.875
   40PMPE  H15R  440   4.292   3.917   5.868
   40PMPE  H15S  441   4.436   3.846   5.954
   40PMPE  C216  442   4.448   3.854   5.744
   40PMPE  H16R  443   4.392   3.905   5.668
   40PMPE  H16S  444   4.549   3.880   5.720
   40PMPE  H16T  445   4.433   3.744   5.734
   40PMPE   C33  446   4.570   3.581   6.654
   40PMPE   H3X  447   4.484   3.641   6.623
   40PMPE   H3Y  448   4.554   3.472   6.662
   40PMPE   C34  449   4.675   3.587   6.528
   40PMPE   H4X  450   4.782   3.563   6.540
   40PMPE   H4Y  451   4.672   3.688   6.480
   40PMPE   C35  452   4.650   3.541   6.389
   40PMPE   H5X  453   4.562   3.601   6.353
   40PMPE   H5Y  454   4.630   3.436   6.412
   40PMPE   C36  455   4.774   3.561   6.298
   40PMPE   H6X  456   4.871   3.537   6.347
   40PMPE   H6Y  457   4.791   3.666   6.264
   40PMPE   C37  458   4.755   3.466   6.181
   40PMPE   H7X  459   4.706   3.374   6.219
   40PMPE   H7Y  460   4.852   3.435   6.137
   40PMPE   C38  461   4.667   3.528   6.074
   40PMPE   H8X  462   4.730   3.608   6.035
   40PMPE   H8Y  463   4.575   3.577   6.115
   40PMPE   C39  464   4.629   3.431   5.963
   40PMPE   H9X  465   4.718   3.372   5.930
   40PMPE   H9Y  466   4.589   3.486   5.875
   40PMPE  C310  467   4.518   3.340   6.013
   40PMPE  H10X  468   4.447   3.394   6.079
   40PMPE  H10Y  469   4.570   3.274   6.080
   40PMPE  C311  470   4.440   3.268   5.903
   40PMPE  H11X  471   4.382   3.189   5.954
   40PMPE  H11Y  472   4.512   3.227   5.829
   40PMPE  C312  473   4.336   3.357   5.836
   40PMPE  H12X  474   4.388   3.452   5.814
   40PMPE  H12Y  475   4.254   3.375   5.909
   40PMPE  C313  476   4.273   3.311   5.705
   40PMPE  H13X  477   4.226   3.213   5.727
   40PMPE  H13Y  478   4.347   3.286   5.628
   40PMPE  C314  479   4.178   3.424   5.652
   40PMPE  H14X  480   4.219   3.523   5.676
   40PMPE  H14Y  481   4.082   3.416   5.708
   40PMPE  C315  482   4.151   3.442   5.500
   40PMPE  H15X  483   4.047   3.469   5.478
   40PMPE  H15Y  484   4.118   3.357   5.448
   40PMPE  C316  485   4.264   3.425   5.406
   40PMPE  H16X  486   4.239   3.441   5.300
   40PMPE  H16Y  487   4.295   3.316   5.408
   40PMPE  H16Z  488   4.339   3.494   5.442
   41PMPE     N  489   5.272   4.351   7.495
   41PMPE   HN1  490   5.356   4.296   7.523
   41PMPE   HN2  491   5.280   4.454   7.510
   41PMPE   HN3  492   5.188   4.310   7.540
   41PMPE   C12  493   5.259   4.331   7.347
   41PMPE  H12A  494   5.359   4.352   7.304
   41PMPE  H12B  495   5.187   4.408   7.311
   41PMPE   C11  496   5.218   4.187   7.308
   41PMPE  H11A  497   5.240   4.178   7.199
   41PMPE  H11B  498   5.107   4.179   7.319
   41PMPE     P  499   5.207   3.946   7.409
   41PMPE   O13  500   5.085   3.977   7.484
   41PMPE   O14  501   5.295   3.839   7.465
   41PMPE   O11  502   5.170   3.900   7.262
   41PMPE   O12  503   5.287   4.084   7.383
   41PMPE    C1  504   5.278   3.848   7.183
   41PMPE    HA  505   5.298   3.743   7.215
   41PMPE    HB  506   5.371   3.908   7.194
   41PMPE    C2  507   5.254   3.849   7.031
   41PMPE    HS  508   5.247   3.954   6.993
   41PMPE   O21  509   5.136   3.775   7.006
   41PMPE   C21  510   5.034   3.852   7.015
   41PMPE   O22  511   5.027   3.971   7.038
   41PMPE   C22  512   4.927   3.774   6.959
   41PMPE   H2R  513   4.869   3.855   6.911
   41PMPE   H2S  514   4.869   3.715   7.035
   41PMPE    C3  515   5.369   3.779   6.957
   41PMPE    HX  516   5.377   3.675   6.999
   41PMPE    HY  517   5.461   3.834   6.986
   41PMPE   O31  518   5.355   3.784   6.814
   41PMPE   C31  519   5.327   3.671   6.749
   41PMPE   O32  520   5.308   3.562   6.800
   41PMPE   C32  521   5.336   3.698   6.599
   41PMPE   H2X  522   5.414   3.775   6.581
   41PMPE   H2Y  523   5.240   3.740   6.563
   41PMPE   C23  524   4.963   3.702   6.833
   41PMPE   H3R  525   4.994   3.598   6.863
   41PMPE   H3S  526   5.020   3.755   6.755
   41PMPE   C24  527   4.839   3.683   6.757
   41PMPE   H4R  528   4.805   3.638   6.855
   41PMPE   H4S  529   4.862   3.599   6.695
   41PMPE   C25  530   4.760   3.791   6.668
   41PMPE   H5R  531   4.652   3.820   6.678
   41PMPE   H5S  532   4.662   3.786   6.617
   41PMPE   C26  533   4.824   3.894   6.602
   41PMPE   H6R  534   4.890   3.930   6.681
   41PMPE   H6S  535   4.745   3.969   6.586
   41PMPE   C27  536   4.878   3.824   6.483
   41PMPE   H7R  537   4.804   3.814   6.400
   41PMPE   H7S  538   4.912   3.721   6.510
   41PMPE   C28  539   4.998   3.897   6.446
   41PMPE   H8R  540   5.043   3.832   6.370
   41PMPE   H8S  541   5.061   3.903   6.537
   41PMPE   C29  542   4.956   4.035   6.401
   41PMPE   H9R  543   4.925   4.112   6.474
   41PMPE  C217  544   4.884   4.039   6.267
   41PMPE  H17R  545   4.811   4.119   6.269
   41PMPE  H17S  546   4.865   3.940   6.229
   41PMPE  C210  547   5.028   4.084   6.281
   41PMPE  H10R  548   5.052   4.189   6.292
   41PMPE  C211  549   5.136   3.992   6.231
   41PMPE  H11R  550   5.092   3.904   6.179
   41PMPE  H11S  551   5.203   3.956   6.312
   41PMPE  C212  552   5.221   4.069   6.137
   41PMPE  H12R  553   5.314   4.012   6.119
   41PMPE  H12S  554   5.251   4.170   6.172
   41PMPE  C213  555   5.163   4.081   6.002
   41PMPE  H13R  556   5.075   4.152   6.005
   41PMPE  H13S  557   5.114   3.989   5.964
   41PMPE  C214  558   5.298   4.123   5.931
   41PMPE  H14R  559   5.363   4.051   5.883
   41PMPE  H14S  560   5.332   4.227   5.931
   41PMPE  C215  561   5.287   4.130   5.795
   41PMPE  H15R  562   5.192   4.181   5.816
   41PMPE  H15S  563   5.207   4.043   5.779
   41PMPE  C216  564   5.411   4.195   5.675
   41PMPE  H16R  565   5.370   4.225   5.573
   41PMPE  H16S  566   5.422   4.298   5.650
   41PMPE  H16T  567   5.424   4.160   5.570
   41PMPE   C33  568   5.365   3.568   6.521
   41PMPE   H3X  569   5.436   3.504   6.577
   41PMPE   H3Y  570   5.411   3.591   6.422
   41PMPE   C34  571   5.238   3.486   6.492
   41PMPE   H4X  572   5.181   3.469   6.587
   41PMPE   H4Y  573   5.273   3.389   6.453
   41PMPE   C35  574   5.137   3.545   6.393
   41PMPE   H5X  575   5.079   3.624   6.445
   41PMPE   H5Y  576   5.068   3.461   6.369
   41PMPE   C36  577   5.194   3.604   6.263
   41PMPE   H6X  578   5.275   3.538   6.225
   41PMPE   H6Y  579   5.238   3.703   6.290
   41PMPE   C37  580   5.087   3.618   6.152
   41PMPE   H7X  581   5.005   3.680   6.193
   41PMPE   H7Y  582   5.048   3.518   6.125
   41PMPE   C38  583   5.131   3.685   6.022
   41PMPE   H8X  584   5.202   3.622   5.964
   41PMPE   H8Y  585   5.182   3.779   6.053
   41PMPE   C39  586   5.020   3.739   5.933
   41PMPE   H9X  587   5.066   3.811   5.861
   41PMPE   H9Y  588   4.953   3.796   6.001
   41PMPE  C310  589   4.940   3.637   5.853
   41PMPE  H10X  590   4.927   3.544   5.913
   41PMPE  H10Y  591   4.997   3.611   5.761
   41PMPE  C311  592   4.805   3.694   5.807
   41PMPE  H11X  593   4.734   3.715   5.889
   41PMPE  H11Y  594   4.754   3.624   5.739
   41PMPE  C312  595   4.818   3.832   5.750
   41PMPE  H12X  596   4.848   3.907   5.826
   41PMPE  H12Y  597   4.721   3.865   5.716
   41PMPE  C313  598   4.897   3.850   5.625
   41PMPE  H13X  599   4.874   3.769   5.553
   41PMPE  H13Y  600   5.005   3.847   5.650
   41PMPE  C314  601   4.843   3.989   5.586
   41PMPE  H14X  602   4.855   4.060   5.664
   41PMPE  H14Y  603   4.735   3.992   5.557
   41PMPE  C315  604   4.903   4.047   5.474
   41PMPE  H15X  605   5.011   4.032   5.488
   41PMPE  H15Y  606   4.886   4.158   5.449
   41PMPE  C316  607   4.837   3.960   5.383
   41PMPE  H16X  608   4.771   3.977   5.301
   41PMPE  H16Y  609   4.868   3.853   5.382
   41PMPE  H16Z  610   4.913   4.026   5.345
   42PMPE     N  611   3.243   3.109   7.724
   42PMPE   HN1  612   3.177   3.042   7.769
   42PMPE   HN2  613   3.337   3.105   7.769
   42PMPE   HN3  614   3.200   3.204   7.736
   42PMPE   C12  615   3.256   3.090   7.575
   42PMPE  H12A  616   3.277   2.983   7.554
   42PMPE  H12B  617   3.344   3.149   7.543
   42PMPE   C11  618   3.133   3.145   7.499
   42PMPE  H11A  619   3.106   3.247   7.532
   42PMPE  H11B  620   3.041   3.084   7.513
   42PMPE     P  621   3.193   3.022   7.279
   42PMPE   O13  622   3.096   2.920   7.323
   42PMPE   O14  623   3.337   2.992   7.290
   42PMPE   O11  624   3.155   3.070   7.136
   42PMPE   O12  625   3.165   3.154   7.361
   42PMPE    C1  626   3.016   3.087   7.106
   42PMPE    HA  627   2.957   3.140   7.185
   42PMPE    HB  628   2.968   2.987   7.095
   42PMPE    C2  629   3.009   3.170   6.975
   42PMPE    HS  630   2.909   3.149   6.927
   42PMPE   O21  631   3.125   3.152   6.883
   42PMPE   C21  632   3.114   3.027   6.846
   42PMPE   O22  633   3.015   2.965   6.874
   42PMPE   C22  634   3.240   2.971   6.773
   42PMPE   H2R  635   3.320   2.975   6.849
   42PMPE   H2S  636   3.261   3.029   6.682
   42PMPE    C3  637   3.007   3.318   7.012
   42PMPE    HX  638   3.081   3.330   7.093
   42PMPE    HY  639   2.907   3.351   7.046
   42PMPE   O31  640   3.050   3.396   6.904
   42PMPE   C31  641   2.989   3.368   6.791
   42PMPE   O32  642   2.885   3.307   6.773
   42PMPE   C32  643   3.067   3.431   6.687
   42PMPE   H2X  644   3.155   3.386   6.642
   42PMPE   H2Y  645   3.123   3.513   6.740
   42PMPE   C23  646   3.234   2.822   6.733
   42PMPE   H3R  647   3.155   2.813   6.658
   42PMPE   H3S  648   3.219   2.772   6.830
   42PMPE   C24  649   3.353   2.748   6.673
   42PMPE   H4R  650   3.321   2.644   6.646
   42PMPE   H4S  651   3.428   2.737   6.754
   42PMPE   C25  652   3.414   2.822   6.554
   42PMPE   H5R  653   3.509   2.768   6.531
   42PMPE   H5S  654   3.440   2.925   6.586
   42PMPE   C26  655   3.331   2.833   6.425
   42PMPE   H6R  656   3.394   2.888   6.352
   42PMPE   H6S  657   3.239   2.895   6.438
   42PMPE   C27  658   3.294   2.697   6.368
   42PMPE   H7R  659   3.197   2.664   6.412
   42PMPE   H7S  660   3.368   2.621   6.402
   42PMPE   C28  661   3.297   2.693   6.215
   42PMPE   H8R  662   3.274   2.588   6.187
   42PMPE   H8S  663   3.393   2.718   6.169
   42PMPE   C29  664   3.204   2.792   6.150
   42PMPE   H9R  665   3.174   2.886   6.202
   42PMPE  C217  666   3.091   2.700   6.155
   42PMPE  H17R  667   3.021   2.746   6.209
   42PMPE  H17S  668   3.085   2.594   6.157
   42PMPE  C210  669   3.123   2.768   6.026
   42PMPE  H10R  670   3.054   2.848   5.996
   42PMPE  C211  671   3.180   2.686   5.916
   42PMPE  H11R  672   3.103   2.679   5.836
   42PMPE  H11S  673   3.188   2.587   5.959
   42PMPE  C212  674   3.323   2.728   5.871
   42PMPE  H12R  675   3.389   2.719   5.958
   42PMPE  H12S  676   3.310   2.831   5.834
   42PMPE  C213  677   3.390   2.641   5.763
   42PMPE  H13R  678   3.301   2.636   5.711
   42PMPE  H13S  679   3.412   2.535   5.787
   42PMPE  C214  680   3.490   2.685   5.659
   42PMPE  H14R  681   3.486   2.614   5.572
   42PMPE  H14S  682   3.585   2.666   5.709
   42PMPE  C215  683   3.478   2.828   5.607
   42PMPE  H15R  684   3.484   2.900   5.691
   42PMPE  H15S  685   3.379   2.837   5.556
   42PMPE  C216  686   3.582   2.859   5.500
   42PMPE  H16R  687   3.594   2.766   5.440
   42PMPE  H16S  688   3.560   2.947   5.439
   42PMPE  H16T  689   3.678   2.889   5.539
   42PMPE   C33  690   2.958   3.469   6.582
   42PMPE   H3X  691   3.041   3.521   6.537
   42PMPE   H3Y  692   2.877   3.543   6.602
   42PMPE   C34  693   2.910   3.387   6.471
   42PMPE   H4X  694   2.847   3.449   6.401
   42PMPE   H4Y  695   2.845   3.316   6.525
   42PMPE   C35  696   3.032   3.332   6.402
   42PMPE   H5X  697   3.093   3.278   6.477
   42PMPE   H5Y  698   3.097   3.413   6.361
   42PMPE   C36  699   2.987   3.239   6.294
   42PMPE   H6X  700   2.914   3.291   6.227
   42PMPE   H6Y  701   2.933   3.159   6.348
   42PMPE   C37  702   3.102   3.180   6.213
   42PMPE   H7X  703   3.055   3.111   6.141
   42PMPE   H7Y  704   3.168   3.123   6.282
   42PMPE   C38  705   3.185   3.285   6.136
   42PMPE   H8X  706   3.246   3.346   6.207
   42PMPE   H8Y  707   3.115   3.353   6.084
   42PMPE   C39  708   3.284   3.228   6.032
   42PMPE   H9X  709   3.233   3.160   5.961
   42PMPE   H9Y  710   3.363   3.171   6.087
   42PMPE  C310  711   3.349   3.344   5.955
   42PMPE  H10X  712   3.398   3.409   6.031
   42PMPE  H10Y  713   3.267   3.404   5.910
   42PMPE  C311  714   3.459   3.311   5.852
   42PMPE  H11X  715   3.545   3.256   5.892
   42PMPE  H11Y  716   3.493   3.408   5.807
   42PMPE  C312  717   3.411   3.233   5.734
   42PMPE  H12X  718   3.356   3.140   5.764
   42PMPE  H12Y  719   3.491   3.207   5.661
   42PMPE  C313  720   3.323   3.332   5.666
   42PMPE  H13X  721   3.359   3.430   5.630
   42PMPE  H13Y  722   3.227   3.334   5.724
   42PMPE  C314  723   3.292   3.289   5.536
   42PMPE  H14X  724   3.270   3.191   5.584
   42PMPE  H14Y  725   3.355   3.233   5.463
   42PMPE  C315  726   3.176   3.391   5.497
   42PMPE  H15X  727   3.165   3.352   5.395
   42PMPE  H15Y  728   3.187   3.481   5.435
   42PMPE  C316  729   3.046   3.408   5.598
   42PMPE  H16X  730   3.021   3.507   5.633
   42PMPE  H16Y  731   3.012   3.321   5.660
   42PMPE  H16Z  732   2.948   3.391   5.557
   43PMPE     N  733   2.651   5.208   7.315
   43PMPE   HN1  734   2.564   5.155   7.335
   43PMPE   HN2  735   2.629   5.295   7.262
   43PMPE   HN3  736   2.716   5.152   7.255
   43PMPE   C12  737   2.721   5.248   7.443
   43PMPE  H12A  738   2.765   5.158   7.490
   43PMPE  H12B  739   2.642   5.287   7.512
   43PMPE   C11  740   2.825   5.362   7.425
   43PMPE  H11A  741   2.859   5.394   7.525
   43PMPE  H11B  742   2.778   5.448   7.373
   43PMPE     P  743   3.063   5.253   7.401
   43PMPE   O13  744   3.012   5.119   7.438
   43PMPE   O14  745   3.122   5.339   7.506
   43PMPE   O11  746   3.156   5.244   7.273
   43PMPE   O12  747   2.937   5.328   7.345
   43PMPE    C1  748   3.195   5.364   7.203
   43PMPE    HA  749   3.292   5.345   7.152
   43PMPE    HB  750   3.217   5.448   7.273
   43PMPE    C2  751   3.093   5.411   7.095
   43PMPE    HS  752   3.002   5.449   7.146
   43PMPE   O21  753   3.059   5.304   7.004
   43PMPE   C21  754   2.939   5.252   7.016
   43PMPE   O22  755   2.857   5.269   7.105
   43PMPE   C22  756   2.908   5.168   6.896
   43PMPE   H2R  757   2.927   5.224   6.803
   43PMPE   H2S  758   2.799   5.142   6.898
   43PMPE    C3  759   3.147   5.532   7.016
   43PMPE    HX  760   3.242   5.511   6.962
   43PMPE    HY  761   3.171   5.613   7.088
   43PMPE   O31  762   3.045   5.576   6.926
   43PMPE   C31  763   3.052   5.516   6.807
   43PMPE   O32  764   3.140   5.444   6.766
   43PMPE   C32  765   2.935   5.555   6.724
   43PMPE   H2X  766   2.958   5.661   6.701
   43PMPE   H2Y  767   2.848   5.543   6.794
   43PMPE   C23  768   2.994   5.044   6.899
   43PMPE   H3R  769   2.986   4.988   6.996
   43PMPE   H3S  770   3.100   5.062   6.873
   43PMPE   C24  771   2.940   4.950   6.800
   43PMPE   H4R  772   2.830   4.945   6.821
   43PMPE   H4S  773   3.001   4.857   6.816
   43PMPE   C25  774   2.945   4.969   6.654
   43PMPE   H5R  775   2.858   5.022   6.611
   43PMPE   H5S  776   2.930   4.862   6.636
   43PMPE   C26  777   3.081   4.993   6.594
   43PMPE   H6R  778   3.140   4.898   6.607
   43PMPE   H6S  779   3.131   5.069   6.656
   43PMPE   C27  780   3.071   5.049   6.451
   43PMPE   H7R  781   3.171   5.086   6.427
   43PMPE   H7S  782   2.994   5.127   6.446
   43PMPE   C28  783   3.042   4.964   6.331
   43PMPE   H8R  784   2.961   4.891   6.343
   43PMPE   H8S  785   3.139   4.925   6.293
   43PMPE   C29  786   2.973   5.015   6.217
   43PMPE   H9R  787   2.865   5.032   6.230
   43PMPE  C217  788   3.018   4.941   6.091
   43PMPE  H17R  789   2.959   4.948   6.010
   43PMPE  H17S  790   3.085   4.856   6.095
   43PMPE  C210  791   3.048   5.083   6.117
   43PMPE  H10R  792   2.985   5.148   6.057
   43PMPE  C211  793   3.192   5.081   6.121
   43PMPE  H11R  794   3.224   4.978   6.114
   43PMPE  H11S  795   3.229   5.106   6.221
   43PMPE  C212  796   3.250   5.148   5.999
   43PMPE  H12R  797   3.361   5.153   6.001
   43PMPE  H12S  798   3.214   5.250   6.007
   43PMPE  C213  799   3.211   5.091   5.864
   43PMPE  H13R  800   3.273   5.144   5.789
   43PMPE  H13S  801   3.103   5.103   5.844
   43PMPE  C214  802   3.223   4.943   5.844
   43PMPE  H14R  803   3.141   4.882   5.885
   43PMPE  H14S  804   3.297   4.895   5.900
   43PMPE  C215  805   3.242   4.908   5.700
   43PMPE  H15R  806   3.146   4.917   5.647
   43PMPE  H15S  807   3.266   4.806   5.733
   43PMPE  C216  808   3.354   4.965   5.615
   43PMPE  H16R  809   3.451   4.926   5.650
   43PMPE  H16S  810   3.337   4.935   5.509
   43PMPE  H16T  811   3.360   5.074   5.609
   43PMPE   C33  812   2.911   5.489   6.584
   43PMPE   H3X  813   2.935   5.382   6.598
   43PMPE   H3Y  814   2.984   5.538   6.515
   43PMPE   C34  815   2.770   5.493   6.517
   43PMPE   H4X  816   2.720   5.589   6.495
   43PMPE   H4Y  817   2.697   5.446   6.586
   43PMPE   C35  818   2.768   5.443   6.374
   43PMPE   H5X  819   2.664   5.407   6.354
   43PMPE   H5Y  820   2.842   5.362   6.367
   43PMPE   C36  821   2.796   5.551   6.270
   43PMPE   H6X  822   2.887   5.612   6.288
   43PMPE   H6Y  823   2.711   5.624   6.276
   43PMPE   C37  824   2.802   5.491   6.129
   43PMPE   H7X  825   2.830   5.570   6.063
   43PMPE   H7Y  826   2.704   5.452   6.095
   43PMPE   C38  827   2.921   5.412   6.079
   43PMPE   H8X  828   2.884   5.353   5.992
   43PMPE   H8Y  829   2.948   5.347   6.164
   43PMPE   C39  830   3.047   5.494   6.036
   43PMPE   H9X  831   3.130   5.421   6.033
   43PMPE   H9Y  832   3.071   5.566   6.117
   43PMPE  C310  833   3.051   5.564   5.899
   43PMPE  H10X  834   3.113   5.657   5.901
   43PMPE  H10Y  835   2.953   5.599   5.866
   43PMPE  C311  836   3.105   5.474   5.788
   43PMPE  H11X  837   3.051   5.377   5.784
   43PMPE  H11Y  838   3.212   5.453   5.809
   43PMPE  C312  839   3.091   5.537   5.650
   43PMPE  H12X  840   3.131   5.640   5.651
   43PMPE  H12Y  841   2.984   5.544   5.620
   43PMPE  C313  842   3.163   5.444   5.553
   43PMPE  H13X  843   3.101   5.352   5.542
   43PMPE  H13Y  844   3.260   5.412   5.595
   43PMPE  C314  845   3.194   5.507   5.419
   43PMPE  H14X  846   3.105   5.556   5.386
   43PMPE  H14Y  847   3.209   5.421   5.350
   43PMPE  C315  848   3.303   5.620   5.424
   43PMPE  H15X  849   3.391   5.567   5.461
   43PMPE  H15Y  850   3.280   5.689   5.506
   43PMPE  C316  851   3.345   5.698   5.292
   43PMPE  H16X  852   3.269   5.742   5.235
   43PMPE  H16Y  853   3.327   5.651   5.200
   43PMPE  H16Z  854   3.407   5.787   5.297
   44PMPE     N  855   4.040   6.302   7.696
   44PMPE   HN1  856   4.098   6.383   7.729
   44PMPE   HN2  857   3.952   6.342   7.660
   44PMPE   HN3  858   4.019   6.241   7.778
   44PMPE   C12  859   4.109   6.224   7.585
   44PMPE  H12A  860   4.043   6.139   7.557
   44PMPE  H12B  861   4.204   6.184   7.624
   44PMPE   C11  862   4.134   6.311   7.460
   44PMPE  H11A  863   4.145   6.417   7.495
   44PMPE  H11B  864   4.045   6.309   7.392
   44PMPE     P  865   4.245   6.153   7.282
   44PMPE   O13  866   4.183   6.209   7.160
   44PMPE   O14  867   4.180   6.038   7.349
   44PMPE   O11  868   4.395   6.117   7.254
   44PMPE   O12  869   4.253   6.271   7.391
   44PMPE    C1  870   4.506   6.171   7.325
   44PMPE    HA  871   4.540   6.100   7.403
   44PMPE    HB  872   4.483   6.268   7.375
   44PMPE    C2  873   4.622   6.196   7.227
   44PMPE    HS  874   4.691   6.268   7.272
   44PMPE   O21  875   4.575   6.249   7.103
   44PMPE   C21  876   4.517   6.365   7.113
   44PMPE   O22  877   4.509   6.436   7.212
   44PMPE   C22  878   4.481   6.407   6.972
   44PMPE   H2R  879   4.539   6.348   6.897
   44PMPE   H2S  880   4.502   6.515   6.964
   44PMPE    C3  881   4.704   6.068   7.198
   44PMPE    HX  882   4.748   6.031   7.293
   44PMPE    HY  883   4.788   6.087   7.128
   44PMPE   O31  884   4.619   5.966   7.149
   44PMPE   C31  885   4.590   5.972   7.023
   44PMPE   O32  886   4.654   6.027   6.934
   44PMPE   C32  887   4.476   5.881   7.007
   44PMPE   H2X  888   4.428   5.851   7.103
   44PMPE   H2Y  889   4.532   5.792   6.977
   44PMPE   C23  890   4.337   6.393   6.944
   44PMPE   H3R  891   4.287   6.451   7.025
   44PMPE   H3S  892   4.318   6.284   6.950
   44PMPE   C24  893   4.297   6.444   6.807
   44PMPE   H4R  894   4.282   6.556   6.810
   44PMPE   H4S  895   4.206   6.393   6.774
   44PMPE   C25  896   4.397   6.423   6.698
   44PMPE   H5R  897   4.459   6.331   6.690
   44PMPE   H5S  898   4.460   6.504   6.726
   44PMPE   C26  899   4.336   6.465   6.569
   44PMPE   H6R  900   4.317   6.576   6.567
   44PMPE   H6S  901   4.248   6.405   6.539
   44PMPE   C27  902   4.436   6.446   6.468
   44PMPE   H7R  903   4.478   6.342   6.470
   44PMPE   H7S  904   4.520   6.515   6.484
   44PMPE   C28  905   4.373   6.480   6.336
   44PMPE   H8R  906   4.324   6.394   6.296
   44PMPE   H8S  907   4.470   6.522   6.296
   44PMPE   C29  908   4.281   6.579   6.292
   44PMPE   H9R  909   4.327   6.637   6.365
   44PMPE  C217  910   4.136   6.559   6.268
   44PMPE  H17R  911   4.086   6.627   6.335
   44PMPE  H17S  912   4.118   6.455   6.252
   44PMPE  C210  913   4.219   6.618   6.152
   44PMPE  H10R  914   4.177   6.716   6.116
   44PMPE  C211  915   4.214   6.555   6.021
   44PMPE  H11R  916   4.156   6.625   5.952
   44PMPE  H11S  917   4.172   6.456   6.031
   44PMPE  C212  918   4.350   6.548   5.967
   44PMPE  H12R  919   4.396   6.453   5.976
   44PMPE  H12S  920   4.415   6.609   6.026
   44PMPE  C213  921   4.357   6.597   5.829
   44PMPE  H13R  922   4.465   6.580   5.805
   44PMPE  H13S  923   4.320   6.703   5.828
   44PMPE  C214  924   4.288   6.515   5.727
   44PMPE  H14R  925   4.193   6.484   5.774
   44PMPE  H14S  926   4.357   6.428   5.718
   44PMPE  C215  927   4.265   6.585   5.591
   44PMPE  H15R  928   4.175   6.650   5.598
   44PMPE  H15S  929   4.241   6.501   5.522
   44PMPE  C216  930   4.377   6.664   5.522
   44PMPE  H16R  931   4.476   6.615   5.533
   44PMPE  H16S  932   4.355   6.682   5.415
   44PMPE  H16T  933   4.385   6.766   5.561
   44PMPE   C33  934   4.370   5.955   6.924
   44PMPE   H3X  935   4.344   6.057   6.955
   44PMPE   H3Y  936   4.277   5.896   6.948
   44PMPE   C34  937   4.406   5.973   6.773
   44PMPE   H4X  938   4.425   5.865   6.782
   44PMPE   H4Y  939   4.508   5.968   6.733
   44PMPE   C35  940   4.288   6.030   6.673
   44PMPE   H5X  941   4.275   6.135   6.702
   44PMPE   H5Y  942   4.185   5.998   6.702
   44PMPE   C36  943   4.266   6.003   6.515
   44PMPE   H6X  944   4.172   5.948   6.490
   44PMPE   H6Y  945   4.325   5.938   6.450
   44PMPE   C37  946   4.318   6.113   6.434
   44PMPE   H7X  947   4.383   6.081   6.346
   44PMPE   H7Y  948   4.381   6.169   6.505
   44PMPE   C38  949   4.191   6.172   6.390
   44PMPE   H8X  950   4.215   6.275   6.367
   44PMPE   H8Y  951   4.115   6.170   6.471
   44PMPE   C39  952   4.147   6.092   6.271
   44PMPE   H9X  953   4.112   5.989   6.299
   44PMPE   H9Y  954   4.230   6.081   6.198
   44PMPE  C310  955   4.034   6.151   6.198
   44PMPE  H10X  956   4.041   6.261   6.180
   44PMPE  H10Y  957   3.944   6.138   6.264
   44PMPE  C311  958   4.033   6.065   6.070
   44PMPE  H11X  959   3.934   6.039   6.038
   44PMPE  H11Y  960   4.042   5.958   6.090
   44PMPE  C312  961   4.118   6.116   5.952
   44PMPE  H12X  962   4.222   6.100   5.983
   44PMPE  H12Y  963   4.108   6.226   5.934
   44PMPE  C313  964   4.086   6.038   5.822
   44PMPE  H13X  965   4.016   6.090   5.758
   44PMPE  H13Y  966   4.039   5.941   5.850
   44PMPE  C314  967   4.194   6.031   5.720
   44PMPE  H14X  968   4.181   5.945   5.651
   44PMPE  H14Y  969   4.275   6.011   5.793
   44PMPE  C315  970   4.226   6.164   5.644
   44PMPE  H15X  971   4.312   6.149   5.575
   44PMPE  H15Y  972   4.252   6.242   5.717
   44PMPE  C316  973   4.123   6.217   5.550
   44PMPE  H16X  974   4.144   6.307   5.489
   44PMPE  H16Y  975   4.025   6.220   5.589
   44PMPE  H16Z  976   4.123   6.135   5.484
   45PMPE     N  977   2.305   4.853   7.606
   45PMPE   HN1  978   2.221   4.842   7.665
   45PMPE   HN2  979   2.379   4.784   7.635
   45PMPE   HN3  980   2.341   4.948   7.617
   45PMPE   C12  981   2.276   4.823   7.462
   45PMPE  H12A  982   2.352   4.876   7.401
   45PMPE  H12B  983   2.176   4.863   7.436
   45PMPE   C11  984   2.291   4.673   7.445
   45PMPE  H11A  985   2.237   4.639   7.354
   45PMPE  H11B  986   2.245   4.617   7.529
   45PMPE     P  987   2.487   4.555   7.327
   45PMPE   O13  988   2.407   4.432   7.319
   45PMPE   O14  989   2.633   4.543   7.346
   45PMPE   O11  990   2.454   4.652   7.209
   45PMPE   O12  991   2.429   4.639   7.448
   45PMPE    C1  992   2.524   4.775   7.195
   45PMPE    HA  993   2.622   4.777   7.249
   45PMPE    HB  994   2.462   4.859   7.230
   45PMPE    C2  995   2.552   4.793   7.047
   45PMPE    HS  996   2.598   4.892   7.027
   45PMPE   O21  997   2.436   4.779   6.964
   45PMPE   C21  998   2.353   4.877   6.962
   45PMPE   O22  999   2.347   4.970   7.040
   45PMPE   C22 1000   2.268   4.863   6.838
   45PMPE   H2R 1001   2.181   4.806   6.878
   45PMPE   H2S 1002   2.323   4.810   6.757
   45PMPE    C3 1003   2.650   4.685   7.005
   45PMPE    HX 1004   2.633   4.584   7.044
   45PMPE    HY 1005   2.746   4.716   7.054
   45PMPE   O31 1006   2.635   4.679   6.861
   45PMPE   C31 1007   2.742   4.719   6.805
   45PMPE   O32 1008   2.850   4.718   6.864
   45PMPE   C32 1009   2.706   4.752   6.658
   45PMPE   H2X 1010   2.762   4.822   6.598
   45PMPE   H2Y 1011   2.609   4.802   6.652
   45PMPE   C23 1012   2.197   4.984   6.786
   45PMPE   H3R 1013   2.269   5.054   6.742
   45PMPE   H3S 1014   2.141   5.024   6.874
   45PMPE   C24 1015   2.101   4.939   6.679
   45PMPE   H4R 1016   2.023   5.019   6.676
   45PMPE   H4S 1017   2.057   4.842   6.709
   45PMPE   C25 1018   2.173   4.912   6.548
   45PMPE   H5R 1019   2.234   4.820   6.543
   45PMPE   H5S 1020   2.231   4.998   6.511
   45PMPE   C26 1021   2.084   4.888   6.439
   45PMPE   H6R 1022   2.019   4.979   6.433
   45PMPE   H6S 1023   2.025   4.790   6.441
   45PMPE   C27 1024   2.155   4.899   6.313
   45PMPE   H7R 1025   2.154   4.996   6.261
   45PMPE   H7S 1026   2.073   4.842   6.275
   45PMPE   C28 1027   2.250   4.795   6.269
   45PMPE   H8R 1028   2.337   4.815   6.328
   45PMPE   H8S 1029   2.275   4.791   6.163
   45PMPE   C29 1030   2.190   4.664   6.282
   45PMPE   H9R 1031   2.082   4.651   6.311
   45PMPE  C217 1032   2.298   4.591   6.362
   45PMPE  H17R 1033   2.239   4.624   6.440
   45PMPE  H17S 1034   2.383   4.647   6.387
   45PMPE  C210 1035   2.257   4.553   6.221
   45PMPE  H10R 1036   2.199   4.469   6.194
   45PMPE  C211 1037   2.378   4.556   6.146
   45PMPE  H11R 1038   2.450   4.617   6.203
   45PMPE  H11S 1039   2.357   4.597   6.049
   45PMPE  C212 1040   2.423   4.412   6.137
   45PMPE  H12R 1041   2.435   4.361   6.233
   45PMPE  H12S 1042   2.524   4.431   6.108
   45PMPE  C213 1043   2.351   4.320   6.039
   45PMPE  H13R 1044   2.241   4.335   6.038
   45PMPE  H13S 1045   2.375   4.215   6.050
   45PMPE  C214 1046   2.402   4.349   5.906
   45PMPE  H14R 1047   2.511   4.337   5.897
   45PMPE  H14S 1048   2.358   4.452   5.897
   45PMPE  C215 1049   2.364   4.268   5.787
   45PMPE  H15R 1050   2.267   4.273   5.833
   45PMPE  H15S 1051   2.387   4.164   5.796
   45PMPE  C216 1052   2.374   4.316   5.638
   45PMPE  H16R 1053   2.473   4.307   5.600
   45PMPE  H16S 1054   2.298   4.269   5.571
   45PMPE  H16T 1055   2.351   4.425   5.624
   45PMPE   C33 1056   2.705   4.618   6.586
   45PMPE   H3X 1057   2.628   4.554   6.633
   45PMPE   H3Y 1058   2.800   4.570   6.607
   45PMPE   C34 1059   2.675   4.622   6.438
   45PMPE   H4X 1060   2.580   4.675   6.420
   45PMPE   H4Y 1061   2.674   4.517   6.402
   45PMPE   C35 1062   2.766   4.696   6.346
   45PMPE   H5X 1063   2.858   4.635   6.336
   45PMPE   H5Y 1064   2.789   4.800   6.377
   45PMPE   C36 1065   2.725   4.688   6.210
   45PMPE   H6X 1066   2.623   4.726   6.201
   45PMPE   H6Y 1067   2.733   4.578   6.193
   45PMPE   C37 1068   2.817   4.769   6.123
   45PMPE   H7X 1069   2.918   4.738   6.131
   45PMPE   H7Y 1070   2.814   4.857   6.183
   45PMPE   C38 1071   2.779   4.813   5.982
   45PMPE   H8X 1072   2.806   4.735   5.915
   45PMPE   H8Y 1073   2.834   4.879   5.913
   45PMPE   C39 1074   2.652   4.888   5.999
   45PMPE   H9X 1075   2.678   4.962   6.080
   45PMPE   H9Y 1076   2.571   4.824   6.040
   45PMPE  C310 1077   2.612   4.964   5.874
   45PMPE  H10X 1078   2.697   5.022   5.833
   45PMPE  H10Y 1079   2.535   5.030   5.916
   45PMPE  C311 1080   2.564   4.882   5.754
   45PMPE  H11X 1081   2.539   4.793   5.798
   45PMPE  H11Y 1082   2.638   4.851   5.678
   45PMPE  C312 1083   2.422   4.893   5.704
   45PMPE  H12X 1084   2.389   4.799   5.654
   45PMPE  H12Y 1085   2.421   4.971   5.633
   45PMPE  C313 1086   2.321   4.915   5.813
   45PMPE  H13X 1087   2.346   4.958   5.914
   45PMPE  H13Y 1088   2.363   4.820   5.847
   45PMPE  C314 1089   2.171   4.951   5.756
   45PMPE  H14X 1090   2.146   5.055   5.768
   45PMPE  H14Y 1091   2.076   4.980   5.810
   45PMPE  C315 1092   2.093   4.872   5.656
   45PMPE  H15X 1093   2.152   4.887   5.566
   45PMPE  H15Y 1094   1.984   4.906   5.659
   45PMPE  C316 1095   2.086   4.734   5.638
   45PMPE  H16X 1096   2.030   4.704   5.730
   45PMPE  H16Y 1097   2.186   4.687   5.626
   45PMPE  H16Z 1098   2.025   4.690   5.556
   46PMPE     N 1099   3.711   2.214   7.636
   46PMPE   HN1 1100   3.781   2.165   7.696
   46PMPE   HN2 1101   3.623   2.230   7.688
   46PMPE   HN3 1102   3.688   2.157   7.552
   46PMPE   C12 1103   3.768   2.344   7.584
   46PMPE  H12A 1104   3.844   2.318   7.508
   46PMPE  H12B 1105   3.817   2.396   7.668
   46PMPE   C11 1106   3.662   2.438   7.525
   46PMPE  H11A 1107   3.713   2.527   7.481
   46PMPE  H11B 1108   3.595   2.479   7.602
   46PMPE     P 1109   3.606   2.386   7.275
   46PMPE   O13 1110   3.692   2.505   7.253
   46PMPE   O14 1111   3.475   2.378   7.211
   46PMPE   O11 1112   3.692   2.257   7.248
   46PMPE   O12 1113   3.583   2.367   7.432
   46PMPE    C1 1114   3.638   2.126   7.260
   46PMPE    HA 1115   3.526   2.125   7.261
   46PMPE    HB 1116   3.672   2.085   7.356
   46PMPE    C2 1117   3.689   2.031   7.147
   46PMPE    HS 1118   3.667   1.926   7.176
   46PMPE   O21 1119   3.830   2.044   7.128
   46PMPE   C21 1120   3.911   2.007   7.222
   46PMPE   O22 1121   3.882   1.958   7.331
   46PMPE   C22 1122   4.052   2.032   7.172
   46PMPE   H2R 1123   4.090   1.937   7.130
   46PMPE   H2S 1124   4.113   2.067   7.257
   46PMPE    C3 1125   3.619   2.052   7.007
   46PMPE    HX 1126   3.509   2.066   7.021
   46PMPE    HY 1127   3.631   1.956   6.953
   46PMPE   O31 1128   3.681   2.154   6.926
   46PMPE   C31 1129   3.617   2.269   6.911
   46PMPE   O32 1130   3.503   2.293   6.944
   46PMPE   C32 1131   3.705   2.362   6.828
   46PMPE   H2X 1132   3.656   2.380   6.730
   46PMPE   H2Y 1133   3.802   2.312   6.810
   46PMPE   C23 1134   4.072   2.132   7.057
   46PMPE   H3R 1135   4.180   2.159   7.055
   46PMPE   H3S 1136   4.014   2.223   7.083
   46PMPE   C24 1137   4.035   2.074   6.920
   46PMPE   H4R 1138   3.925   2.062   6.918
   46PMPE   H4S 1139   4.080   1.973   6.904
   46PMPE   C25 1140   4.077   2.172   6.810
   46PMPE   H5R 1141   4.187   2.187   6.817
   46PMPE   H5S 1142   4.027   2.268   6.833
   46PMPE   C26 1143   4.035   2.136   6.668
   46PMPE   H6R 1144   4.101   2.064   6.626
   46PMPE   H6S 1145   4.055   2.221   6.600
   46PMPE   C27 1146   3.895   2.076   6.651
   46PMPE   H7R 1147   3.828   2.162   6.665
   46PMPE   H7S 1148   3.876   1.998   6.728
   46PMPE   C28 1149   3.867   2.014   6.512
   46PMPE   H8R 1150   3.916   2.078   6.436
   46PMPE   H8S 1151   3.759   2.019   6.491
   46PMPE   C29 1152   3.907   1.865   6.503
   46PMPE   H9R 1153   3.914   1.806   6.596
   46PMPE  C217 1154   4.043   1.849   6.440
   46PMPE  H17R 1155   4.101   1.769   6.482
   46PMPE  H17S 1156   4.073   1.950   6.419
   46PMPE  C210 1157   3.925   1.800   6.368
   46PMPE  H10R 1158   3.913   1.691   6.366
   46PMPE  C211 1159   3.902   1.878   6.241
   46PMPE  H11R 1160   3.963   1.832   6.160
   46PMPE  H11S 1161   3.933   1.985   6.246
   46PMPE  C212 1162   3.752   1.863   6.216
   46PMPE  H12R 1163   3.688   1.894   6.301
   46PMPE  H12S 1164   3.738   1.753   6.206
   46PMPE  C213 1165   3.706   1.939   6.093
   46PMPE  H13R 1166   3.710   2.048   6.110
   46PMPE  H13S 1167   3.599   1.919   6.069
   46PMPE  C214 1168   3.794   1.898   5.978
   46PMPE  H14R 1169   3.775   1.791   5.953
   46PMPE  H14S 1170   3.903   1.908   5.992
   46PMPE  C215 1171   3.778   1.987   5.862
   46PMPE  H15R 1172   3.834   2.081   5.859
   46PMPE  H15S 1173   3.675   2.028   5.874
   46PMPE  C216 1174   3.820   1.903   5.742
   46PMPE  H16R 1175   3.920   1.860   5.738
   46PMPE  H16S 1176   3.751   1.814   5.738
   46PMPE  H16T 1177   3.807   1.959   5.648
   46PMPE   C33 1178   3.736   2.496   6.897
   46PMPE   H3X 1179   3.816   2.477   6.971
   46PMPE   H3Y 1180   3.647   2.535   6.952
   46PMPE   C34 1181   3.779   2.603   6.797
   46PMPE   H4X 1182   3.821   2.690   6.852
   46PMPE   H4Y 1183   3.688   2.637   6.743
   46PMPE   C35 1184   3.877   2.557   6.687
   46PMPE   H5X 1185   3.834   2.471   6.632
   46PMPE   H5Y 1186   3.972   2.520   6.733
   46PMPE   C36 1187   3.895   2.672   6.586
   46PMPE   H6X 1188   3.985   2.733   6.591
   46PMPE   H6Y 1189   3.819   2.749   6.610
   46PMPE   C37 1190   3.896   2.632   6.440
   46PMPE   H7X 1191   3.935   2.719   6.381
   46PMPE   H7Y 1192   3.790   2.617   6.411
   46PMPE   C38 1193   3.982   2.509   6.403
   46PMPE   H8X 1194   3.945   2.417   6.452
   46PMPE   H8Y 1195   4.088   2.523   6.435
   46PMPE   C39 1196   3.976   2.493   6.252
   46PMPE   H9X 1197   4.062   2.441   6.206
   46PMPE   H9Y 1198   3.993   2.598   6.225
   46PMPE  C310 1199   3.840   2.431   6.208
   46PMPE  H10X 1200   3.755   2.485   6.256
   46PMPE  H10Y 1201   3.836   2.325   6.239
   46PMPE  C311 1202   3.812   2.425   6.058
   46PMPE  H11X 1203   3.877   2.502   6.028
   46PMPE  H11Y 1204   3.708   2.451   6.029
   46PMPE  C312 1205   3.893   2.329   5.971
   46PMPE  H12X 1206   3.873   2.231   6.015
   46PMPE  H12Y 1207   4.001   2.359   5.979
   46PMPE  C313 1208   3.852   2.323   5.822
   46PMPE  H13X 1209   3.740   2.332   5.812
   46PMPE  H13Y 1210   3.903   2.243   5.767
   46PMPE  C314 1211   3.908   2.430   5.738
   46PMPE  H14X 1212   4.012   2.460   5.756
   46PMPE  H14Y 1213   3.851   2.487   5.811
   46PMPE  C315 1214   3.866   2.443   5.589
   46PMPE  H15X 1215   3.758   2.430   5.574
   46PMPE  H15Y 1216   3.935   2.373   5.541
   46PMPE  C316 1217   3.891   2.571   5.514
   46PMPE  H16X 1218   3.810   2.641   5.520
   46PMPE  H16Y 1219   3.921   2.602   5.413
   46PMPE  H16Z 1220   3.986   2.586   5.566
   47PMPE     N 1221   4.529   2.578   7.590
   47PMPE   HN1 1222   4.507   2.547   7.686
   47PMPE   HN2 1223   4.503   2.678   7.576
   47PMPE   HN3 1224   4.478   2.516   7.523
   47PMPE   C12 1225   4.676   2.561   7.563
   47PMPE  H12A 1226   4.692   2.453   7.545
   47PMPE  H12B 1227   4.735   2.593   7.651
   47PMPE   C11 1228   4.720   2.641   7.441
   47PMPE  H11A 1229   4.696   2.749   7.454
   47PMPE  H11B 1230   4.667   2.603   7.350
   47PMPE     P 1231   4.941   2.676   7.307
   47PMPE   O13 1232   4.905   2.594   7.190
   47PMPE   O14 1233   5.085   2.692   7.344
   47PMPE   O11 1234   4.877   2.819   7.291
   47PMPE   O12 1235   4.860   2.623   7.433
   47PMPE    C1 1236   4.903   2.925   7.383
   47PMPE    HA 1237   5.008   2.925   7.420
   47PMPE    HB 1238   4.838   2.914   7.473
   47PMPE    C2 1239   4.878   3.064   7.317
   47PMPE    HS 1240   4.873   3.140   7.397
   47PMPE   O21 1241   4.760   3.071   7.235
   47PMPE   C21 1242   4.643   3.066   7.295
   47PMPE   O22 1243   4.620   3.060   7.414
   47PMPE   C22 1244   4.538   3.080   7.186
   47PMPE   H2R 1245   4.553   3.175   7.130
   47PMPE   H2S 1246   4.435   3.082   7.228
   47PMPE    C3 1247   4.999   3.104   7.227
   47PMPE    HX 1248   5.080   3.132   7.297
   47PMPE    HY 1249   4.972   3.194   7.167
   47PMPE   O31 1250   5.047   2.995   7.145
   47PMPE   C31 1251   4.993   2.983   7.024
   47PMPE   O32 1252   4.925   3.067   6.968
   47PMPE   C32 1253   5.050   2.855   6.960
   47PMPE   H2X 1254   5.079   2.784   7.040
   47PMPE   H2Y 1255   5.142   2.883   6.905
   47PMPE   C23 1256   4.561   2.960   7.094
   47PMPE   H3R 1257   4.546   2.865   7.154
   47PMPE   H3S 1258   4.658   2.962   7.043
   47PMPE   C24 1259   4.463   2.949   6.983
   47PMPE   H4R 1260   4.378   2.935   7.049
   47PMPE   H4S 1261   4.485   2.854   6.930
   47PMPE   C25 1262   4.446   3.072   6.893
   47PMPE   H5R 1263   4.451   3.163   6.953
   47PMPE   H5S 1264   4.344   3.070   6.849
   47PMPE   C26 1265   4.548   3.085   6.779
   47PMPE   H6R 1266   4.649   3.049   6.807
   47PMPE   H6S 1267   4.546   3.184   6.730
   47PMPE   C27 1268   4.506   2.994   6.669
   47PMPE   H7R 1269   4.395   3.008   6.668
   47PMPE   H7S 1270   4.537   2.900   6.721
   47PMPE   C28 1271   4.571   3.016   6.532
   47PMPE   H8R 1272   4.677   2.986   6.534
   47PMPE   H8S 1273   4.536   3.111   6.485
   47PMPE   C29 1274   4.531   2.924   6.431
   47PMPE   H9R 1275   4.420   2.934   6.423
   47PMPE  C217 1276   4.635   2.810   6.391
   47PMPE  H17R 1277   4.617   2.704   6.404
   47PMPE  H17S 1278   4.740   2.804   6.382
   47PMPE  C210 1279   4.568   2.908   6.292
   47PMPE  H10R 1280   4.470   2.906   6.236
   47PMPE  C211 1281   4.678   2.969   6.227
   47PMPE  H11R 1282   4.745   2.889   6.189
   47PMPE  H11S 1283   4.721   3.021   6.314
   47PMPE  C212 1284   4.619   3.059   6.121
   47PMPE  H12R 1285   4.704   3.122   6.090
   47PMPE  H12S 1286   4.532   3.111   6.168
   47PMPE  C213 1287   4.553   3.004   5.996
   47PMPE  H13R 1288   4.452   3.022   5.962
   47PMPE  H13S 1289   4.553   2.903   6.018
   47PMPE  C214 1290   4.637   3.000   5.878
   47PMPE  H14R 1291   4.720   2.937   5.926
   47PMPE  H14S 1292   4.680   3.102   5.877
   47PMPE  C215 1293   4.584   2.953   5.733
   47PMPE  H15R 1294   4.545   2.856   5.711
   47PMPE  H15S 1295   4.657   2.923   5.657
   47PMPE  C216 1296   4.495   3.042   5.654
   47PMPE  H16R 1297   4.421   3.080   5.726
   47PMPE  H16S 1298   4.559   3.120   5.608
   47PMPE  H16T 1299   4.447   2.979   5.576
   47PMPE   C33 1300   4.954   2.781   6.863
   47PMPE   H3X 1301   4.851   2.774   6.907
   47PMPE   H3Y 1302   4.994   2.678   6.855
   47PMPE   C34 1303   4.954   2.842   6.722
   47PMPE   H4X 1304   5.061   2.844   6.690
   47PMPE   H4Y 1305   4.919   2.948   6.727
   47PMPE   C35 1306   4.864   2.773   6.618
   47PMPE   H5X 1307   4.885   2.824   6.520
   47PMPE   H5Y 1308   4.758   2.794   6.642
   47PMPE   C36 1309   4.871   2.620   6.606
   47PMPE   H6X 1310   4.804   2.588   6.522
   47PMPE   H6Y 1311   4.830   2.570   6.695
   47PMPE   C37 1312   5.009   2.573   6.581
   47PMPE   H7X 1313   5.020   2.461   6.579
   47PMPE   H7Y 1314   5.084   2.608   6.656
   47PMPE   C38 1315   5.051   2.635   6.449
   47PMPE   H8X 1316   5.130   2.561   6.451
   47PMPE   H8Y 1317   5.091   2.738   6.457
   47PMPE   C39 1318   4.964   2.623   6.324
   47PMPE   H9X 1319   4.855   2.625   6.340
   47PMPE   H9Y 1320   4.963   2.520   6.298
   47PMPE  C310 1321   5.003   2.704   6.199
   47PMPE  H10X 1322   5.075   2.674   6.125
   47PMPE  H10Y 1323   5.058   2.796   6.216
   47PMPE  C311 1324   4.904   2.684   6.093
   47PMPE  H11X 1325   4.937   2.730   5.996
   47PMPE  H11Y 1326   4.810   2.717   6.136
   47PMPE  C312 1327   4.880   2.549   6.044
   47PMPE  H12X 1328   4.857   2.467   6.119
   47PMPE  H12Y 1329   4.956   2.501   5.986
   47PMPE  C313 1330   4.821   2.568   5.915
   47PMPE  H13X 1331   4.776   2.480   5.946
   47PMPE  H13Y 1332   4.848   2.561   5.809
   47PMPE  C314 1333   4.703   2.619   5.912
   47PMPE  H14X 1334   4.734   2.721   5.886
   47PMPE  H14Y 1335   4.682   2.650   6.010
   47PMPE  C315 1336   4.604   2.511   5.851
   47PMPE  H15X 1337   4.507   2.516   5.895
   47PMPE  H15Y 1338   4.533   2.436   5.893
   47PMPE  C316 1339   4.618   2.486   5.713
   47PMPE  H16X 1340   4.662   2.584   5.688
   47PMPE  H16Y 1341   4.529   2.482   5.653
   47PMPE  H16Z 1342   4.666   2.394   5.683
   48PMPE     N 1343   5.820   4.488   7.438
   48PMPE   HN1 1344   5.789   4.524   7.344
   48PMPE   HN2 1345   5.916   4.525   7.451
   48PMPE   HN3 1346   5.817   4.385   7.442
   48PMPE   C12 1347   5.733   4.546   7.546
   48PMPE  H12A 1348   5.759   4.493   7.640
   48PMPE  H12B 1349   5.627   4.529   7.518
   48PMPE   C11 1350   5.760   4.695   7.557
   48PMPE  H11A 1351   5.869   4.713   7.577
   48PMPE  H11B 1352   5.704   4.734   7.645
   48PMPE     P 1353   5.805   4.798   7.317
   48PMPE   O13 1354   5.772   4.694   7.217
   48PMPE   O14 1355   5.945   4.801   7.366
   48PMPE   O11 1356   5.752   4.937   7.275
   48PMPE   O12 1357   5.714   4.761   7.440
   48PMPE    C1 1358   5.774   5.048   7.359
   48PMPE    HA 1359   5.819   5.026   7.460
   48PMPE    HB 1360   5.670   5.080   7.383
   48PMPE    C2 1361   5.858   5.156   7.285
   48PMPE    HS 1362   5.844   5.260   7.313
   48PMPE   O21 1363   5.845   5.152   7.144
   48PMPE   C21 1364   5.728   5.179   7.091
   48PMPE   O22 1365   5.621   5.203   7.142
   48PMPE   C22 1366   5.745   5.192   6.945
   48PMPE   H2R 1367   5.843   5.237   6.924
   48PMPE   H2S 1368   5.662   5.257   6.909
   48PMPE    C3 1369   6.007   5.152   7.321
   48PMPE    HX 1370   6.025   5.157   7.430
   48PMPE    HY 1371   6.047   5.244   7.275
   48PMPE   O31 1372   6.076   5.042   7.272
   48PMPE   C31 1373   6.118   5.058   7.149
   48PMPE   O32 1374   6.112   5.160   7.081
   48PMPE   C32 1375   6.189   4.931   7.121
   48PMPE   H2X 1376   6.136   4.851   7.178
   48PMPE   H2Y 1377   6.292   4.947   7.160
   48PMPE   C23 1378   5.732   5.051   6.894
   48PMPE   H3R 1379   5.792   4.978   6.954
   48PMPE   H3S 1380   5.765   5.045   6.788
   48PMPE   C24 1381   5.589   5.009   6.902
   48PMPE   H4R 1382   5.527   5.071   6.834
   48PMPE   H4S 1383   5.543   5.014   7.003
   48PMPE   C25 1384   5.591   4.867   6.858
   48PMPE   H5R 1385   5.652   4.800   6.924
   48PMPE   H5S 1386   5.623   4.856   6.752
   48PMPE   C26 1387   5.457   4.812   6.866
   48PMPE   H6R 1388   5.411   4.803   6.968
   48PMPE   H6S 1389   5.488   4.716   6.823
   48PMPE   C27 1390   5.355   4.882   6.783
   48PMPE   H7R 1391   5.334   4.974   6.842
   48PMPE   H7S 1392   5.264   4.821   6.792
   48PMPE   C28 1393   5.377   4.903   6.634
   48PMPE   H8R 1394   5.478   4.943   6.609
   48PMPE   H8S 1395   5.326   4.978   6.576
   48PMPE   C29 1396   5.295   4.804   6.552
   48PMPE   H9R 1397   5.229   4.725   6.597
   48PMPE  C217 1398   5.405   4.737   6.522
   48PMPE  H17R 1399   5.376   4.641   6.554
   48PMPE  H17S 1400   5.507   4.779   6.538
   48PMPE  C210 1401   5.319   4.765   6.407
   48PMPE  H10R 1402   5.310   4.663   6.365
   48PMPE  C211 1403   5.406   4.842   6.331
   48PMPE  H11R 1404   5.498   4.862   6.389
   48PMPE  H11S 1405   5.408   4.937   6.391
   48PMPE  C212 1406   5.426   4.813   6.150
   48PMPE  H12R 1407   5.352   4.740   6.143
   48PMPE  H12S 1408   5.496   4.747   6.098
   48PMPE  C213 1409   5.491   4.912   6.034
   48PMPE  H13R 1410   5.596   4.953   6.043
   48PMPE  H13S 1411   5.439   5.008   6.039
   48PMPE  C214 1412   5.525   4.887   5.899
   48PMPE  H14R 1413   5.425   4.845   5.888
   48PMPE  H14S 1414   5.603   4.813   5.896
   48PMPE  C215 1415   5.567   5.026   5.852
   48PMPE  H15R 1416   5.670   5.063   5.868
   48PMPE  H15S 1417   5.512   5.096   5.912
   48PMPE  C216 1418   5.503   5.050   5.725
   48PMPE  H16R 1419   5.543   4.973   5.659
   48PMPE  H16S 1420   5.399   5.040   5.749
   48PMPE  H16T 1421   5.503   5.151   5.691
   48PMPE   C33 1422   6.193   4.900   6.972
   48PMPE   H3X 1423   6.266   4.817   6.964
   48PMPE   H3Y 1424   6.232   4.989   6.918
   48PMPE   C34 1425   6.055   4.863   6.915
   48PMPE   H4X 1426   6.002   4.959   6.898
   48PMPE   H4Y 1427   5.995   4.805   6.988
   48PMPE   C35 1428   6.062   4.793   6.778
   48PMPE   H5X 1429   6.126   4.702   6.780
   48PMPE   H5Y 1430   6.109   4.867   6.709
   48PMPE   C36 1431   5.926   4.763   6.716
   48PMPE   H6X 1432   5.850   4.831   6.761
   48PMPE   H6Y 1433   5.891   4.659   6.733
   48PMPE   C37 1434   5.926   4.795   6.566
   48PMPE   H7X 1435   5.958   4.899   6.546
   48PMPE   H7Y 1436   5.819   4.794   6.547
   48PMPE   C38 1437   6.007   4.695   6.483
   48PMPE   H8X 1438   5.980   4.593   6.519
   48PMPE   H8Y 1439   6.115   4.711   6.499
   48PMPE   C39 1440   5.984   4.697   6.333
   48PMPE   H9X 1441   5.976   4.796   6.284
   48PMPE   H9Y 1442   5.892   4.656   6.325
   48PMPE  C310 1443   6.045   4.587   6.248
   48PMPE  H10X 1444   6.038   4.485   6.293
   48PMPE  H10Y 1445   6.147   4.616   6.248
   48PMPE  C311 1446   5.999   4.589   6.103
   48PMPE  H11X 1447   6.035   4.494   6.058
   48PMPE  H11Y 1448   6.050   4.668   6.046
   48PMPE  C312 1449   5.849   4.610   6.082
   48PMPE  H12X 1450   5.812   4.706   6.117
   48PMPE  H12Y 1451   5.794   4.531   6.138
   48PMPE  C313 1452   5.810   4.608   5.937
   48PMPE  H13X 1453   5.707   4.565   5.928
   48PMPE  H13Y 1454   5.890   4.545   5.896
   48PMPE  C314 1455   5.834   4.735   5.857
   48PMPE  H14X 1456   5.944   4.735   5.833
   48PMPE  H14Y 1457   5.800   4.817   5.918
   48PMPE  C315 1458   5.764   4.750   5.726
   48PMPE  H15X 1459   5.781   4.839   5.664
   48PMPE  H15Y 1460   5.655   4.716   5.722
   48PMPE  C316 1461   5.840   4.660   5.653
   48PMPE  H16X 1462   5.946   4.639   5.642
   48PMPE  H16Y 1463   5.856   4.680   5.548
   48PMPE  H16Z 1464   5.769   4.574   5.675
   49PMPE     N 1465   5.419   6.320   7.413
   49PMPE   HN1 1466   5.458   6.362   7.500
   49PMPE   HN2 1467   5.434   6.217   7.412
   49PMPE   HN3 1468   5.462   6.365   7.328
   49PMPE   C12 1469   5.274   6.347   7.417
   49PMPE  H12A 1470   5.241   6.380   7.317
   49PMPE  H12B 1471   5.258   6.428   7.489
   49PMPE   C11 1472   5.201   6.224   7.464
   49PMPE  H11A 1473   5.242   6.186   7.560
   49PMPE  H11B 1474   5.209   6.142   7.389
   49PMPE     P 1475   4.955   6.242   7.379
   49PMPE   O13 1476   4.825   6.266   7.445
   49PMPE   O14 1477   4.983   6.116   7.309
   49PMPE   O11 1478   4.988   6.356   7.277
   49PMPE   O12 1479   5.068   6.266   7.487
   49PMPE    C1 1480   4.965   6.491   7.309
   49PMPE    HA 1481   5.032   6.526   7.389
   49PMPE    HB 1482   4.862   6.508   7.348
   49PMPE    C2 1483   4.984   6.569   7.179
   49PMPE    HS 1484   4.961   6.676   7.199
   49PMPE   O21 1485   4.921   6.520   7.064
   49PMPE   C21 1486   4.802   6.490   7.085
   49PMPE   O22 1487   4.733   6.539   7.175
   49PMPE   C22 1488   4.763   6.429   6.952
   49PMPE   H2R 1489   4.680   6.488   6.915
   49PMPE   H2S 1490   4.742   6.322   6.967
   49PMPE    C3 1491   5.120   6.575   7.129
   49PMPE    HX 1492   5.173   6.595   7.226
   49PMPE    HY 1493   5.120   6.656   7.057
   49PMPE   O31 1494   5.155   6.463   7.046
   49PMPE   C31 1495   5.282   6.442   7.060
   49PMPE   O32 1496   5.347   6.490   7.150
   49PMPE   C32 1497   5.335   6.333   6.975
   49PMPE   H2X 1498   5.429   6.295   7.021
   49PMPE   H2Y 1499   5.364   6.372   6.875
   49PMPE   C23 1500   4.844   6.451   6.825
   49PMPE   H3R 1501   4.950   6.441   6.843
   49PMPE   H3S 1502   4.839   6.558   6.807
   49PMPE   C24 1503   4.791   6.362   6.709
   49PMPE   H4R 1504   4.696   6.386   6.660
   49PMPE   H4S 1505   4.767   6.266   6.759
   49PMPE   C25 1506   4.891   6.347   6.591
   49PMPE   H5R 1507   4.861   6.254   6.540
   49PMPE   H5S 1508   4.990   6.334   6.639
   49PMPE   C26 1509   4.901   6.451   6.476
   49PMPE   H6R 1510   4.989   6.444   6.412
   49PMPE   H6S 1511   4.929   6.548   6.512
   49PMPE   C27 1512   4.773   6.470   6.396
   49PMPE   H7R 1513   4.774   6.568   6.342
   49PMPE   H7S 1514   4.695   6.474   6.472
   49PMPE   C28 1515   4.751   6.364   6.293
   49PMPE   H8R 1516   4.731   6.265   6.339
   49PMPE   H8S 1517   4.847   6.366   6.237
   49PMPE   C29 1518   4.646   6.408   6.194
   49PMPE   H9R 1519   4.636   6.517   6.179
   49PMPE  C217 1520   4.516   6.329   6.193
   49PMPE  H17R 1521   4.435   6.384   6.149
   49PMPE  H17S 1522   4.513   6.274   6.286
   49PMPE  C210 1523   4.602   6.314   6.085
   49PMPE  H10R 1524   4.556   6.358   5.996
   49PMPE  C211 1525   4.609   6.167   6.096
   49PMPE  H11R 1526   4.527   6.120   6.038
   49PMPE  H11S 1527   4.604   6.125   6.199
   49PMPE  C212 1528   4.745   6.164   6.039
   49PMPE  H12R 1529   4.782   6.061   6.050
   49PMPE  H12S 1530   4.811   6.233   6.095
   49PMPE  C213 1531   4.744   6.212   5.895
   49PMPE  H13R 1532   4.850   6.207   5.863
   49PMPE  H13S 1533   4.712   6.316   5.872
   49PMPE  C214 1534   4.661   6.115   5.816
   49PMPE  H14R 1535   4.655   6.018   5.870
   49PMPE  H14S 1536   4.710   6.112   5.719
   49PMPE  C215 1537   4.522   6.132   5.768
   49PMPE  H15R 1538   4.523   6.214   5.693
   49PMPE  H15S 1539   4.456   6.160   5.853
   49PMPE  C216 1540   4.491   5.996   5.704
   49PMPE  H16R 1541   4.465   5.917   5.779
   49PMPE  H16S 1542   4.406   6.002   5.638
   49PMPE  H16T 1543   4.567   5.960   5.633
   49PMPE   C33 1544   5.225   6.228   6.981
   49PMPE   H3X 1545   5.141   6.248   7.053
   49PMPE   H3Y 1546   5.269   6.135   7.021
   49PMPE   C34 1547   5.161   6.210   6.845
   49PMPE   H4X 1548   5.134   6.309   6.802
   49PMPE   H4Y 1549   5.066   6.154   6.860
   49PMPE   C35 1550   5.259   6.131   6.760
   49PMPE   H5X 1551   5.270   6.032   6.809
   49PMPE   H5Y 1552   5.358   6.181   6.765
   49PMPE   C36 1553   5.217   6.109   6.614
   49PMPE   H6X 1554   5.107   6.091   6.613
   49PMPE   H6Y 1555   5.270   6.018   6.578
   49PMPE   C37 1556   5.243   6.230   6.522
   49PMPE   H7X 1557   5.350   6.256   6.536
   49PMPE   H7Y 1558   5.183   6.313   6.564
   49PMPE   C38 1559   5.206   6.223   6.371
   49PMPE   H8X 1560   5.276   6.153   6.319
   49PMPE   H8Y 1561   5.220   6.322   6.322
   49PMPE   C39 1562   5.060   6.186   6.337
   49PMPE   H9X 1563   4.995   6.273   6.331
   49PMPE   H9Y 1564   5.023   6.120   6.419
   49PMPE  C310 1565   5.039   6.117   6.203
   49PMPE  H10X 1566   4.944   6.060   6.191
   49PMPE  H10Y 1567   5.109   6.043   6.220
   49PMPE  C311 1568   5.111   6.152   6.075
   49PMPE  H11X 1569   5.071   6.249   6.050
   49PMPE  H11Y 1570   5.070   6.079   6.001
   49PMPE  C312 1571   5.267   6.158   6.068
   49PMPE  H12X 1572   5.317   6.071   6.117
   49PMPE  H12Y 1573   5.326   6.235   6.115
   49PMPE  C313 1574   5.298   6.181   5.920
   49PMPE  H13X 1575   5.233   6.101   5.886
   49PMPE  H13Y 1576   5.402   6.168   5.883
   49PMPE  C314 1577   5.204   6.267   5.839
   49PMPE  H14X 1578   5.205   6.357   5.900
   49PMPE  H14Y 1579   5.100   6.223   5.836
   49PMPE  C315 1580   5.242   6.286   5.695
   49PMPE  H15X 1581   5.211   6.198   5.636
   49PMPE  H15Y 1582   5.352   6.301   5.680
   49PMPE  C316 1583   5.164   6.401   5.637
   49PMPE  H16X 1584   5.198   6.411   5.532
   49PMPE  H16Y 1585   5.183   6.495   5.692
   49PMPE  H16Z 1586   5.055   6.381   5.641
   50PMPE     N 1587   2.467   3.050   7.674
   50PMPE   HN1 1588   2.516   3.104   7.600
   50PMPE   HN2 1589   2.429   3.115   7.746
   50PMPE   HN3 1590   2.534   2.984   7.719
   50PMPE   C12 1591   2.358   2.975   7.602
   50PMPE  H12A 1592   2.302   2.916   7.677
   50PMPE  H12B 1593   2.408   2.908   7.529
   50PMPE   C11 1594   2.269   3.072   7.524
   50PMPE  H11A 1595   2.242   3.159   7.588
   50PMPE  H11B 1596   2.174   3.020   7.496
   50PMPE     P 1597   2.319   3.047   7.267
   50PMPE   O13 1598   2.182   3.080   7.220
   50PMPE   O14 1599   2.352   2.906   7.292
   50PMPE   O11 1600   2.432   3.112   7.177
   50PMPE   O12 1601   2.340   3.119   7.410
   50PMPE    C1 1602   2.408   3.232   7.102
   50PMPE    HA 1603   2.496   3.299   7.111
   50PMPE    HB 1604   2.323   3.288   7.146
   50PMPE    C2 1605   2.379   3.201   6.951
   50PMPE    HS 1606   2.311   3.113   6.948
   50PMPE   O21 1607   2.502   3.181   6.875
   50PMPE   C21 1608   2.512   3.063   6.811
   50PMPE   O22 1609   2.430   2.973   6.812
   50PMPE   C22 1610   2.640   3.063   6.726
   50PMPE   H2R 1611   2.686   2.962   6.727
   50PMPE   H2S 1612   2.713   3.133   6.769
   50PMPE    C3 1613   2.299   3.316   6.885
   50PMPE    HX 1614   2.361   3.408   6.889
   50PMPE    HY 1615   2.205   3.338   6.941
   50PMPE   O31 1616   2.276   3.281   6.748
   50PMPE   C31 1617   2.155   3.234   6.715
   50PMPE   O32 1618   2.056   3.237   6.785
   50PMPE   C32 1619   2.164   3.196   6.567
   50PMPE   H2X 1620   2.239   3.115   6.557
   50PMPE   H2Y 1621   2.203   3.286   6.514
   50PMPE   C23 1622   2.607   3.114   6.583
   50PMPE   H3R 1623   2.704   3.137   6.532
   50PMPE   H3S 1624   2.552   3.209   6.592
   50PMPE   C24 1625   2.522   3.015   6.501
   50PMPE   H4R 1626   2.415   3.033   6.510
   50PMPE   H4S 1627   2.548   2.912   6.535
   50PMPE   C25 1628   2.545   3.028   6.352
   50PMPE   H5R 1629   2.656   3.027   6.369
   50PMPE   H5S 1630   2.540   3.125   6.301
   50PMPE   C26 1631   2.476   2.913   6.263
   50PMPE   H6R 1632   2.368   2.901   6.270
   50PMPE   H6S 1633   2.506   2.821   6.319
   50PMPE   C27 1634   2.510   2.911   6.106
   50PMPE   H7R 1635   2.601   2.856   6.086
   50PMPE   H7S 1636   2.546   3.009   6.069
   50PMPE   C28 1637   2.452   2.812   6.003
   50PMPE   H8R 1638   2.487   2.827   5.901
   50PMPE   H8S 1639   2.348   2.844   5.996
   50PMPE   C29 1640   2.475   2.665   6.052
   50PMPE   H9R 1641   2.433   2.667   6.150
   50PMPE  C217 1642   2.594   2.562   6.051
   50PMPE  H17R 1643   2.615   2.506   6.136
   50PMPE  H17S 1644   2.678   2.548   5.988
   50PMPE  C210 1645   2.473   2.539   5.964
   50PMPE  H10R 1646   2.441   2.439   5.990
   50PMPE  C211 1647   2.484   2.537   5.817
   50PMPE  H11R 1648   2.523   2.439   5.785
   50PMPE  H11S 1649   2.540   2.612   5.775
   50PMPE  C212 1650   2.370   2.599   5.745
   50PMPE  H12R 1651   2.343   2.684   5.813
   50PMPE  H12S 1652   2.301   2.514   5.744
   50PMPE  C213 1653   2.388   2.657   5.603
   50PMPE  H13R 1654   2.391   2.570   5.533
   50PMPE  H13S 1655   2.479   2.717   5.585
   50PMPE  C214 1656   2.274   2.746   5.559
   50PMPE  H14R 1657   2.186   2.682   5.564
   50PMPE  H14S 1658   2.295   2.766   5.452
   50PMPE  C215 1659   2.250   2.874   5.640
   50PMPE  H15R 1660   2.236   2.854   5.749
   50PMPE  H15S 1661   2.163   2.928   5.600
   50PMPE  C216 1662   2.365   2.968   5.635
   50PMPE  H16R 1663   2.353   3.058   5.698
   50PMPE  H16S 1664   2.444   2.909   5.683
   50PMPE  H16T 1665   2.399   2.997   5.533
   50PMPE   C33 1666   2.033   3.158   6.494
   50PMPE   H3X 1667   1.953   3.228   6.526
   50PMPE   H3Y 1668   2.001   3.054   6.519
   50PMPE   C34 1669   2.048   3.166   6.340
   50PMPE   H4X 1670   2.038   3.272   6.309
   50PMPE   H4Y 1671   1.964   3.108   6.295
   50PMPE   C35 1672   2.180   3.107   6.285
   50PMPE   H5X 1673   2.184   3.000   6.316
   50PMPE   H5Y 1674   2.270   3.157   6.327
   50PMPE   C36 1675   2.195   3.113   6.133
   50PMPE   H6X 1676   2.115   3.051   6.086
   50PMPE   H6Y 1677   2.293   3.069   6.105
   50PMPE   C37 1678   2.189   3.252   6.071
   50PMPE   H7X 1679   2.242   3.325   6.136
   50PMPE   H7Y 1680   2.083   3.283   6.068
   50PMPE   C38 1681   2.250   3.255   5.929
   50PMPE   H8X 1682   2.215   3.346   5.877
   50PMPE   H8Y 1683   2.205   3.173   5.870
   50PMPE   C39 1684   2.405   3.249   5.925
   50PMPE   H9X 1685   2.434   3.209   5.826
   50PMPE   H9Y 1686   2.448   3.188   6.007
   50PMPE  C310 1687   2.471   3.385   5.937
   50PMPE  H10X 1688   2.469   3.414   6.042
   50PMPE  H10Y 1689   2.401   3.441   5.870
   50PMPE  C311 1690   2.609   3.420   5.885
   50PMPE  H11X 1691   2.682   3.346   5.920
   50PMPE  H11Y 1692   2.645   3.522   5.914
   50PMPE  C312 1693   2.590   3.429   5.738
   50PMPE  H12X 1694   2.543   3.525   5.718
   50PMPE  H12Y 1695   2.520   3.353   5.698
   50PMPE  C313 1696   2.714   3.435   5.660
   50PMPE  H13X 1697   2.777   3.351   5.689
   50PMPE  H13Y 1698   2.779   3.522   5.685
   50PMPE  C314 1699   2.655   3.437   5.519
   50PMPE  H14X 1700   2.612   3.535   5.493
   50PMPE  H14Y 1701   2.579   3.357   5.504
   50PMPE  C315 1702   2.755   3.401   5.423
   50PMPE  H15X 1703   2.769   3.297   5.456
   50PMPE  H15Y 1704   2.844   3.466   5.435
   50PMPE  C316 1705   2.726   3.396   5.278
   50PMPE  H16X 1706   2.719   3.468   5.199
   50PMPE  H16Y 1707   2.658   3.318   5.248
   50PMPE  H16Z 1708   2.834   3.390   5.245
   51PMPE     N 1709   2.543   5.697   7.609
   51PMPE   HN1 1710   2.645   5.678   7.618
   51PMPE   HN2 1711   2.488   5.654   7.687
   51PMPE   HN3 1712   2.509   5.660   7.518
   51PMPE   C12 1713   2.525   5.847   7.607
   51PMPE  H12A 1714   2.571   5.887   7.699
   51PMPE  H12B 1715   2.417   5.872   7.609
   51PMPE   C11 1716   2.593   5.909   7.484
   51PMPE  H11A 1717   2.698   5.875   7.474
   51PMPE  H11B 1718   2.596   6.020   7.498
   51PMPE     P 1719   2.417   5.957   7.289
   51PMPE   O13 1720   2.329   6.019   7.390
   51PMPE   O14 1721   2.358   5.868   7.188
   51PMPE   O11 1722   2.499   6.072   7.220
   51PMPE   O12 1723   2.525   5.870   7.366
   51PMPE    C1 1724   2.631   6.056   7.169
   51PMPE    HA 1725   2.691   5.983   7.229
   51PMPE    HB 1726   2.682   6.154   7.179
   51PMPE    C2 1727   2.638   6.015   7.019
   51PMPE    HS 1728   2.732   6.061   6.976
   51PMPE   O21 1729   2.516   6.048   6.951
   51PMPE   C21 1730   2.518   6.151   6.876
   51PMPE   O22 1731   2.612   6.224   6.856
   51PMPE   C22 1732   2.392   6.170   6.794
   51PMPE   H2R 1733   2.322   6.238   6.848
   51PMPE   H2S 1734   2.338   6.076   6.786
   51PMPE    C3 1735   2.654   5.863   7.002
   51PMPE    HX 1736   2.565   5.815   7.046
   51PMPE    HY 1737   2.743   5.823   7.057
   51PMPE   O31 1738   2.650   5.830   6.863
   51PMPE   C31 1739   2.762   5.796   6.814
   51PMPE   O32 1740   2.870   5.789   6.870
   51PMPE   C32 1741   2.728   5.747   6.675
   51PMPE   H2X 1742   2.621   5.729   6.655
   51PMPE   H2Y 1743   2.738   5.643   6.682
   51PMPE   C23 1744   2.446   6.218   6.656
   51PMPE   H3R 1745   2.527   6.157   6.616
   51PMPE   H3S 1746   2.519   6.302   6.664
   51PMPE   C24 1747   2.334   6.253   6.553
   51PMPE   H4R 1748   2.373   6.310   6.465
   51PMPE   H4S 1749   2.250   6.315   6.589
   51PMPE   C25 1750   2.255   6.144   6.513
   51PMPE   H5R 1751   2.162   6.190   6.479
   51PMPE   H5S 1752   2.227   6.088   6.603
   51PMPE   C26 1753   2.346   6.086   6.408
   51PMPE   H6R 1754   2.447   6.066   6.452
   51PMPE   H6S 1755   2.360   6.155   6.322
   51PMPE   C27 1756   2.285   5.959   6.370
   51PMPE   H7R 1757   2.176   5.971   6.392
   51PMPE   H7S 1758   2.331   5.883   6.437
   51PMPE   C28 1759   2.300   5.918   6.226
   51PMPE   H8R 1760   2.393   5.861   6.216
   51PMPE   H8S 1761   2.320   5.997   6.153
   51PMPE   C29 1762   2.171   5.854   6.183
   51PMPE   H9R 1763   2.079   5.843   6.243
   51PMPE  C217 1764   2.203   5.720   6.143
   51PMPE  H17R 1765   2.126   5.646   6.159
   51PMPE  H17S 1766   2.310   5.710   6.132
   51PMPE  C210 1767   2.154   5.808   6.043
   51PMPE  H10R 1768   2.052   5.787   6.026
   51PMPE  C211 1769   2.257   5.805   5.935
   51PMPE  H11R 1770   2.245   5.713   5.872
   51PMPE  H11S 1771   2.360   5.808   5.975
   51PMPE  C212 1772   2.230   5.936   5.868
   51PMPE  H12R 1773   2.193   6.003   5.948
   51PMPE  H12S 1774   2.146   5.920   5.797
   51PMPE  C213 1775   2.359   5.996   5.811
   51PMPE  H13R 1776   2.400   5.923   5.739
   51PMPE  H13S 1777   2.428   6.016   5.895
   51PMPE  C214 1778   2.356   6.122   5.725
   51PMPE  H14R 1779   2.308   6.082   5.633
   51PMPE  H14S 1780   2.452   6.171   5.706
   51PMPE  C215 1781   2.272   6.230   5.781
   51PMPE  H15R 1782   2.296   6.253   5.882
   51PMPE  H15S 1783   2.190   6.155   5.780
   51PMPE  C216 1784   2.247   6.369   5.713
   51PMPE  H16R 1785   2.317   6.426   5.730
   51PMPE  H16S 1786   2.237   6.386   5.609
   51PMPE  H16T 1787   2.191   6.452   5.757
   51PMPE   C33 1788   2.809   5.806   6.561
   51PMPE   H3X 1789   2.836   5.736   6.478
   51PMPE   H3Y 1790   2.909   5.845   6.589
   51PMPE   C34 1791   2.708   5.904   6.512
   51PMPE   H4X 1792   2.674   5.962   6.600
   51PMPE   H4Y 1793   2.622   5.854   6.462
   51PMPE   C35 1794   2.770   5.989   6.413
   51PMPE   H5X 1795   2.864   6.021   6.467
   51PMPE   H5Y 1796   2.716   6.085   6.399
   51PMPE   C36 1797   2.785   5.909   6.278
   51PMPE   H6X 1798   2.830   5.811   6.291
   51PMPE   H6Y 1799   2.864   5.928   6.205
   51PMPE   C37 1800   2.677   5.952   6.183
   51PMPE   H7X 1801   2.669   6.063   6.179
   51PMPE   H7Y 1802   2.590   5.910   6.234
   51PMPE   C38 1803   2.685   5.902   6.039
   51PMPE   H8X 1804   2.764   5.939   5.975
   51PMPE   H8Y 1805   2.592   5.926   5.988
   51PMPE   C39 1806   2.723   5.759   6.031
   51PMPE   H9X 1807   2.658   5.704   6.101
   51PMPE   H9Y 1808   2.831   5.757   6.066
   51PMPE  C310 1809   2.722   5.696   5.891
   51PMPE  H10X 1810   2.770   5.596   5.886
   51PMPE  H10Y 1811   2.777   5.761   5.821
   51PMPE  C311 1812   2.584   5.658   5.843
   51PMPE  H11X 1813   2.530   5.753   5.825
   51PMPE  H11Y 1814   2.530   5.603   5.922
   51PMPE  C312 1815   2.592   5.577   5.713
   51PMPE  H12X 1816   2.652   5.483   5.720
   51PMPE  H12Y 1817   2.639   5.642   5.637
   51PMPE  C313 1818   2.453   5.543   5.667
   51PMPE  H13X 1819   2.390   5.539   5.758
   51PMPE  H13Y 1820   2.443   5.450   5.606
   51PMPE  C314 1821   2.389   5.658   5.597
   51PMPE  H14X 1822   2.376   5.742   5.667
   51PMPE  H14Y 1823   2.294   5.614   5.573
   51PMPE  C315 1824   2.439   5.692   5.460
   51PMPE  H15X 1825   2.392   5.618   5.391
   51PMPE  H15Y 1826   2.549   5.680   5.453
   51PMPE  C316 1827   2.397   5.833   5.424
   51PMPE  H16X 1828   2.420   5.853   5.318
   51PMPE  H16Y 1829   2.450   5.907   5.488
   51PMPE  H16Z 1830   2.288   5.848   5.442
   52PMPE     N 1831   4.385   6.759   7.475
   52PMPE   HN1 1832   4.365   6.860   7.456
   52PMPE   HN2 1833   4.315   6.697   7.429
   52PMPE   HN3 1834   4.385   6.743   7.578
   52PMPE   C12 1835   4.524   6.732   7.428
   52PMPE  H12A 1836   4.531   6.738   7.318
   52PMPE  H12B 1837   4.551   6.631   7.458
   52PMPE   C11 1838   4.617   6.830   7.499
   52PMPE  H11A 1839   4.724   6.801   7.482
   52PMPE  H11B 1840   4.599   6.820   7.609
   52PMPE     P 1841   4.674   7.043   7.352
   52PMPE   O13 1842   4.806   7.081   7.408
   52PMPE   O14 1843   4.590   7.148   7.292
   52PMPE   O11 1844   4.691   6.930   7.246
   52PMPE   O12 1845   4.587   6.964   7.461
   52PMPE    C1 1846   4.818   6.904   7.192
   52PMPE    HA 1847   4.849   6.813   7.248
   52PMPE    HB 1848   4.897   6.979   7.210
   52PMPE    C2 1849   4.800   6.881   7.040
   52PMPE    HS 1850   4.901   6.871   6.992
   52PMPE   O21 1851   4.721   6.966   6.965
   52PMPE   C21 1852   4.748   7.087   6.975
   52PMPE   O22 1853   4.854   7.137   7.012
   52PMPE   C22 1854   4.628   7.150   6.911
   52PMPE   H2R 1855   4.606   7.249   6.954
   52PMPE   H2S 1856   4.539   7.085   6.929
   52PMPE    C3 1857   4.731   6.755   7.022
   52PMPE    HX 1858   4.640   6.736   7.084
   52PMPE    HY 1859   4.820   6.713   7.066
   52PMPE   O31 1860   4.723   6.715   6.888
   52PMPE   C31 1861   4.607   6.710   6.830
   52PMPE   O32 1862   4.499   6.730   6.882
   52PMPE   C32 1863   4.621   6.662   6.686
   52PMPE   H2X 1864   4.536   6.696   6.627
   52PMPE   H2Y 1865   4.622   6.552   6.683
   52PMPE   C23 1866   4.650   7.161   6.762
   52PMPE   H3R 1867   4.703   7.077   6.713
   52PMPE   H3S 1868   4.713   7.248   6.749
   52PMPE   C24 1869   4.517   7.181   6.697
   52PMPE   H4R 1870   4.481   7.286   6.714
   52PMPE   H4S 1871   4.441   7.107   6.727
   52PMPE   C25 1872   4.523   7.149   6.554
   52PMPE   H5R 1873   4.560   7.057   6.509
   52PMPE   H5S 1874   4.622   7.190   6.534
   52PMPE   C26 1875   4.390   7.204   6.505
   52PMPE   H6R 1876   4.388   7.224   6.405
   52PMPE   H6S 1877   4.356   7.304   6.535
   52PMPE   C27 1878   4.299   7.100   6.456
   52PMPE   H7R 1879   4.206   7.143   6.410
   52PMPE   H7S 1880   4.283   7.047   6.551
   52PMPE   C28 1881   4.367   7.018   6.349
   52PMPE   H8R 1882   4.464   6.969   6.375
   52PMPE   H8S 1883   4.369   7.033   6.238
   52PMPE   C29 1884   4.260   6.944   6.332
   52PMPE   H9R 1885   4.167   6.974   6.275
   52PMPE  C217 1886   4.275   6.835   6.431
   52PMPE  H17R 1887   4.185   6.775   6.445
   52PMPE  H17S 1888   4.368   6.805   6.475
   52PMPE  C210 1889   4.319   6.831   6.279
   52PMPE  H10R 1890   4.226   6.799   6.255
   52PMPE  C211 1891   4.461   6.781   6.217
   52PMPE  H11R 1892   4.463   6.674   6.193
   52PMPE  H11S 1893   4.544   6.785   6.288
   52PMPE  C212 1894   4.500   6.815   6.071
   52PMPE  H12R 1895   4.538   6.913   6.089
   52PMPE  H12S 1896   4.408   6.814   6.007
   52PMPE  C213 1897   4.611   6.729   5.999
   52PMPE  H13R 1898   4.596   6.622   5.978
   52PMPE  H13S 1899   4.701   6.733   6.064
   52PMPE  C214 1900   4.647   6.785   5.861
   52PMPE  H14R 1901   4.741   6.745   5.821
   52PMPE  H14S 1902   4.672   6.874   5.914
   52PMPE  C215 1903   4.549   6.816   5.744
   52PMPE  H15R 1904   4.485   6.738   5.731
   52PMPE  H15S 1905   4.595   6.792   5.646
   52PMPE  C216 1906   4.433   6.920   5.745
   52PMPE  H16R 1907   4.453   6.991   5.665
   52PMPE  H16S 1908   4.334   6.879   5.716
   52PMPE  H16T 1909   4.420   6.967   5.844
   52PMPE   C33 1910   4.748   6.679   6.610
   52PMPE   H3X 1911   4.733   6.682   6.502
   52PMPE   H3Y 1912   4.805   6.591   6.633
   52PMPE   C34 1913   4.838   6.784   6.650
   52PMPE   H4X 1914   4.883   6.764   6.751
   52PMPE   H4Y 1915   4.774   6.874   6.650
   52PMPE   C35 1916   4.949   6.786   6.550
   52PMPE   H5X 1917   4.917   6.803   6.445
   52PMPE   H5Y 1918   5.019   6.699   6.554
   52PMPE   C36 1919   5.030   6.893   6.604
   52PMPE   H6X 1920   5.133   6.863   6.574
   52PMPE   H6Y 1921   5.027   6.886   6.714
   52PMPE   C37 1922   4.972   7.031   6.579
   52PMPE   H7X 1923   5.045   7.099   6.625
   52PMPE   H7Y 1924   4.885   7.056   6.639
   52PMPE   C38 1925   4.949   7.060   6.429
   52PMPE   H8X 1926   4.888   6.992   6.369
   52PMPE   H8Y 1927   5.041   7.041   6.388
   52PMPE   C39 1928   4.955   7.205   6.388
   52PMPE   H9X 1929   5.044   7.270   6.386
   52PMPE   H9Y 1930   4.917   7.220   6.486
   52PMPE  C310 1931   4.872   7.241   6.269
   52PMPE  H10X 1932   4.784   7.178   6.300
   52PMPE  H10Y 1933   4.895   7.188   6.176
   52PMPE  C311 1934   4.870   7.402   6.243
   52PMPE  H11X 1935   4.956   7.437   6.188
   52PMPE  H11Y 1936   4.851   7.465   6.329
   52PMPE  C312 1937   4.755   7.481   6.176
   52PMPE  H12X 1938   4.703   7.578   6.179
   52PMPE  H12Y 1939   4.680   7.486   6.249
   52PMPE  C313 1940   4.689   7.399   6.091
   52PMPE  H13X 1941   4.583   7.402   6.102
   52PMPE  H13Y 1942   4.706   7.297   6.131
   52PMPE  C314 1943   4.687   7.480   5.968
   52PMPE  H14X 1944   4.790   7.514   5.961
   52PMPE  H14Y 1945   4.614   7.565   5.977
   52PMPE  C315 1946   4.638   7.426   5.847
   52PMPE  H15X 1947   4.693   7.465   5.762
   52PMPE  H15Y 1948   4.527   7.406   5.831
   52PMPE  C316 1949   4.703   7.353   5.759
   52PMPE  H16X 1950   4.621   7.292   5.708
   52PMPE  H16Y 1951   4.772   7.269   5.776
   52PMPE  H16Z 1952   4.796   7.297   5.778
   53PMPE     N 1953   5.557   2.708   7.337
   53PMPE   HN1 1954   5.517   2.613   7.356
   53PMPE   HN2 1955   5.482   2.781   7.330
   53PMPE   HN3 1956   5.610   2.705   7.248
   53PMPE   C12 1957   5.647   2.745   7.451
   53PMPE  H12A 1958   5.583   2.803   7.520
   53PMPE  H12B 1959   5.727   2.814   7.417
   53PMPE   C11 1960   5.710   2.624   7.524
   53PMPE  H11A 1961   5.635   2.567   7.582
   53PMPE  H11B 1962   5.777   2.668   7.602
   53PMPE     P 1963   5.743   2.407   7.377
   53PMPE   O13 1964   5.604   2.391   7.423
   53PMPE   O14 1965   5.841   2.301   7.401
   53PMPE   O11 1966   5.746   2.456   7.228
   53PMPE   O12 1967   5.792   2.541   7.443
   53PMPE    C1 1968   5.859   2.530   7.182
   53PMPE    HA 1969   5.955   2.479   7.208
   53PMPE    HB 1970   5.862   2.630   7.229
   53PMPE    C2 1971   5.848   2.540   7.029
   53PMPE    HS 1972   5.929   2.605   6.988
   53PMPE   O21 1973   5.718   2.584   6.981
   53PMPE   C21 1974   5.696   2.710   6.993
   53PMPE   O22 1975   5.765   2.787   7.058
   53PMPE   C22 1976   5.564   2.747   6.922
   53PMPE   H2R 1977   5.527   2.834   6.980
   53PMPE   H2S 1978   5.490   2.666   6.936
   53PMPE    C3 1979   5.876   2.400   6.973
   53PMPE    HX 1980   5.865   2.325   7.054
   53PMPE    HY 1981   5.981   2.399   6.936
   53PMPE   O31 1982   5.779   2.372   6.873
   53PMPE   C31 1983   5.828   2.349   6.758
   53PMPE   O32 1984   5.939   2.303   6.735
   53PMPE   C32 1985   5.715   2.372   6.657
   53PMPE   H2X 1986   5.670   2.466   6.641
   53PMPE   H2Y 1987   5.635   2.328   6.717
   53PMPE   C23 1988   5.562   2.784   6.770
   53PMPE   H3R 1989   5.651   2.825   6.726
   53PMPE   H3S 1990   5.495   2.870   6.752
   53PMPE   C24 1991   5.523   2.669   6.681
   53PMPE   H4R 1992   5.413   2.657   6.686
   53PMPE   H4S 1993   5.567   2.582   6.731
   53PMPE   C25 1994   5.571   2.683   6.536
   53PMPE   H5R 1995   5.550   2.586   6.487
   53PMPE   H5S 1996   5.680   2.698   6.524
   53PMPE   C26 1997   5.498   2.795   6.462
   53PMPE   H6R 1998   5.513   2.894   6.508
   53PMPE   H6S 1999   5.390   2.781   6.483
   53PMPE   C27 2000   5.540   2.809   6.313
   53PMPE   H7R 2001   5.649   2.805   6.301
   53PMPE   H7S 2002   5.494   2.903   6.274
   53PMPE   C28 2003   5.498   2.704   6.218
   53PMPE   H8R 2004   5.543   2.604   6.240
   53PMPE   H8S 2005   5.510   2.726   6.110
   53PMPE   C29 2006   5.361   2.699   6.252
   53PMPE   H9R 2007   5.285   2.783   6.252
   53PMPE  C217 2008   5.343   2.584   6.351
   53PMPE  H17R 2009   5.288   2.636   6.424
   53PMPE  H17S 2010   5.407   2.502   6.370
   53PMPE  C210 2011   5.311   2.581   6.206
   53PMPE  H10R 2012   5.209   2.601   6.211
   53PMPE  C211 2013   5.387   2.484   6.109
   53PMPE  H11R 2014   5.347   2.382   6.103
   53PMPE  H11S 2015   5.475   2.438   6.152
   53PMPE  C212 2016   5.380   2.539   5.966
   53PMPE  H12R 2017   5.424   2.638   5.963
   53PMPE  H12S 2018   5.283   2.576   5.932
   53PMPE  C213 2019   5.426   2.436   5.866
   53PMPE  H13R 2020   5.383   2.334   5.870
   53PMPE  H13S 2021   5.527   2.413   5.888
   53PMPE  C214 2022   5.417   2.480   5.724
   53PMPE  H14R 2023   5.488   2.562   5.712
   53PMPE  H14S 2024   5.321   2.521   5.692
   53PMPE  C215 2025   5.445   2.362   5.635
   53PMPE  H15R 2026   5.432   2.420   5.544
   53PMPE  H15S 2027   5.367   2.281   5.639
   53PMPE  C216 2028   5.585   2.305   5.638
   53PMPE  H16R 2029   5.619   2.285   5.537
   53PMPE  H16S 2030   5.655   2.375   5.687
   53PMPE  H16T 2031   5.591   2.208   5.688
   53PMPE   C33 2032   5.746   2.323   6.513
   53PMPE   H3X 2033   5.775   2.218   6.494
   53PMPE   H3Y 2034   5.835   2.277   6.545
   53PMPE   C34 2035   5.641   2.327   6.399
   53PMPE   H4X 2036   5.588   2.418   6.399
   53PMPE   H4Y 2037   5.548   2.285   6.421
   53PMPE   C35 2038   5.654   2.257   6.264
   53PMPE   H5X 2039   5.564   2.252   6.200
   53PMPE   H5Y 2040   5.708   2.163   6.251
   53PMPE   C36 2041   5.750   2.330   6.200
   53PMPE   H6X 2042   5.839   2.289   6.248
   53PMPE   H6Y 2043   5.760   2.435   6.226
   53PMPE   C37 2044   5.744   2.289   6.058
   53PMPE   H7X 2045   5.734   2.188   6.023
   53PMPE   H7Y 2046   5.827   2.221   6.081
   53PMPE   C38 2047   5.764   2.415   5.965
   53PMPE   H8X 2048   5.668   2.458   5.981
   53PMPE   H8Y 2049   5.767   2.390   5.858
   53PMPE   C39 2050   5.871   2.527   5.997
   53PMPE   H9X 2051   5.977   2.509   5.968
   53PMPE   H9Y 2052   5.876   2.558   6.101
   53PMPE  C310 2053   5.901   2.634   5.914
   53PMPE  H10X 2054   5.986   2.700   5.944
   53PMPE  H10Y 2055   5.809   2.681   5.948
   53PMPE  C311 2056   5.935   2.558   5.788
   53PMPE  H11X 2057   5.902   2.461   5.748
   53PMPE  H11Y 2058   6.046   2.549   5.783
   53PMPE  C312 2059   5.868   2.648   5.716
   53PMPE  H12X 2060   5.932   2.619   5.627
   53PMPE  H12Y 2061   5.898   2.749   5.735
   53PMPE  C313 2062   5.711   2.666   5.726
   53PMPE  H13X 2063   5.679   2.690   5.830
   53PMPE  H13Y 2064   5.673   2.579   5.673
   53PMPE  C314 2065   5.633   2.799   5.692
   53PMPE  H14X 2066   5.722   2.843   5.712
   53PMPE  H14Y 2067   5.662   2.880   5.623
   53PMPE  C315 2068   5.518   2.807   5.595
   53PMPE  H15X 2069   5.456   2.827   5.684
   53PMPE  H15Y 2070   5.496   2.716   5.537
   53PMPE  C316 2071   5.494   2.918   5.496
   53PMPE  H16X 2072   5.495   3.023   5.527
   53PMPE  H16Y 2073   5.388   2.904   5.486
   53PMPE  H16Z 2074   5.534   2.911   5.392
   54PMPE     N 2075   6.412   4.818   7.518
   54PMPE   HN1 2076   6.341   4.825   7.594
   54PMPE   HN2 2077   6.506   4.794   7.555
   54PMPE   HN3 2078   6.421   4.912   7.474
   54PMPE   C12 2079   6.378   4.711   7.417
   54PMPE  H12A 2080   6.292   4.746   7.356
   54PMPE  H12B 2081   6.353   4.619   7.474
   54PMPE   C11 2082   6.500   4.683   7.328
   54PMPE  H11A 2083   6.515   4.771   7.261
   54PMPE  H11B 2084   6.479   4.594   7.264
   54PMPE     P 2085   6.717   4.546   7.386
   54PMPE   O13 2086   6.639   4.421   7.398
   54PMPE   O14 2087   6.834   4.567   7.473
   54PMPE   O11 2088   6.754   4.569   7.233
   54PMPE   O12 2089   6.614   4.667   7.412
   54PMPE    C1 2090   6.817   4.685   7.181
   54PMPE    HA 2091   6.923   4.688   7.212
   54PMPE    HB 2092   6.770   4.776   7.226
   54PMPE    C2 2093   6.796   4.705   7.023
   54PMPE    HS 2094   6.688   4.697   7.006
   54PMPE   O21 2095   6.860   4.626   6.921
   54PMPE   C21 2096   6.804   4.515   6.872
   54PMPE   O22 2097   6.694   4.474   6.896
   54PMPE   C22 2098   6.904   4.440   6.789
   54PMPE   H2R 2099   6.882   4.339   6.754
   54PMPE   H2S 2100   6.995   4.423   6.841
   54PMPE    C3 2101   6.849   4.845   6.991
   54PMPE    HX 2102   6.953   4.846   7.029
   54PMPE    HY 2103   6.787   4.918   7.045
   54PMPE   O31 2104   6.860   4.865   6.848
   54PMPE   C31 2105   6.740   4.875   6.799
   54PMPE   O32 2106   6.641   4.907   6.861
   54PMPE   C32 2107   6.739   4.832   6.654
   54PMPE   H2X 2108   6.778   4.729   6.644
   54PMPE   H2Y 2109   6.803   4.901   6.595
   54PMPE   C23 2110   6.995   4.520   6.714
   54PMPE   H3R 2111   7.056   4.601   6.756
   54PMPE   H3S 2112   6.922   4.587   6.675
   54PMPE   C24 2113   7.084   4.417   6.652
   54PMPE   H4R 2114   7.047   4.333   6.592
   54PMPE   H4S 2115   7.184   4.385   6.700
   54PMPE   C25 2116   7.117   4.512   6.560
   54PMPE   H5R 2117   7.212   4.462   6.527
   54PMPE   H5S 2118   7.218   4.530   6.574
   54PMPE   C26 2119   7.010   4.628   6.480
   54PMPE   H6R 2120   6.929   4.679   6.525
   54PMPE   H6S 2121   6.975   4.525   6.466
   54PMPE   C27 2122   7.043   4.754   6.361
   54PMPE   H7R 2123   7.127   4.739   6.296
   54PMPE   H7S 2124   7.066   4.846   6.414
   54PMPE   C28 2125   7.048   4.794   6.205
   54PMPE   H8R 2126   7.093   4.739   6.117
   54PMPE   H8S 2127   7.110   4.888   6.188
   54PMPE   C29 2128   6.906   4.798   6.222
   54PMPE   H9R 2129   6.868   4.853   6.312
   54PMPE  C217 2130   6.826   4.668   6.204
   54PMPE  H17R 2131   6.739   4.663   6.266
   54PMPE  H17S 2132   6.860   4.581   6.152
   54PMPE  C210 2133   6.820   4.786   6.108
   54PMPE  H10R 2134   6.738   4.857   6.123
   54PMPE  C211 2135   6.888   4.766   5.975
   54PMPE  H11R 2136   6.806   4.736   5.907
   54PMPE  H11S 2137   6.961   4.682   5.976
   54PMPE  C212 2138   6.953   4.898   5.929
   54PMPE  H12R 2139   7.039   4.929   5.991
   54PMPE  H12S 2140   6.877   4.979   5.936
   54PMPE  C213 2141   7.005   4.887   5.786
   54PMPE  H13R 2142   6.935   4.821   5.732
   54PMPE  H13S 2143   7.105   4.839   5.791
   54PMPE  C214 2144   7.012   5.025   5.718
   54PMPE  H14R 2145   7.037   5.100   5.795
   54PMPE  H14S 2146   6.911   5.049   5.677
   54PMPE  C215 2147   7.119   5.044   5.610
   54PMPE  H15R 2148   7.221   5.046   5.644
   54PMPE  H15S 2149   7.098   5.133   5.548
   54PMPE  C216 2150   7.131   4.934   5.520
   54PMPE  H16R 2151   7.196   4.932   5.431
   54PMPE  H16S 2152   7.144   4.836   5.572
   54PMPE  H16T 2153   7.026   4.947   5.482
   54PMPE   C33 2154   6.593   4.834   6.607
   54PMPE   H3X 2155   6.544   4.928   6.644
   54PMPE   H3Y 2156   6.539   4.749   6.654
   54PMPE   C34 2157   6.577   4.833   6.457
   54PMPE   H4X 2158   6.624   4.744   6.411
   54PMPE   H4Y 2159   6.625   4.924   6.413
   54PMPE   C35 2160   6.429   4.841   6.424
   54PMPE   H5X 2161   6.396   4.934   6.475
   54PMPE   H5Y 2162   6.368   4.759   6.466
   54PMPE   C36 2163   6.406   4.855   6.274
   54PMPE   H6X 2164   6.491   4.914   6.232
   54PMPE   H6Y 2165   6.310   4.909   6.259
   54PMPE   C37 2166   6.393   4.725   6.196
   54PMPE   H7X 2167   6.315   4.669   6.247
   54PMPE   H7Y 2168   6.484   4.663   6.206
   54PMPE   C38 2169   6.354   4.746   6.049
   54PMPE   H8X 2170   6.424   4.819   6.003
   54PMPE   H8Y 2171   6.251   4.788   6.041
   54PMPE   C39 2172   6.357   4.614   5.972
   54PMPE   H9X 2173   6.272   4.548   6.002
   54PMPE   H9Y 2174   6.452   4.561   5.997
   54PMPE  C310 2175   6.346   4.636   5.823
   54PMPE  H10X 2176   6.361   4.745   5.807
   54PMPE  H10Y 2177   6.244   4.613   5.785
   54PMPE  C311 2178   6.446   4.555   5.741
   54PMPE  H11X 2179   6.437   4.446   5.762
   54PMPE  H11Y 2180   6.550   4.586   5.769
   54PMPE  C312 2181   6.419   4.590   5.596
   54PMPE  H12X 2182   6.320   4.553   5.563
   54PMPE  H12Y 2183   6.487   4.531   5.534
   54PMPE  C313 2184   6.425   4.748   5.585
   54PMPE  H13X 2185   6.497   4.785   5.662
   54PMPE  H13Y 2186   6.325   4.793   5.594
   54PMPE  C314 2187   6.491   4.806   5.467
   54PMPE  H14X 2188   6.469   4.780   5.363
   54PMPE  H14Y 2189   6.531   4.710   5.471
   54PMPE  C315 2190   6.550   4.949   5.453
   54PMPE  H15X 2191   6.465   5.015   5.481
   54PMPE  H15Y 2192   6.569   4.969   5.344
   54PMPE  C316 2193   6.674   4.990   5.534
   54PMPE  H16X 2194   6.691   5.099   5.524
   54PMPE  H16Y 2195   6.770   4.951   5.497
   54PMPE  H16Z 2196   6.663   4.954   5.638
   55PMPE     N 2197   6.251   2.894   7.300
   55PMPE   HN1 2198   6.255   2.904   7.196
   55PMPE   HN2 2199   6.211   2.801   7.324
   55PMPE   HN3 2200   6.188   2.969   7.336
   55PMPE   C12 2201   6.391   2.920   7.354
   55PMPE  H12A 2202   6.462   2.857   7.297
   55PMPE  H12B 2203   6.392   2.891   7.461
   55PMPE   C11 2204   6.430   3.068   7.343
   55PMPE  H11A 2205   6.412   3.101   7.238
   55PMPE  H11B 2206   6.540   3.078   7.363
   55PMPE     P 2207   6.385   3.304   7.442
   55PMPE   O13 2208   6.529   3.326   7.431
   55PMPE   O14 2209   6.309   3.369   7.550
   55PMPE   O11 2210   6.323   3.341   7.305
   55PMPE   O12 2211   6.355   3.146   7.437
   55PMPE    C1 2212   6.188   3.311   7.268
   55PMPE    HA 2213   6.116   3.380   7.319
   55PMPE    HB 2214   6.160   3.205   7.282
   55PMPE    C2 2215   6.177   3.331   7.119
   55PMPE    HS 2216   6.074   3.305   7.082
   55PMPE   O21 2217   6.274   3.249   7.054
   55PMPE   C21 2218   6.263   3.210   6.930
   55PMPE   O22 2219   6.162   3.207   6.861
   55PMPE   C22 2220   6.401   3.168   6.887
   55PMPE   H2R 2221   6.400   3.148   6.778
   55PMPE   H2S 2222   6.420   3.072   6.940
   55PMPE    C3 2223   6.211   3.480   7.099
   55PMPE    HX 2224   6.282   3.532   7.162
   55PMPE    HY 2225   6.115   3.532   7.140
   55PMPE   O31 2226   6.275   3.489   6.965
   55PMPE   C31 2227   6.172   3.487   6.893
   55PMPE   O32 2228   6.069   3.532   6.945
   55PMPE   C32 2229   6.210   3.443   6.732
   55PMPE   H2X 2230   6.310   3.419   6.709
   55PMPE   H2Y 2231   6.228   3.548   6.713
   55PMPE   C23 2232   6.504   3.276   6.931
   55PMPE   H3R 2233   6.488   3.309   7.036
   55PMPE   H3S 2234   6.488   3.366   6.867
   55PMPE   C24 2235   6.649   3.229   6.931
   55PMPE   H4R 2236   6.666   3.158   7.015
   55PMPE   H4S 2237   6.714   3.318   6.951
   55PMPE   C25 2238   6.689   3.159   6.801
   55PMPE   H5R 2239   6.641   3.059   6.795
   55PMPE   H5S 2240   6.799   3.143   6.805
   55PMPE   C26 2241   6.642   3.241   6.678
   55PMPE   H6R 2242   6.669   3.342   6.714
   55PMPE   H6S 2243   6.536   3.241   6.654
   55PMPE   C27 2244   6.706   3.196   6.547
   55PMPE   H7R 2245   6.684   3.088   6.532
   55PMPE   H7S 2246   6.808   3.205   6.586
   55PMPE   C28 2247   6.685   3.263   6.405
   55PMPE   H8R 2248   6.575   3.266   6.398
   55PMPE   H8S 2249   6.732   3.192   6.332
   55PMPE   C29 2250   6.745   3.400   6.365
   55PMPE   H9R 2251   6.852   3.407   6.355
   55PMPE  C217 2252   6.648   3.517   6.397
   55PMPE  H17R 2253   6.675   3.612   6.429
   55PMPE  H17S 2254   6.551   3.484   6.426
   55PMPE  C210 2255   6.708   3.500   6.263
   55PMPE  H10R 2256   6.797   3.563   6.234
   55PMPE  C211 2257   6.611   3.453   6.171
   55PMPE  H11R 2258   6.583   3.543   6.113
   55PMPE  H11S 2259   6.526   3.415   6.232
   55PMPE  C212 2260   6.673   3.342   6.090
   55PMPE  H12R 2261   6.752   3.284   6.143
   55PMPE  H12S 2262   6.723   3.396   6.007
   55PMPE  C213 2263   6.563   3.249   6.041
   55PMPE  H13R 2264   6.491   3.317   5.991
   55PMPE  H13S 2265   6.512   3.198   6.125
   55PMPE  C214 2266   6.612   3.150   5.938
   55PMPE  H14R 2267   6.526   3.097   5.891
   55PMPE  H14S 2268   6.682   3.076   5.982
   55PMPE  C215 2269   6.683   3.229   5.833
   55PMPE  H15R 2270   6.786   3.253   5.866
   55PMPE  H15S 2271   6.627   3.323   5.817
   55PMPE  C216 2272   6.692   3.165   5.702
   55PMPE  H16R 2273   6.601   3.128   5.652
   55PMPE  H16S 2274   6.738   3.242   5.639
   55PMPE  H16T 2275   6.765   3.084   5.711
   55PMPE   C33 2276   6.108   3.381   6.611
   55PMPE   H3X 2277   6.016   3.434   6.574
   55PMPE   H3Y 2278   6.031   3.318   6.655
   55PMPE   C34 2279   6.159   3.357   6.472
   55PMPE   H4X 2280   6.080   3.359   6.388
   55PMPE   H4Y 2281   6.221   3.270   6.469
   55PMPE   C35 2282   6.221   3.468   6.409
   55PMPE   H5X 2283   6.270   3.412   6.330
   55PMPE   H5Y 2284   6.323   3.509   6.429
   55PMPE   C36 2285   6.094   3.568   6.387
   55PMPE   H6X 2286   6.185   3.623   6.381
   55PMPE   H6Y 2287   6.107   3.670   6.364
   55PMPE   C37 2288   5.973   3.615   6.276
   55PMPE   H7X 2289   5.962   3.721   6.269
   55PMPE   H7Y 2290   5.898   3.586   6.328
   55PMPE   C38 2291   5.917   3.581   6.122
   55PMPE   H8X 2292   5.816   3.598   6.086
   55PMPE   H8Y 2293   5.902   3.475   6.143
   55PMPE   C39 2294   5.904   3.714   6.094
   55PMPE   H9X 2295   6.055   3.689   5.929
   55PMPE   H9Y 2296   6.031   3.708   5.970
   55PMPE  C310 2297   6.237   3.374   5.929
   55PMPE  H10X 2298   6.147   3.356   5.945
   55PMPE  H10Y 2299   6.199   3.315   5.964
   55PMPE  C311 2300   6.325   3.450   5.818
   55PMPE  H11X 2301   6.400   3.515   5.856
   55PMPE  H11Y 2302   6.301   3.534   5.752
   55PMPE  C312 2303   6.329   3.340   5.713
   55PMPE  H12X 2304   6.236   3.306   5.665
   55PMPE  H12Y 2305   6.353   3.235   5.749
   55PMPE  C313 2306   6.397   3.382   5.591
   55PMPE  H13X 2307   6.496   3.386   5.639
   55PMPE  H13Y 2308   6.380   3.484   5.551
   55PMPE  C314 2309   6.360   3.272   5.491
   55PMPE  H14X 2310   6.285   3.288   5.411
   55PMPE  H14Y 2311   6.312   3.189   5.543
   55PMPE  C315 2312   6.485   3.233   5.430
   55PMPE  H15X 2313   6.569   3.280   5.479
   55PMPE  H15Y 2314   6.524   3.300   5.361
   55PMPE  C316 2315   6.482   3.149   5.309
   55PMPE  H16X 2316   6.571   3.101   5.351
   55PMPE  H16Y 2317   6.507   3.186   5.209
   55PMPE  H16Z 2318   6.388   3.094   5.295
   56PMPE     N 2319   5.325   7.216   7.426
   56PMPE   HN1 2320   5.346   7.198   7.326
   56PMPE   HN2 2321   5.265   7.137   7.460
   56PMPE   HN3 2322   5.273   7.307   7.435
   56PMPE   C12 2323   5.452   7.212   7.506
   56PMPE  H12A 2324   5.426   7.246   7.608
   56PMPE  H12B 2325   5.525   7.284   7.462
   56PMPE   C11 2326   5.512   7.069   7.511
   56PMPE  H11A 2327   5.440   6.998   7.558
   56PMPE  H11B 2328   5.603   7.072   7.577
   56PMPE     P 2329   5.593   6.877   7.349
   56PMPE   O13 2330   5.615   6.802   7.476
   56PMPE   O14 2331   5.703   6.883   7.250
   56PMPE   O11 2332   5.461   6.823   7.286
   56PMPE   O12 2333   5.546   7.027   7.380
   56PMPE    C1 2334   5.380   6.899   7.199
   56PMPE    HA 2335   5.432   6.976   7.139
   56PMPE    HB 2336   5.297   6.940   7.262
   56PMPE    C2 2337   5.310   6.808   7.100
   56PMPE    HS 2338   5.280   6.729   7.167
   56PMPE   O21 2339   5.392   6.751   7.000
   56PMPE   C21 2340   5.490   6.668   7.029
   56PMPE   O22 2341   5.544   6.638   7.133
   56PMPE   C22 2342   5.527   6.602   6.904
   56PMPE   H2R 2343   5.460   6.628   6.819
   56PMPE   H2S 2344   5.533   6.492   6.912
   56PMPE    C3 2345   5.190   6.883   7.029
   56PMPE    HX 2346   5.117   6.907   7.108
   56PMPE    HY 2347   5.128   6.817   6.963
   56PMPE   O31 2348   5.228   7.005   6.961
   56PMPE   C31 2349   5.242   6.985   6.828
   56PMPE   O32 2350   5.239   6.875   6.777
   56PMPE   C32 2351   5.269   7.116   6.751
   56PMPE   H2X 2352   5.340   7.170   6.817
   56PMPE   H2Y 2353   5.179   7.181   6.745
   56PMPE   C23 2354   5.663   6.665   6.897
   56PMPE   H3R 2355   5.689   6.659   6.791
   56PMPE   H3S 2356   5.736   6.613   6.964
   56PMPE   C24 2357   5.668   6.815   6.908
   56PMPE   H4R 2358   5.776   6.835   6.901
   56PMPE   H4S 2359   5.636   6.855   7.007
   56PMPE   C25 2360   5.586   6.875   6.793
   56PMPE   H5R 2361   5.492   6.918   6.833
   56PMPE   H5S 2362   5.551   6.797   6.722
   56PMPE   C26 2363   5.669   6.971   6.709
   56PMPE   H6R 2364   5.709   7.052   6.774
   56PMPE   H6S 2365   5.600   7.018   6.635
   56PMPE   C27 2366   5.790   6.903   6.640
   56PMPE   H7R 2367   5.858   6.866   6.720
   56PMPE   H7S 2368   5.847   6.978   6.582
   56PMPE   C28 2369   5.762   6.784   6.546
   56PMPE   H8R 2370   5.745   6.694   6.608
   56PMPE   H8S 2371   5.853   6.761   6.488
   56PMPE   C29 2372   5.640   6.802   6.454
   56PMPE   H9R 2373   5.541   6.779   6.496
   56PMPE  C217 2374   5.662   6.737   6.318
   56PMPE  H17R 2375   5.573   6.686   6.281
   56PMPE  H17S 2376   5.763   6.716   6.286
   56PMPE  C210 2377   5.642   6.889   6.330
   56PMPE  H10R 2378   5.546   6.922   6.289
   56PMPE  C211 2379   5.767   6.977   6.310
   56PMPE  H11R 2380   5.858   6.913   6.315
   56PMPE  H11S 2381   5.771   7.050   6.393
   56PMPE  C212 2382   5.770   7.057   6.179
   56PMPE  H12R 2383   5.848   7.138   6.189
   56PMPE  H12S 2384   5.673   7.105   6.156
   56PMPE  C213 2385   5.813   6.974   6.059
   56PMPE  H13R 2386   5.899   6.916   6.097
   56PMPE  H13S 2387   5.851   7.042   5.978
   56PMPE  C214 2388   5.707   6.878   6.004
   56PMPE  H14R 2389   5.620   6.937   5.967
   56PMPE  H14S 2390   5.677   6.806   6.081
   56PMPE  C215 2391   5.747   6.794   5.886
   56PMPE  H15R 2392   5.672   6.718   5.853
   56PMPE  H15S 2393   5.837   6.731   5.907
   56PMPE  C216 2394   5.765   6.888   5.772
   56PMPE  H16R 2395   5.692   6.961   5.739
   56PMPE  H16S 2396   5.864   6.941   5.772
   56PMPE  H16T 2397   5.765   6.809   5.693
   56PMPE   C33 2398   5.333   7.092   6.609
   56PMPE   H3X 2399   5.384   6.993   6.606
   56PMPE   H3Y 2400   5.403   7.173   6.583
   56PMPE   C34 2401   5.242   7.100   6.487
   56PMPE   H4X 2402   5.175   7.186   6.496
   56PMPE   H4Y 2403   5.190   7.007   6.491
   56PMPE   C35 2404   5.288   7.064   6.344
   56PMPE   H5X 2405   5.347   6.971   6.358
   56PMPE   H5Y 2406   5.345   7.153   6.315
   56PMPE   C36 2407   5.185   7.033   6.229
   56PMPE   H6X 2408   5.110   7.114   6.215
   56PMPE   H6Y 2409   5.126   6.940   6.249
   56PMPE   C37 2410   5.255   7.020   6.099
   56PMPE   H7X 2411   5.218   6.931   6.044
   56PMPE   H7Y 2412   5.363   7.011   6.124
   56PMPE   C38 2413   5.239   7.141   6.012
   56PMPE   H8X 2414   5.253   7.235   6.070
   56PMPE   H8Y 2415   5.137   7.144   5.968
   56PMPE   C39 2416   5.349   7.125   5.908
   56PMPE   H9X 2417   5.315   7.049   5.835
   56PMPE   H9Y 2418   5.442   7.083   5.951
   56PMPE  C310 2419   5.392   7.255   5.848
   56PMPE  H10X 2420   5.463   7.227   5.768
   56PMPE  H10Y 2421   5.446   7.321   5.919
   56PMPE  C311 2422   5.273   7.334   5.801
   56PMPE  H11X 2423   5.294   7.428   5.748
   56PMPE  H11Y 2424   5.209   7.369   5.884
   56PMPE  C312 2425   5.187   7.252   5.710
   56PMPE  H12X 2426   5.144   7.341   5.660
   56PMPE  H12Y 2427   5.114   7.200   5.776
   56PMPE  C313 2428   5.237   7.142   5.614
   56PMPE  H13X 2429   5.152   7.077   5.593
   56PMPE  H13Y 2430   5.304   7.066   5.652
   56PMPE  C314 2431   5.305   7.189   5.490
   56PMPE  H14X 2432   5.307   7.293   5.526
   56PMPE  H14Y 2433   5.258   7.207   5.391
   56PMPE  C315 2434   5.425   7.107   5.442
   56PMPE  H15X 2435   5.457   7.147   5.343
   56PMPE  H15Y 2436   5.390   7.005   5.417
   56PMPE  C316 2437   5.548   7.114   5.530
   56PMPE  H16X 2438   5.576   7.217   5.553
   56PMPE  H16Y 2439   5.638   7.077   5.477
   56PMPE  H16Z 2440   5.532   7.075   5.631
   57PMPE     N 2441   2.290   2.041   7.522
   57PMPE   HN1 2442   2.207   2.055   7.583
   57PMPE   HN2 2443   2.308   1.938   7.518
   57PMPE   HN3 2444   2.369   2.094   7.566
   57PMPE   C12 2445   2.252   2.093   7.385
   57PMPE  H12A 2446   2.336   2.075   7.315
   57PMPE  H12B 2447   2.234   2.202   7.393
   57PMPE   C11 2448   2.127   2.023   7.332
   57PMPE  H11A 2449   2.146   1.913   7.322
   57PMPE  H11B 2450   2.106   2.061   7.229
   57PMPE     P 2451   1.897   2.138   7.397
   57PMPE   O13 2452   1.879   2.228   7.513
   57PMPE   O14 2453   1.781   2.059   7.350
   57PMPE   O11 2454   1.953   2.229   7.282
   57PMPE   O12 2455   2.020   2.043   7.424
   57PMPE    C1 2456   1.860   2.261   7.181
   57PMPE    HA 2457   1.885   2.359   7.147
   57PMPE    HB 2458   1.754   2.274   7.214
   57PMPE    C2 2459   1.883   2.172   7.062
   57PMPE    HS 2460   1.864   2.067   7.089
   57PMPE   O21 2461   2.004   2.211   6.990
   57PMPE   C21 2462   2.064   2.100   6.949
   57PMPE   O22 2463   2.026   1.987   6.977
   57PMPE   C22 2464   2.176   2.125   6.847
   57PMPE   H2R 2465   2.267   2.143   6.907
   57PMPE   H2S 2466   2.157   2.209   6.780
   57PMPE    C3 2467   1.775   2.178   6.966
   57PMPE    HX 2468   1.769   2.292   6.964
   57PMPE    HY 2469   1.674   2.148   7.001
   57PMPE   O31 2470   1.810   2.102   6.842
   57PMPE   C31 2471   1.889   2.146   6.736
   57PMPE   O32 2472   1.946   2.253   6.732
   57PMPE   C32 2473   1.871   2.058   6.605
   57PMPE   H2X 2474   1.781   1.995   6.617
   57PMPE   H2Y 2475   1.962   2.005   6.627
   57PMPE   C23 2476   2.193   1.994   6.768
   57PMPE   H3R 2477   2.104   1.954   6.719
   57PMPE   H3S 2478   2.212   1.924   6.849
   57PMPE   C24 2479   2.306   1.974   6.669
   57PMPE   H4R 2480   2.279   1.894   6.599
   57PMPE   H4S 2481   2.399   1.949   6.727
   57PMPE   C25 2482   2.331   2.087   6.578
   57PMPE   H5R 2483   2.414   2.118   6.645
   57PMPE   H5S 2484   2.249   2.161   6.567
   57PMPE   C26 2485   2.418   2.069   6.457
   57PMPE   H6R 2486   2.383   2.011   6.377
   57PMPE   H6S 2487   2.516   2.030   6.498
   57PMPE   C27 2488   2.439   2.199   6.384
   57PMPE   H7R 2489   2.549   2.191   6.375
   57PMPE   H7S 2490   2.402   2.282   6.447
   57PMPE   C28 2491   2.367   2.236   6.262
   57PMPE   H8R 2492   2.262   2.228   6.294
   57PMPE   H8S 2493   2.401   2.167   6.182
   57PMPE   C29 2494   2.402   2.379   6.226
   57PMPE   H9R 2495   2.488   2.380   6.164
   57PMPE  C217 2496   2.362   2.502   6.312
   57PMPE  H17R 2497   2.442   2.575   6.314
   57PMPE  H17S 2498   2.312   2.471   6.402
   57PMPE  C210 2499   2.293   2.469   6.184
   57PMPE  H10R 2500   2.298   2.538   6.102
   57PMPE  C211 2501   2.155   2.426   6.193
   57PMPE  H11R 2502   2.108   2.526   6.189
   57PMPE  H11S 2503   2.134   2.380   6.291
   57PMPE  C212 2504   2.130   2.339   6.068
   57PMPE  H12R 2505   2.025   2.304   6.075
   57PMPE  H12S 2506   2.196   2.250   6.073
   57PMPE  C213 2507   2.151   2.410   5.931
   57PMPE  H13R 2508   2.128   2.342   5.848
   57PMPE  H13S 2509   2.259   2.429   5.925
   57PMPE  C214 2510   2.076   2.545   5.915
   57PMPE  H14R 2511   2.114   2.615   5.993
   57PMPE  H14S 2512   1.968   2.525   5.927
   57PMPE  C215 2513   2.062   2.618   5.781
   57PMPE  H15R 2514   2.156   2.666   5.762
   57PMPE  H15S 2515   1.997   2.707   5.795
   57PMPE  C216 2516   2.014   2.537   5.661
   57PMPE  H16R 2517   1.995   2.605   5.575
   57PMPE  H16S 2518   2.091   2.463   5.630
   57PMPE  H16T 2519   1.920   2.482   5.683
   57PMPE   C33 2520   1.890   2.106   6.451
   57PMPE   H3X 2521   1.929   2.019   6.394
   57PMPE   H3Y 2522   1.957   2.194   6.446
   57PMPE   C34 2523   1.773   2.129   6.352
   57PMPE   H4X 2524   1.702   2.200   6.393
   57PMPE   H4Y 2525   1.720   2.034   6.348
   57PMPE   C35 2526   1.800   2.170   6.204
   57PMPE   H5X 2527   1.848   2.083   6.161
   57PMPE   H5Y 2528   1.856   2.264   6.196
   57PMPE   C36 2529   1.679   2.196   6.117
   57PMPE   H6X 2530   1.632   2.290   6.147
   57PMPE   H6Y 2531   1.613   2.109   6.128
   57PMPE   C37 2532   1.658   2.211   5.973
   57PMPE   H7X 2533   1.727   2.289   5.937
   57PMPE   H7Y 2534   1.552   2.242   5.948
   57PMPE   C38 2535   1.673   2.069   5.938
   57PMPE   H8X 2536   1.600   1.996   5.984
   57PMPE   H8Y 2537   1.777   2.042   5.967
   57PMPE   C39 2538   1.644   2.060   5.801
   57PMPE   H9X 2539   1.706   2.144   5.759
   57PMPE   H9Y 2540   1.538   2.087   5.780
   57PMPE  C310 2541   1.690   1.919   5.768
   57PMPE  H10X 2542   1.651   1.888   5.675
   57PMPE  H10Y 2543   1.628   1.836   5.806
   57PMPE  C311 2544   1.844   1.905   5.769
   57PMPE  H11X 2545   1.865   1.818   5.701
   57PMPE  H11Y 2546   1.871   1.877   5.870
   57PMPE  C312 2547   1.938   2.029   5.745
   57PMPE  H12X 2548   1.937   2.112   5.815
   57PMPE  H12Y 2549   1.891   2.091   5.668
   57PMPE  C313 2550   2.086   1.992   5.707
   57PMPE  H13X 2551   2.100   1.901   5.646
   57PMPE  H13Y 2552   2.143   1.971   5.799
   57PMPE  C314 2553   2.155   2.104   5.626
   57PMPE  H14X 2554   2.256   2.081   5.664
   57PMPE  H14Y 2555   2.120   2.203   5.665
   57PMPE  C315 2556   2.161   2.115   5.464
   57PMPE  H15X 2557   2.226   2.043   5.409
   57PMPE  H15Y 2558   2.195   2.207   5.499
   57PMPE  C316 2559   2.077   2.207   5.364
   57PMPE  H16X 2560   2.023   2.292   5.409
   57PMPE  H16Y 2561   1.987   2.165   5.357
   57PMPE  H16Z 2562   2.083   2.185   5.255
   58PMPE     N 2563   1.622   3.036   7.477
   58PMPE   HN1 2564   1.581   3.112   7.537
   58PMPE   HN2 2565   1.659   2.961   7.538
   58PMPE   HN3 2566   1.699   3.072   7.417
   58PMPE   C12 2567   1.511   2.978   7.393
   58PMPE  H12A 2568   1.464   3.061   7.339
   58PMPE  H12B 2569   1.438   2.932   7.462
   58PMPE   C11 2570   1.568   2.874   7.295
   58PMPE  H11A 2571   1.644   2.924   7.232
   58PMPE  H11B 2572   1.489   2.836   7.224
   58PMPE     P 2573   1.560   2.634   7.405
   58PMPE   O13 2574   1.433   2.623   7.331
   58PMPE   O14 2575   1.554   2.637   7.553
   58PMPE   O11 2576   1.663   2.527   7.356
   58PMPE   O12 2577   1.633   2.770   7.365
   58PMPE    C1 2578   1.789   2.562   7.299
   58PMPE    HA 2579   1.860   2.480   7.324
   58PMPE    HB 2580   1.835   2.654   7.342
   58PMPE    C2 2581   1.782   2.581   7.144
   58PMPE    HS 2582   1.736   2.679   7.121
   58PMPE   O21 2583   1.702   2.474   7.088
   58PMPE   C21 2584   1.591   2.500   7.022
   58PMPE   O22 2585   1.550   2.610   6.988
   58PMPE   C22 2586   1.523   2.368   6.982
   58PMPE   H2R 2587   1.416   2.371   7.004
   58PMPE   H2S 2588   1.556   2.290   7.053
   58PMPE    C3 2589   1.931   2.582   7.093
   58PMPE    HX 2590   1.996   2.500   7.130
   58PMPE    HY 2591   1.984   2.669   7.137
   58PMPE   O31 2592   1.943   2.576   6.950
   58PMPE   C31 2593   1.919   2.691   6.893
   58PMPE   O32 2594   1.875   2.791   6.948
   58PMPE   C32 2595   1.956   2.676   6.746
   58PMPE   H2X 2596   1.918   2.579   6.708
   58PMPE   H2Y 2597   2.067   2.673   6.743
   58PMPE   C23 2598   1.533   2.334   6.831
   58PMPE   H3R 2599   1.484   2.408   6.765
   58PMPE   H3S 2600   1.492   2.231   6.818
   58PMPE   C24 2601   1.666   2.352   6.761
   58PMPE   H4R 2602   1.713   2.274   6.792
   58PMPE   H4S 2603   1.745   2.417   6.800
   58PMPE   C25 2604   1.686   2.284   6.629
   58PMPE   H5R 2605   1.661   2.176   6.640
   58PMPE   H5S 2606   1.784   2.273   6.584
   58PMPE   C26 2607   1.676   2.394   6.539
   58PMPE   H6R 2608   1.724   2.473   6.604
   58PMPE   H6S 2609   1.567   2.400   6.531
   58PMPE   C27 2610   1.769   2.419   6.423
   58PMPE   H7R 2611   1.809   2.346   6.360
   58PMPE   H7S 2612   1.874   2.436   6.452
   58PMPE   C28 2613   1.683   2.487   6.321
   58PMPE   H8R 2614   1.662   2.581   6.372
   58PMPE   H8S 2615   1.579   2.451   6.318
   58PMPE   C29 2616   1.742   2.491   6.182
   58PMPE   H9R 2617   1.746   2.416   6.103
   58PMPE  C217 2618   1.881   2.542   6.175
   58PMPE  H17R 2619   1.932   2.483   6.102
   58PMPE  H17S 2620   1.920   2.560   6.273
   58PMPE  C210 2621   1.764   2.619   6.121
   58PMPE  H10R 2622   1.752   2.615   6.011
   58PMPE  C211 2623   1.744   2.738   6.208
   58PMPE  H11R 2624   1.809   2.725   6.297
   58PMPE  H11S 2625   1.640   2.745   6.246
   58PMPE  C212 2626   1.775   2.861   6.127
   58PMPE  H12R 2627   1.878   2.854   6.085
   58PMPE  H12S 2628   1.771   2.945   6.200
   58PMPE  C213 2629   1.668   2.879   6.018
   58PMPE  H13R 2630   1.619   2.977   6.030
   58PMPE  H13S 2631   1.587   2.805   6.036
   58PMPE  C214 2632   1.716   2.862   5.872
   58PMPE  H14R 2633   1.733   2.755   5.847
   58PMPE  H14S 2634   1.814   2.912   5.858
   58PMPE  C215 2635   1.612   2.924   5.777
   58PMPE  H15R 2636   1.604   3.032   5.802
   58PMPE  H15S 2637   1.512   2.880   5.799
   58PMPE  C216 2638   1.642   2.911   5.627
   58PMPE  H16R 2639   1.577   2.980   5.570
   58PMPE  H16S 2640   1.748   2.938   5.608
   58PMPE  H16T 2641   1.623   2.809   5.589
   58PMPE   C33 2642   1.905   2.793   6.660
   58PMPE   H3X 2643   1.974   2.799   6.572
   58PMPE   H3Y 2644   1.915   2.890   6.713
   58PMPE   C34 2645   1.766   2.767   6.598
   58PMPE   H4X 2646   1.773   2.666   6.552
   58PMPE   H4Y 2647   1.748   2.841   6.517
   58PMPE   C35 2648   1.644   2.766   6.691
   58PMPE   H5X 2649   1.616   2.871   6.713
   58PMPE   H5Y 2650   1.671   2.715   6.786
   58PMPE   C36 2651   1.522   2.687   6.640
   58PMPE   H6X 2652   1.443   2.679   6.717
   58PMPE   H6Y 2653   1.556   2.583   6.625
   58PMPE   C37 2654   1.463   2.734   6.508
   58PMPE   H7X 2655   1.544   2.745   6.433
   58PMPE   H7Y 2656   1.410   2.831   6.514
   58PMPE   C38 2657   1.365   2.632   6.455
   58PMPE   H8X 2658   1.261   2.652   6.489
   58PMPE   H8Y 2659   1.392   2.530   6.492
   58PMPE   C39 2660   1.364   2.644   6.305
   58PMPE   H9X 2661   1.466   2.625   6.260
   58PMPE   H9Y 2662   1.320   2.736   6.263
   58PMPE  C310 2663   1.280   2.542   6.246
   58PMPE  H10X 2664   1.173   2.518   6.263
   58PMPE  H10Y 2665   1.311   2.468   6.319
   58PMPE  C311 2666   1.327   2.540   6.101
   58PMPE  H11X 2667   1.229   2.505   6.079
   58PMPE  H11Y 2668   1.409   2.474   6.059
   58PMPE  C312 2669   1.307   2.653   6.009
   58PMPE  H12X 2670   1.379   2.727   6.046
   58PMPE  H12Y 2671   1.201   2.682   6.027
   58PMPE  C313 2672   1.339   2.616   5.865
   58PMPE  H13X 2673   1.321   2.511   5.830
   58PMPE  H13Y 2674   1.445   2.641   5.848
   58PMPE  C314 2675   1.252   2.699   5.778
   58PMPE  H14X 2676   1.248   2.804   5.814
   58PMPE  H14Y 2677   1.153   2.651   5.793
   58PMPE  C315 2678   1.295   2.693   5.633
   58PMPE  H15X 2679   1.280   2.596   5.583
   58PMPE  H15Y 2680   1.397   2.730   5.614
   58PMPE  C316 2681   1.205   2.781   5.560
   58PMPE  H16X 2682   1.105   2.734   5.561
   58PMPE  H16Y 2683   1.235   2.785   5.454
   58PMPE  H16Z 2684   1.204   2.881   5.609
   59PMPE     N 2685   3.914   0.679   7.394
   59PMPE   HN1 2686   3.902   0.580   7.365
   59PMPE   HN2 2687   3.971   0.732   7.325
   59PMPE   HN3 2688   3.964   0.688   7.485
   59PMPE   C12 2689   3.782   0.749   7.400
   59PMPE  H12A 2690   3.761   0.772   7.507
   59PMPE  H12B 2691   3.704   0.681   7.359
   59PMPE   C11 2692   3.787   0.876   7.313
   59PMPE  H11A 2693   3.691   0.931   7.323
   59PMPE  H11B 2694   3.797   0.844   7.207
   59PMPE     P 2695   3.895   1.098   7.420
   59PMPE   O13 2696   4.033   1.131   7.461
   59PMPE   O14 2697   3.793   1.089   7.526
   59PMPE   O11 2698   3.849   1.198   7.303
   59PMPE   O12 2699   3.900   0.957   7.345
   59PMPE    C1 2700   3.944   1.207   7.195
   59PMPE    HA 2701   3.947   1.109   7.140
   59PMPE    HB 2702   4.044   1.236   7.232
   59PMPE    C2 2703   3.919   1.313   7.086
   59PMPE    HS 2704   3.892   1.411   7.135
   59PMPE   O21 2705   3.815   1.254   7.007
   59PMPE   C21 2706   3.789   1.323   6.909
   59PMPE   O22 2707   3.838   1.438   6.895
   59PMPE   C22 2708   3.660   1.241   6.836
   59PMPE   H2R 2709   3.593   1.284   6.762
   59PMPE   H2S 2710   3.552   1.269   6.839
   59PMPE    C3 2711   4.045   1.333   6.998
   59PMPE    HX 2712   4.129   1.367   7.059
   59PMPE    HY 2713   4.039   1.415   6.922
   59PMPE   O31 2714   4.062   1.206   6.932
   59PMPE   C31 2715   4.137   1.214   6.826
   59PMPE   O32 2716   4.190   1.314   6.782
   59PMPE   C32 2717   4.170   1.073   6.781
   59PMPE   H2X 2718   4.091   1.004   6.817
   59PMPE   H2Y 2719   4.265   1.051   6.835
   59PMPE   C23 2720   3.696   1.113   6.795
   59PMPE   H3R 2721   3.685   1.077   6.899
   59PMPE   H3S 2722   3.799   1.126   6.760
   59PMPE   C24 2723   3.615   1.062   6.680
   59PMPE   H4R 2724   3.606   0.954   6.706
   59PMPE   H4S 2725   3.657   1.081   6.581
   59PMPE   C25 2726   3.478   1.118   6.666
   59PMPE   H5R 2727   3.453   1.222   6.656
   59PMPE   H5S 2728   3.462   1.092   6.768
   59PMPE   C26 2729   3.395   1.043   6.576
   59PMPE   H6R 2730   3.304   1.041   6.634
   59PMPE   H6S 2731   3.431   0.941   6.589
   59PMPE   C27 2732   3.408   1.100   6.436
   59PMPE   H7R 2733   3.512   1.085   6.406
   59PMPE   H7S 2734   3.372   1.204   6.426
   59PMPE   C28 2735   3.352   1.040   6.315
   59PMPE   H8R 2736   3.240   1.037   6.316
   59PMPE   H8S 2737   3.384   0.937   6.295
   59PMPE   C29 2738   3.393   1.124   6.209
   59PMPE   H9R 2739   3.328   1.213   6.196
   59PMPE  C217 2740   3.317   1.058   6.106
   59PMPE  H17R 2741   3.299   1.097   6.009
   59PMPE  H17S 2742   3.250   0.983   6.144
   59PMPE  C210 2743   3.472   1.037   6.115
   59PMPE  H10R 2744   3.494   1.064   6.013
   59PMPE  C211 2745   3.560   0.910   6.168
   59PMPE  H11R 2746   3.513   0.834   6.229
   59PMPE  H11S 2747   3.622   0.924   6.258
   59PMPE  C212 2748   3.611   0.811   6.065
   59PMPE  H12R 2749   3.676   0.873   6.002
   59PMPE  H12S 2750   3.543   0.766   5.990
   59PMPE  C213 2751   3.656   0.676   6.123
   59PMPE  H13R 2752   3.578   0.619   6.180
   59PMPE  H13S 2753   3.739   0.695   6.192
   59PMPE  C214 2754   3.691   0.589   6.006
   59PMPE  H14R 2755   3.602   0.583   5.939
   59PMPE  H14S 2756   3.722   0.490   6.043
   59PMPE  C215 2757   3.810   0.644   5.931
   59PMPE  H15R 2758   3.901   0.613   5.986
   59PMPE  H15S 2759   3.809   0.754   5.938
   59PMPE  C216 2760   3.815   0.606   5.784
   59PMPE  H16R 2761   3.896   0.661   5.733
   59PMPE  H16S 2762   3.831   0.497   5.773
   59PMPE  H16T 2763   3.717   0.632   5.737
   59PMPE   C33 2764   4.191   1.061   6.629
   59PMPE   H3X 2765   4.282   0.999   6.614
   59PMPE   H3Y 2766   4.212   1.161   6.583
   59PMPE   C34 2767   4.077   0.990   6.555
   59PMPE   H4X 2768   3.978   1.021   6.592
   59PMPE   H4Y 2769   4.091   0.881   6.573
   59PMPE   C35 2770   4.081   1.015   6.405
   59PMPE   H5X 2771   4.071   1.124   6.380
   59PMPE   H5Y 2772   4.001   0.960   6.351
   59PMPE   C36 2773   4.212   0.971   6.349
   59PMPE   H6X 2774   4.237   0.864   6.365
   59PMPE   H6Y 2775   4.297   1.033   6.390
   59PMPE   C37 2776   4.212   1.001   6.203
   59PMPE   H7X 2777   4.306   0.950   6.190
   59PMPE   H7Y 2778   4.219   1.111   6.188
   59PMPE   C38 2779   4.122   0.934   6.097
   59PMPE   H8X 2780   4.026   0.982   6.120
   59PMPE   H8Y 2781   4.125   0.824   6.116
   59PMPE   C39 2782   4.150   0.962   5.945
   59PMPE   H9X 2783   4.241   0.909   5.906
   59PMPE   H9Y 2784   4.169   1.072   5.933
   59PMPE  C310 2785   4.041   0.929   5.848
   59PMPE  H10X 2786   3.944   0.941   5.900
   59PMPE  H10Y 2787   4.057   0.824   5.816
   59PMPE  C311 2788   4.047   1.019   5.726
   59PMPE  H11X 2789   4.150   1.050   5.696
   59PMPE  H11Y 2790   3.992   1.112   5.750
   59PMPE  C312 2791   3.982   0.945   5.610
   59PMPE  H12X 2792   3.878   0.918   5.641
   59PMPE  H12Y 2793   4.038   0.851   5.590
   59PMPE  C313 2794   3.980   1.033   5.488
   59PMPE  H13X 2795   3.929   0.978   5.404
   59PMPE  H13Y 2796   4.084   1.053   5.457
   59PMPE  C314 2797   3.925   1.175   5.517
   59PMPE  H14X 2798   3.967   1.225   5.603
   59PMPE  H14Y 2799   3.815   1.157   5.532
   59PMPE  C315 2800   3.960   1.293   5.425
   59PMPE  H15X 2801   4.053   1.290   5.360
   59PMPE  H15Y 2802   3.904   1.390   5.428
   59PMPE  C316 2803   3.871   1.254   5.334
   59PMPE  H16X 2804   3.768   1.229   5.365
   59PMPE  H16Y 2805   3.912   1.153   5.311
   59PMPE  H16Z 2806   3.872   1.318   5.242
   60PMPE     N 2807   2.552   1.313   7.135
   60PMPE   HN1 2808   2.462   1.342   7.090
   60PMPE   HN2 2809   2.620   1.392   7.123
   60PMPE   HN3 2810   2.591   1.227   7.093
   60PMPE   C12 2811   2.531   1.291   7.282
   60PMPE  H12A 2812   2.629   1.265   7.328
   60PMPE  H12B 2813   2.459   1.208   7.293
   60PMPE   C11 2814   2.476   1.416   7.349
   60PMPE  H11A 2815   2.435   1.383   7.449
   60PMPE  H11B 2816   2.392   1.463   7.293
   60PMPE     P 2817   2.569   1.608   7.488
   60PMPE   O13 2818   2.656   1.562   7.599
   60PMPE   O14 2819   2.424   1.627   7.515
   60PMPE   O11 2820   2.623   1.749   7.439
   60PMPE   O12 2821   2.583   1.509   7.363
   60PMPE    C1 2822   2.707   1.758   7.324
   60PMPE    HA 2823   2.757   1.662   7.297
   60PMPE    HB 2824   2.792   1.824   7.349
   60PMPE    C2 2825   2.628   1.818   7.206
   60PMPE    HS 2826   2.577   1.910   7.242
   60PMPE   O21 2827   2.529   1.723   7.163
   60PMPE   C21 2828   2.440   1.771   7.078
   60PMPE   O22 2829   2.438   1.884   7.032
   60PMPE   C22 2830   2.331   1.669   7.067
   60PMPE   H2R 2831   2.277   1.666   7.165
   60PMPE   H2S 2832   2.367   1.567   7.045
   60PMPE    C3 2833   2.721   1.856   7.090
   60PMPE    HX 2834   2.811   1.909   7.129
   60PMPE    HY 2835   2.668   1.927   7.022
   60PMPE   O31 2836   2.759   1.734   7.024
   60PMPE   C31 2837   2.841   1.757   6.923
   60PMPE   O32 2838   2.886   1.866   6.892
   60PMPE   C32 2839   2.857   1.627   6.845
   60PMPE   H2X 2840   2.924   1.561   6.904
   60PMPE   H2Y 2841   2.908   1.653   6.750
   60PMPE   C23 2842   2.226   1.710   6.966
   60PMPE   H3R 2843   2.168   1.800   6.996
   60PMPE   H3S 2844   2.170   1.622   6.992
   60PMPE   C24 2845   2.250   1.700   6.813
   60PMPE   H4R 2846   2.334   1.768   6.795
   60PMPE   H4S 2847   2.157   1.737   6.761
   60PMPE   C25 2848   2.281   1.566   6.751
   60PMPE   H5R 2849   2.200   1.507   6.792
   60PMPE   H5S 2850   2.377   1.527   6.789
   60PMPE   C26 2851   2.275   1.561   6.596
   60PMPE   H6R 2852   2.177   1.597   6.560
   60PMPE   H6S 2853   2.285   1.455   6.563
   60PMPE   C27 2854   2.386   1.644   6.531
   60PMPE   H7R 2855   2.483   1.598   6.559
   60PMPE   H7S 2856   2.386   1.743   6.579
   60PMPE   C28 2857   2.379   1.662   6.378
   60PMPE   H8R 2858   2.359   1.568   6.324
   60PMPE   H8S 2859   2.481   1.695   6.348
   60PMPE   C29 2860   2.281   1.774   6.337
   60PMPE   H9R 2861   2.289   1.865   6.390
   60PMPE  C217 2862   2.132   1.747   6.328
   60PMPE  H17R 2863   2.067   1.830   6.352
   60PMPE  H17S 2864   2.114   1.645   6.356
   60PMPE  C210 2865   2.216   1.777   6.204
   60PMPE  H10R 2866   2.205   1.877   6.159
   60PMPE  C211 2867   2.233   1.657   6.115
   60PMPE  H11R 2868   2.201   1.577   6.183
   60PMPE  H11S 2869   2.337   1.631   6.092
   60PMPE  C212 2870   2.152   1.679   5.985
   60PMPE  H12R 2871   2.185   1.764   5.925
   60PMPE  H12S 2872   2.047   1.708   6.013
   60PMPE  C213 2873   2.140   1.561   5.886
   60PMPE  H13R 2874   2.049   1.581   5.826
   60PMPE  H13S 2875   2.131   1.466   5.934
   60PMPE  C214 2876   2.251   1.481   5.824
   60PMPE  H14R 2877   2.209   1.386   5.780
   60PMPE  H14S 2878   2.321   1.450   5.905
   60PMPE  C215 2879   2.306   1.569   5.719
   60PMPE  H15R 2880   2.379   1.507   5.666
   60PMPE  H15S 2881   2.359   1.649   5.775
   60PMPE  C216 2882   2.201   1.632   5.627
   60PMPE  H16R 2883   2.252   1.688   5.547
   60PMPE  H16S 2884   2.133   1.557   5.581
   60PMPE  H16T 2885   2.138   1.704   5.683
   60PMPE   C33 2886   2.721   1.557   6.817
   60PMPE   H3X 2887   2.649   1.627   6.769
   60PMPE   H3Y 2888   2.674   1.523   6.912
   60PMPE   C34 2889   2.734   1.435   6.726
   60PMPE   H4X 2890   2.637   1.381   6.728
   60PMPE   H4Y 2891   2.811   1.366   6.766
   60PMPE   C35 2892   2.765   1.478   6.581
   60PMPE   H5X 2893   2.875   1.493   6.571
   60PMPE   H5Y 2894   2.716   1.576   6.564
   60PMPE   C36 2895   2.711   1.383   6.472
   60PMPE   H6X 2896   2.600   1.388   6.472
   60PMPE   H6Y 2897   2.740   1.279   6.496
   60PMPE   C37 2898   2.755   1.419   6.329
   60PMPE   H7X 2899   2.864   1.398   6.316
   60PMPE   H7Y 2900   2.739   1.528   6.311
   60PMPE   C38 2901   2.677   1.339   6.224
   60PMPE   H8X 2902   2.568   1.338   6.250
   60PMPE   H8Y 2903   2.713   1.233   6.223
   60PMPE   C39 2904   2.690   1.396   6.083
   60PMPE   H9X 2905   2.788   1.362   6.043
   60PMPE   H9Y 2906   2.690   1.507   6.082
   60PMPE  C310 2907   2.576   1.350   5.993
   60PMPE  H10X 2908   2.477   1.383   6.029
   60PMPE  H10Y 2909   2.576   1.239   5.987
   60PMPE  C311 2910   2.589   1.415   5.857
   60PMPE  H11X 2911   2.592   1.525   5.850
   60PMPE  H11Y 2912   2.506   1.374   5.795
   60PMPE  C312 2913   2.716   1.385   5.790
   60PMPE  H12X 2914   2.737   1.287   5.838
   60PMPE  H12Y 2915   2.812   1.436   5.818
   60PMPE  C313 2916   2.679   1.407   5.640
   60PMPE  H13X 2917   2.768   1.404   5.576
   60PMPE  H13Y 2918   2.662   1.510   5.621
   60PMPE  C314 2919   2.559   1.338   5.569
   60PMPE  H14X 2920   2.484   1.273   5.622
   60PMPE  H14Y 2921   2.534   1.230   5.553
   60PMPE  C315 2922   2.558   1.387   5.430
   60PMPE  H15X 2923   2.611   1.335   5.352
   60PMPE  H15Y 2924   2.627   1.447   5.370
   60PMPE  C316 2925   2.415   1.410   5.436
   60PMPE  H16X 2926   2.351   1.349   5.376
   60PMPE  H16Y 2927   2.422   1.519   5.428
   60PMPE  H16Z 2928   2.364   1.375   5.528
   61PMPE     N 2929   1.004   3.472   7.254
   61PMPE   HN1 2930   1.034   3.559   7.302
   61PMPE   HN2 2931   1.049   3.470   7.160
   61PMPE   HN3 2932   0.900   3.465   7.246
   61PMPE   C12 2933   1.067   3.362   7.336
   61PMPE  H12A 2934   1.047   3.265   7.287
   61PMPE  H12B 2935   1.021   3.365   7.437
   61PMPE   C11 2936   1.219   3.382   7.350
   61PMPE  H11A 2937   1.271   3.337   7.263
   61PMPE  H11B 2938   1.250   3.325   7.441
   61PMPE     P 2939   1.372   3.560   7.454
   61PMPE   O13 2940   1.344   3.501   7.586
   61PMPE   O14 2941   1.379   3.706   7.446
   61PMPE   O11 2942   1.500   3.490   7.392
   61PMPE   O12 2943   1.253   3.520   7.356
   61PMPE    C1 2944   1.625   3.559   7.381
   61PMPE    HA 2945   1.705   3.494   7.424
   61PMPE    HB 2946   1.628   3.654   7.439
   61PMPE    C2 2947   1.666   3.585   7.232
   61PMPE    HS 2948   1.760   3.644   7.234
   61PMPE   O21 2949   1.567   3.655   7.156
   61PMPE   C21 2950   1.552   3.782   7.184
   61PMPE   O22 2951   1.615   3.847   7.264
   61PMPE   C22 2952   1.428   3.838   7.113
   61PMPE   H2R 2953   1.457   3.935   7.069
   61PMPE   H2S 2954   1.360   3.858   7.198
   61PMPE    C3 2955   1.694   3.452   7.157
   61PMPE    HX 2956   1.769   3.390   7.209
   61PMPE    HY 2957   1.738   3.486   7.060
   61PMPE   O31 2958   1.572   3.376   7.143
   61PMPE   C31 2959   1.533   3.354   7.019
   61PMPE   O32 2960   1.604   3.355   6.921
   61PMPE   C32 2961   1.381   3.327   7.020
   61PMPE   H2X 2962   1.333   3.417   7.065
   61PMPE   H2Y 2963   1.359   3.239   7.082
   61PMPE   C23 2964   1.352   3.745   7.014
   61PMPE   H3R 2965   1.258   3.795   6.980
   61PMPE   H3S 2966   1.319   3.655   7.070
   61PMPE   C24 2967   1.432   3.702   6.889
   61PMPE   H4R 2968   1.372   3.622   6.841
   61PMPE   H4S 2969   1.531   3.660   6.918
   61PMPE   C25 2970   1.458   3.809   6.782
   61PMPE   H5R 2971   1.511   3.899   6.821
   61PMPE   H5S 2972   1.360   3.838   6.744
   61PMPE   C26 2973   1.538   3.763   6.662
   61PMPE   H6R 2974   1.642   3.779   6.693
   61PMPE   H6S 2975   1.517   3.831   6.576
   61PMPE   C27 2976   1.527   3.618   6.621
   61PMPE   H7R 2977   1.421   3.587   6.608
   61PMPE   H7S 2978   1.573   3.551   6.696
   61PMPE   C28 2979   1.598   3.596   6.488
   61PMPE   H8R 2980   1.707   3.615   6.502
   61PMPE   H8S 2981   1.560   3.671   6.415
   61PMPE   C29 2982   1.564   3.455   6.440
   61PMPE   H9R 2983   1.458   3.429   6.430
   61PMPE  C217 2984   1.661   3.342   6.472
   61PMPE  H17R 2985   1.615   3.245   6.483
   61PMPE  H17S 2986   1.753   3.374   6.519
   61PMPE  C210 2987   1.644   3.394   6.329
   61PMPE  H10R 2988   1.586   3.327   6.264
   61PMPE  C211 2989   1.762   3.470   6.272
   61PMPE  H11R 2990   1.822   3.396   6.215
   61PMPE  H11S 2991   1.827   3.507   6.354
   61PMPE  C212 2992   1.720   3.589   6.184
   61PMPE  H12R 2993   1.812   3.645   6.158
   61PMPE  H12S 2994   1.654   3.661   6.234
   61PMPE  C213 2995   1.648   3.548   6.056
   61PMPE  H13R 2996   1.549   3.501   6.075
   61PMPE  H13S 2997   1.709   3.465   6.014
   61PMPE  C214 2998   1.625   3.671   5.966
   61PMPE  H14R 2999   1.723   3.709   5.930
   61PMPE  H14S 3000   1.584   3.756   6.020
   61PMPE  C215 3001   1.533   3.647   5.848
   61PMPE  H15R 3002   1.534   3.737   5.780
   61PMPE  H15S 3003   1.432   3.606   5.862
   61PMPE  C216 3004   1.597   3.550   5.766
   61PMPE  H16R 3005   1.615   3.443   5.792
   61PMPE  H16S 3006   1.559   3.572   5.665
   61PMPE  H16T 3007   1.694   3.594   5.765
   61PMPE   C33 3008   1.333   3.297   6.876
   61PMPE   H3X 3009   1.383   3.202   6.846
   61PMPE   H3Y 3010   1.367   3.378   6.807
   61PMPE   C34 3011   1.181   3.283   6.859
   61PMPE   H4X 3012   1.134   3.370   6.910
   61PMPE   H4Y 3013   1.146   3.189   6.907
   61PMPE   C35 3014   1.139   3.281   6.710
   61PMPE   H5X 3015   1.038   3.234   6.704
   61PMPE   H5Y 3016   1.209   3.217   6.653
   61PMPE   C36 3017   1.134   3.422   6.647
   61PMPE   H6X 3018   1.229   3.477   6.659
   61PMPE   H6Y 3019   1.056   3.478   6.703
   61PMPE   C37 3020   1.095   3.429   6.499
   61PMPE   H7X 3021   0.991   3.397   6.512
   61PMPE   H7Y 3022   1.137   3.353   6.430
   61PMPE   C38 3023   1.106   3.572   6.442
   61PMPE   H8X 3024   1.101   3.647   6.523
   61PMPE   H8Y 3025   1.026   3.594   6.372
   61PMPE   C39 3026   1.217   3.599   6.340
   61PMPE   H9X 3027   1.189   3.550   6.243
   61PMPE   H9Y 3028   1.305   3.547   6.380
   61PMPE  C310 3029   1.247   3.748   6.314
   61PMPE  H10X 3030   1.275   3.797   6.409
   61PMPE  H10Y 3031   1.157   3.801   6.275
   61PMPE  C311 3032   1.357   3.765   6.208
   61PMPE  H11X 3033   1.320   3.719   6.114
   61PMPE  H11Y 3034   1.445   3.706   6.239
   61PMPE  C312 3035   1.398   3.910   6.176
   61PMPE  H12X 3036   1.510   3.915   6.174
   61PMPE  H12Y 3037   1.369   3.977   6.259
   61PMPE  C313 3038   1.345   3.965   6.041
   61PMPE  H13X 3039   1.378   3.903   5.955
   61PMPE  H13Y 3040   1.391   4.066   6.028
   61PMPE  C314 3041   1.192   3.976   6.027
   61PMPE  H14X 3042   1.160   4.061   6.088
   61PMPE  H14Y 3043   1.139   3.889   6.068
   61PMPE  C315 3044   1.143   3.997   5.882
   61PMPE  H15X 3045   1.031   4.005   5.883
   61PMPE  H15Y 3046   1.169   3.907   5.824
   61PMPE  C316 3047   1.201   4.118   5.811
   61PMPE  H16X 3048   1.310   4.125   5.809
   61PMPE  H16Y 3049   1.183   4.206   5.871
   61PMPE  H16Z 3050   1.155   4.128   5.710
   62PMPE     N 3051   3.823   7.755   7.453
   62PMPE   HN1 3052   3.903   7.782   7.513
   62PMPE   HN2 3053   3.767   7.837   7.423
   62PMPE   HN3 3054   3.766   7.687   7.506
   62PMPE   C12 3055   3.867   7.689   7.325
   62PMPE  H12A 3056   3.927   7.764   7.268
   62PMPE  H12B 3057   3.775   7.665   7.269
   62PMPE   C11 3058   3.944   7.561   7.355
   62PMPE  H11A 3059   3.970   7.510   7.259
   62PMPE  H11B 3060   3.879   7.490   7.412
   62PMPE     P 3061   4.193   7.511   7.412
   62PMPE   O13 3062   4.161   7.369   7.427
   62PMPE   O14 3063   4.290   7.577   7.501
   62PMPE   O11 3064   4.223   7.541   7.260
   62PMPE   O12 3065   4.058   7.594   7.433
   62PMPE    C1 3066   4.221   7.668   7.198
   62PMPE    HA 3067   4.323   7.712   7.208
   62PMPE    HB 3068   4.148   7.735   7.248
   62PMPE    C2 3069   4.182   7.660   7.047
   62PMPE    HS 3070   4.186   7.764   7.008
   62PMPE   O21 3071   4.050   7.602   7.033
   62PMPE   C21 3072   3.970   7.657   6.943
   62PMPE   O22 3073   3.991   7.760   6.881
   62PMPE   C22 3074   3.840   7.577   6.939
   62PMPE   H2R 3075   3.767   7.627   7.006
   62PMPE   H2S 3076   3.859   7.475   6.977
   62PMPE    C3 3077   4.287   7.578   6.965
   62PMPE    HX 3078   4.318   7.488   7.023
   62PMPE    HY 3079   4.377   7.643   6.957
   62PMPE   O31 3080   4.238   7.532   6.837
   62PMPE   C31 3081   4.240   7.617   6.736
   62PMPE   O32 3082   4.283   7.732   6.739
   62PMPE   C32 3083   4.186   7.549   6.611
   62PMPE   H2X 3084   4.081   7.517   6.627
   62PMPE   H2Y 3085   4.249   7.459   6.591
   62PMPE   C23 3086   3.776   7.562   6.800
   62PMPE   H3R 3087   3.693   7.488   6.812
   62PMPE   H3S 3088   3.844   7.521   6.722
   62PMPE   C24 3089   3.708   7.687   6.747
   62PMPE   H4R 3090   3.780   7.769   6.727
   62PMPE   H4S 3091   3.639   7.720   6.828
   62PMPE   C25 3092   3.628   7.647   6.621
   62PMPE   H5R 3093   3.544   7.717   6.601
   62PMPE   H5S 3094   3.579   7.550   6.638
   62PMPE   C26 3095   3.718   7.649   6.496
   62PMPE   H6R 3096   3.798   7.573   6.501
   62PMPE   H6S 3097   3.774   7.745   6.497
   62PMPE   C27 3098   3.631   7.640   6.369
   62PMPE   H7R 3099   3.583   7.737   6.350
   62PMPE   H7S 3100   3.543   7.576   6.388
   62PMPE   C28 3101   3.702   7.591   6.241
   62PMPE   H8R 3102   3.804   7.633   6.231
   62PMPE   H8S 3103   3.643   7.624   6.152
   62PMPE   C29 3104   3.695   7.440   6.242
   62PMPE   H9R 3105   3.595   7.397   6.260
   62PMPE  C217 3106   3.812   7.360   6.297
   62PMPE  H17R 3107   3.788   7.264   6.342
   62PMPE  H17S 3108   3.890   7.425   6.331
   62PMPE  C210 3109   3.781   7.360   6.148
   62PMPE  H10R 3110   3.724   7.278   6.102
   62PMPE  C211 3111   3.891   7.422   6.065
   62PMPE  H11R 3112   3.956   7.485   6.129
   62PMPE  H11S 3113   3.846   7.485   5.985
   62PMPE  C212 3114   3.968   7.308   5.998
   62PMPE  H12R 3115   3.900   7.265   5.921
   62PMPE  H12S 3116   3.993   7.229   6.072
   62PMPE  C213 3117   4.098   7.348   5.930
   62PMPE  H13R 3118   4.145   7.260   5.880
   62PMPE  H13S 3119   4.170   7.395   5.999
   62PMPE  C214 3120   4.076   7.453   5.829
   62PMPE  H14R 3121   4.048   7.548   5.879
   62PMPE  H14S 3122   3.987   7.426   5.767
   62PMPE  C215 3123   4.198   7.462   5.736
   62PMPE  H15R 3124   4.294   7.440   5.783
   62PMPE  H15S 3125   4.224   7.570   5.719
   62PMPE  C216 3126   4.162   7.380   5.607
   62PMPE  H16R 3127   4.159   7.273   5.623
   62PMPE  H16S 3128   4.076   7.410   5.547
   62PMPE  H16T 3129   4.218   7.393   5.518
   62PMPE   C33 3130   4.200   7.643   6.490
   62PMPE   H3X 3131   4.309   7.662   6.480
   62PMPE   H3Y 3132   4.148   7.740   6.509
   62PMPE   C34 3133   4.145   7.580   6.362
   62PMPE   H4X 3134   4.033   7.583   6.366
   62PMPE   H4Y 3135   4.179   7.475   6.356
   62PMPE   C35 3136   4.191   7.646   6.233
   62PMPE   H5X 3137   4.140   7.597   6.147
   62PMPE   H5Y 3138   4.300   7.640   6.221
   62PMPE   C36 3139   4.157   7.790   6.226
   62PMPE   H6X 3140   4.229   7.838   6.155
   62PMPE   H6Y 3141   4.176   7.848   6.320
   62PMPE   C37 3142   4.010   7.805   6.184
   62PMPE   H7X 3143   4.046   7.905   6.170
   62PMPE   H7Y 3144   3.932   7.803   6.261
   62PMPE   C38 3145   3.946   7.768   6.049
   62PMPE   H8X 3146   3.938   7.661   6.048
   62PMPE   H8Y 3147   4.026   7.792   5.978
   62PMPE   C39 3148   3.804   7.829   6.015
   62PMPE   H9X 3149   3.804   7.939   6.030
   62PMPE   H9Y 3150   3.722   7.788   6.075
   62PMPE  C310 3151   3.749   7.813   5.872
   62PMPE  H10X 3152   3.820   7.809   5.793
   62PMPE  H10Y 3153   3.705   7.908   5.837
   62PMPE  C311 3154   3.721   7.676   5.822
   62PMPE  H11X 3155   3.653   7.632   5.895
   62PMPE  H11Y 3156   3.817   7.616   5.826
   62PMPE  C312 3157   3.651   7.674   5.687
   62PMPE  H12X 3158   3.549   7.695   5.694
   62PMPE  H12Y 3159   3.659   7.569   5.652
   62PMPE  C313 3160   3.673   7.774   5.575
   62PMPE  H13X 3161   3.692   7.885   5.580
   62PMPE  H13Y 3162   3.612   7.734   5.490
   62PMPE  C314 3163   3.796   7.738   5.553
   62PMPE  H14X 3164   3.792   7.623   5.550
   62PMPE  H14Y 3165   3.868   7.798   5.617
   62PMPE  C315 3166   3.842   7.770   5.436
   62PMPE  H15X 3167   3.894   7.672   5.429
   62PMPE  H15Y 3168   3.926   7.843   5.453
   62PMPE  C316 3169   3.745   7.798   5.327
   62PMPE  H16X 3170   3.698   7.892   5.305
   62PMPE  H16Y 3171   3.696   7.717   5.277
   62PMPE  H16Z 3172   3.828   7.814   5.269
   63PMPE     N 3173   5.375   1.049   7.631
   63PMPE   HN1 3174   5.373   1.030   7.734
   63PMPE   HN2 3175   5.411   1.146   7.618
   63PMPE   HN3 3176   5.278   1.047   7.593
   63PMPE   C12 3177   5.459   0.944   7.559
   63PMPE  H12A 3178   5.420   0.848   7.597
   63PMPE  H12B 3179   5.564   0.954   7.592
   63PMPE   C11 3180   5.451   0.950   7.405
   63PMPE  H11A 3181   5.351   0.911   7.371
   63PMPE  H11B 3182   5.527   0.881   7.360
   63PMPE     P 3183   5.591   1.172   7.324
   63PMPE   O13 3184   5.706   1.113   7.396
   63PMPE   O14 3185   5.554   1.310   7.357
   63PMPE   O11 3186   5.613   1.156   7.171
   63PMPE   O12 3187   5.463   1.082   7.356
   63PMPE    C1 3188   5.497   1.143   7.095
   63PMPE    HA 3189   5.500   1.216   7.011
   63PMPE    HB 3190   5.399   1.162   7.146
   63PMPE    C2 3191   5.498   1.003   7.040
   63PMPE    HS 3192   5.479   0.924   7.118
   63PMPE   O21 3193   5.605   0.971   6.955
   63PMPE   C21 3194   5.694   0.904   7.006
   63PMPE   O22 3195   5.698   0.854   7.117
   63PMPE   C22 3196   5.795   0.895   6.897
   63PMPE   H2R 3197   5.769   0.825   6.816
   63PMPE   H2S 3198   5.885   0.853   6.941
   63PMPE    C3 3199   5.387   1.002   6.959
   63PMPE    HX 3200   5.300   1.016   7.033
   63PMPE    HY 3201   5.394   0.898   6.928
   63PMPE   O31 3202   5.427   1.092   6.846
   63PMPE   C31 3203   5.320   1.144   6.807
   63PMPE   O32 3204   5.219   1.124   6.872
   63PMPE   C32 3205   5.326   1.196   6.654
   63PMPE   H2X 3206   5.345   1.300   6.670
   63PMPE   H2Y 3207   5.228   1.215   6.601
   63PMPE   C23 3208   5.820   1.034   6.839
   63PMPE   H3R 3209   5.850   1.108   6.917
   63PMPE   H3S 3210   5.737   1.095   6.800
   63PMPE   C24 3211   5.931   1.014   6.740
   63PMPE   H4R 3212   6.022   0.955   6.764
   63PMPE   H4S 3213   5.953   1.117   6.760
   63PMPE   C25 3214   5.899   1.031   6.594
   63PMPE   H5R 3215   5.834   1.123   6.590
   63PMPE   H5S 3216   5.852   0.940   6.557
   63PMPE   C26 3217   6.018   1.061   6.508
   63PMPE   H6R 3218   6.114   1.009   6.530
   63PMPE   H6S 3219   6.019   1.169   6.538
   63PMPE   C27 3220   5.993   1.076   6.361
   63PMPE   H7R 3221   5.942   0.986   6.326
   63PMPE   H7S 3222   6.094   1.075   6.311
   63PMPE   C28 3223   5.909   1.206   6.341
   63PMPE   H8R 3224   5.960   1.294   6.389
   63PMPE   H8S 3225   5.804   1.203   6.371
   63PMPE   C29 3226   5.913   1.242   6.199
   63PMPE   H9R 3227   6.008   1.201   6.173
   63PMPE  C217 3228   5.804   1.320   6.127
   63PMPE  H17R 3229   5.831   1.399   6.057
   63PMPE  H17S 3230   5.719   1.332   6.189
   63PMPE  C210 3231   5.840   1.179   6.086
   63PMPE  H10R 3232   5.912   1.148   6.013
   63PMPE  C211 3233   5.759   1.062   6.107
   63PMPE  H11R 3234   5.708   1.076   6.204
   63PMPE  H11S 3235   5.824   0.971   6.108
   63PMPE  C212 3236   5.666   1.061   5.987
   63PMPE  H12R 3237   5.606   1.154   5.986
   63PMPE  H12S 3238   5.619   0.963   6.004
   63PMPE  C213 3239   5.709   1.055   5.843
   63PMPE  H13R 3240   5.748   1.149   5.808
   63PMPE  H13S 3241   5.638   1.035   5.760
   63PMPE  C214 3242   5.813   0.961   5.826
   63PMPE  H14R 3243   5.772   0.856   5.838
   63PMPE  H14S 3244   5.891   0.973   5.903
   63PMPE  C215 3245   5.854   0.999   5.684
   63PMPE  H15R 3246   5.943   1.060   5.664
   63PMPE  H15S 3247   5.789   1.004   5.596
   63PMPE  C216 3248   5.903   0.882   5.651
   63PMPE  H16R 3249   5.918   0.821   5.735
   63PMPE  H16S 3250   5.839   0.799   5.631
   63PMPE  H16T 3251   6.008   0.906   5.625
   63PMPE   C33 3252   5.388   1.101   6.541
   63PMPE   H3X 3253   5.344   1.006   6.500
   63PMPE   H3Y 3254   5.479   1.062   6.583
   63PMPE   C34 3255   5.383   1.169   6.407
   63PMPE   H4X 3256   5.280   1.168   6.360
   63PMPE   H4Y 3257   5.449   1.110   6.340
   63PMPE   C35 3258   5.430   1.308   6.437
   63PMPE   H5X 3259   5.524   1.302   6.496
   63PMPE   H5Y 3260   5.355   1.370   6.492
   63PMPE   C36 3261   5.451   1.381   6.312
   63PMPE   H6X 3262   5.515   1.317   6.246
   63PMPE   H6Y 3263   5.503   1.476   6.335
   63PMPE   C37 3264   5.313   1.405   6.253
   63PMPE   H7X 3265   5.238   1.448   6.322
   63PMPE   H7Y 3266   5.280   1.311   6.208
   63PMPE   C38 3267   5.327   1.502   6.148
   63PMPE   H8X 3268   5.367   1.584   6.210
   63PMPE   H8Y 3269   5.242   1.558   6.103
   63PMPE   C39 3270   5.420   1.439   6.046
   63PMPE   H9X 3271   5.526   1.428   6.075
   63PMPE   H9Y 3272   5.402   1.530   5.993
   63PMPE  C310 3273   5.379   1.320   5.958
   63PMPE  H10X 3274   5.277   1.352   5.927
   63PMPE  H10Y 3275   5.395   1.230   6.020
   63PMPE  C311 3276   5.433   1.291   5.819
   63PMPE  H11X 3277   5.542   1.309   5.810
   63PMPE  H11Y 3278   5.364   1.351   5.753
   63PMPE  C312 3279   5.397   1.181   5.743
   63PMPE  H12X 3280   5.288   1.179   5.768
   63PMPE  H12Y 3281   5.464   1.116   5.802
   63PMPE  C313 3282   5.408   1.171   5.591
   63PMPE  H13X 3283   5.340   1.253   5.557
   63PMPE  H13Y 3284   5.362   1.077   5.555
   63PMPE  C314 3285   5.540   1.154   5.517
   63PMPE  H14X 3286   5.570   1.049   5.522
   63PMPE  H14Y 3287   5.627   1.204   5.563
   63PMPE  C315 3288   5.515   1.215   5.379
   63PMPE  H15X 3289   5.436   1.290   5.398
   63PMPE  H15Y 3290   5.466   1.144   5.311
   63PMPE  C316 3291   5.635   1.286   5.314
   63PMPE  H16X 3292   5.656   1.386   5.352
   63PMPE  H16Y 3293   5.617   1.309   5.207
   63PMPE  H16Z 3294   5.729   1.236   5.337
   64PMPE     N 3295   3.343   7.551   7.598
   64PMPE   HN1 3296   3.346   7.512   7.694
   64PMPE   HN2 3297   3.374   7.479   7.529
   64PMPE   HN3 3298   3.403   7.634   7.590
   64PMPE   C12 3299   3.207   7.600   7.555
   64PMPE  H12A 3300   3.193   7.703   7.595
   64PMPE  H12B 3301   3.130   7.533   7.598
   64PMPE   C11 3302   3.201   7.606   7.402
   64PMPE  H11A 3303   3.273   7.682   7.366
   64PMPE  H11B 3304   3.101   7.640   7.366
   64PMPE     P 3305   3.136   7.362   7.323
   64PMPE   O13 3306   3.108   7.311   7.459
   64PMPE   O14 3307   3.194   7.275   7.220
   64PMPE   O11 3308   3.003   7.432   7.271
   64PMPE   O12 3309   3.239   7.481   7.347
   64PMPE    C1 3310   3.004   7.515   7.152
   64PMPE    HA 3311   3.092   7.492   7.087
   64PMPE    HB 3312   3.003   7.621   7.181
   64PMPE    C2 3313   2.883   7.495   7.059
   64PMPE    HS 3314   2.790   7.500   7.122
   64PMPE   O21 3315   2.896   7.372   7.008
   64PMPE   C21 3316   2.783   7.336   6.957
   64PMPE   O22 3317   2.670   7.373   6.979
   64PMPE   C22 3318   2.812   7.213   6.906
   64PMPE   H2R 3319   2.715   7.176   6.866
   64PMPE   H2S 3320   2.825   7.190   7.018
   64PMPE    C3 3321   2.873   7.584   6.933
   64PMPE    HX 3322   2.831   7.677   6.972
   64PMPE    HY 3323   2.801   7.543   6.857
   64PMPE   O31 3324   3.006   7.597   6.877
   64PMPE   C31 3325   3.042   7.529   6.767
   64PMPE   O32 3326   2.966   7.484   6.683
   64PMPE   C32 3327   3.197   7.517   6.768
   64PMPE   H2X 3328   3.228   7.510   6.875
   64PMPE   H2Y 3329   3.241   7.608   6.725
   64PMPE   C23 3330   2.924   7.162   6.817
   64PMPE   H3R 3331   2.975   7.068   6.854
   64PMPE   H3S 3332   3.003   7.237   6.811
   64PMPE   C24 3333   2.852   7.128   6.687
   64PMPE   H4R 3334   2.759   7.185   6.670
   64PMPE   H4S 3335   2.816   7.027   6.679
   64PMPE   C25 3336   2.945   7.105   6.574
   64PMPE   H5R 3337   3.012   7.019   6.601
   64PMPE   H5S 3338   2.999   7.201   6.566
   64PMPE   C26 3339   2.866   7.072   6.449
   64PMPE   H6R 3340   2.781   7.143   6.441
   64PMPE   H6S 3341   2.825   6.969   6.447
   64PMPE   C27 3342   2.962   7.087   6.334
   64PMPE   H7R 3343   3.014   6.994   6.329
   64PMPE   H7S 3344   3.038   7.165   6.352
   64PMPE   C28 3345   2.903   7.089   6.195
   64PMPE   H8R 3346   2.832   7.004   6.189
   64PMPE   H8S 3347   2.987   7.070   6.125
   64PMPE   C29 3348   2.842   7.226   6.178
   64PMPE   H9R 3349   2.892   7.311   6.227
   64PMPE  C217 3350   2.693   7.221   6.213
   64PMPE  H17R 3351   2.651   7.309   6.258
   64PMPE  H17S 3352   2.658   7.120   6.227
   64PMPE  C210 3353   2.738   7.253   6.073
   64PMPE  H10R 3354   2.726   7.358   6.044
   64PMPE  C211 3355   2.697   7.146   5.974
   64PMPE  H11R 3356   2.591   7.161   5.946
   64PMPE  H11S 3357   2.707   7.044   6.017
   64PMPE  C212 3358   2.787   7.158   5.852
   64PMPE  H12R 3359   2.782   7.066   5.791
   64PMPE  H12S 3360   2.892   7.168   5.889
   64PMPE  C213 3361   2.746   7.277   5.765
   64PMPE  H13R 3362   2.775   7.370   5.819
   64PMPE  H13S 3363   2.636   7.279   5.753
   64PMPE  C214 3364   2.809   7.263   5.626
   64PMPE  H14R 3365   2.765   7.181   5.568
   64PMPE  H14S 3366   2.915   7.234   5.645
   64PMPE  C215 3367   2.803   7.386   5.535
   64PMPE  H15R 3368   2.706   7.429   5.507
   64PMPE  H15S 3369   2.860   7.360   5.442
   64PMPE  C216 3370   2.872   7.497   5.603
   64PMPE  H16R 3371   2.845   7.544   5.698
   64PMPE  H16S 3372   2.956   7.432   5.633
   64PMPE  H16T 3373   2.890   7.578   5.530
   64PMPE   C33 3374   3.259   7.396   6.695
   64PMPE   H3X 3375   3.216   7.300   6.730
   64PMPE   H3Y 3376   3.369   7.396   6.719
   64PMPE   C34 3377   3.252   7.405   6.544
   64PMPE   H4X 3378   3.301   7.498   6.509
   64PMPE   H4Y 3379   3.146   7.407   6.511
   64PMPE   C35 3380   3.321   7.285   6.480
   64PMPE   H5X 3381   3.275   7.193   6.519
   64PMPE   H5Y 3382   3.429   7.283   6.505
   64PMPE   C36 3383   3.301   7.292   6.330
   64PMPE   H6X 3384   3.356   7.379   6.290
   64PMPE   H6Y 3385   3.192   7.302   6.309
   64PMPE   C37 3386   3.353   7.172   6.256
   64PMPE   H7X 3387   3.289   7.091   6.292
   64PMPE   H7Y 3388   3.456   7.144   6.285
   64PMPE   C38 3389   3.351   7.196   6.106
   64PMPE   H8X 3390   3.352   7.100   6.056
   64PMPE   H8Y 3391   3.447   7.244   6.080
   64PMPE   C39 3392   3.231   7.272   6.048
   64PMPE   H9X 3393   3.214   7.365   6.105
   64PMPE   H9Y 3394   3.141   7.208   6.052
   64PMPE  C310 3395   3.249   7.315   5.903
   64PMPE  H10X 3396   3.326   7.396   5.897
   64PMPE  H10Y 3397   3.153   7.352   5.861
   64PMPE  C311 3398   3.296   7.199   5.820
   64PMPE  H11X 3399   3.234   7.108   5.823
   64PMPE  H11Y 3400   3.396   7.174   5.860
   64PMPE  C312 3401   3.306   7.241   5.677
   64PMPE  H12X 3402   3.393   7.305   5.670
   64PMPE  H12Y 3403   3.231   7.314   5.657
   64PMPE  C313 3404   3.281   7.131   5.578
   64PMPE  H13X 3405   3.181   7.088   5.597
   64PMPE  H13Y 3406   3.360   7.053   5.568
   64PMPE  C314 3407   3.271   7.187   5.444
   64PMPE  H14X 3408   3.380   7.183   5.416
   64PMPE  H14Y 3409   3.247   7.294   5.436
   64PMPE  C315 3410   3.183   7.108   5.349
   64PMPE  H15X 3411   3.217   7.002   5.349
   64PMPE  H15Y 3412   3.186   7.150   5.246
   64PMPE  C316 3413   3.039   7.129   5.345
   64PMPE  H16X 3414   3.024   7.236   5.315
   64PMPE  H16Y 3415   3.009   7.104   5.447
   64PMPE  H16Z 3416   3.002   7.060   5.264
   65PMPE     N 3417   2.927   0.610   7.679
   65PMPE   HN1 3418   2.974   0.660   7.758
   65PMPE   HN2 3419   2.835   0.574   7.713
   65PMPE   HN3 3420   2.992   0.532   7.652
   65PMPE   C12 3421   2.906   0.691   7.553
   65PMPE  H12A 3422   2.817   0.755   7.569
   65PMPE  H12B 3423   2.882   0.618   7.472
   65PMPE   C11 3424   3.027   0.772   7.504
   65PMPE  H11A 3425   3.119   0.710   7.495
   65PMPE  H11B 3426   3.048   0.855   7.575
   65PMPE     P 3427   3.100   0.904   7.288
   65PMPE   O13 3428   3.169   0.806   7.202
   65PMPE   O14 3429   3.183   0.979   7.386
   65PMPE   O11 3430   3.007   0.997   7.199
   65PMPE   O12 3431   2.991   0.827   7.378
   65PMPE    C1 3432   2.867   1.008   7.215
   65PMPE    HA 3433   2.839   1.113   7.192
   65PMPE    HB 3434   2.837   0.988   7.320
   65PMPE    C2 3435   2.780   0.919   7.122
   65PMPE    HS 3436   2.674   0.942   7.148
   65PMPE   O21 3437   2.811   0.779   7.143
   65PMPE   C21 3438   2.716   0.697   7.101
   65PMPE   O22 3439   2.609   0.735   7.058
   65PMPE   C22 3440   2.752   0.551   7.128
   65PMPE   H2R 3441   2.720   0.527   7.231
   65PMPE   H2S 3442   2.862   0.540   7.120
   65PMPE    C3 3443   2.797   0.959   6.974
   65PMPE    HX 3444   2.741   1.055   6.964
   65PMPE    HY 3445   2.752   0.884   6.905
   65PMPE   O31 3446   2.934   0.976   6.937
   65PMPE   C31 3447   2.938   1.031   6.819
   65PMPE   O32 3448   2.846   1.090   6.765
   65PMPE   C32 3449   3.073   1.017   6.761
   65PMPE   H2X 3450   3.130   0.925   6.784
   65PMPE   H2Y 3451   3.121   1.094   6.818
   65PMPE   C23 3452   2.681   0.453   7.030
   65PMPE   H3R 3453   2.572   0.452   7.050
   65PMPE   H3S 3454   2.719   0.350   7.049
   65PMPE   C24 3455   2.708   0.486   6.881
   65PMPE   H4R 3456   2.669   0.587   6.855
   65PMPE   H4S 3457   2.647   0.415   6.820
   65PMPE   C25 3458   2.859   0.481   6.848
   65PMPE   H5R 3459   2.898   0.390   6.900
   65PMPE   H5S 3460   2.908   0.572   6.888
   65PMPE   C26 3461   2.909   0.481   6.702
   65PMPE   H6R 3462   2.872   0.388   6.672
   65PMPE   H6S 3463   3.015   0.463   6.681
   65PMPE   C27 3464   2.852   0.585   6.606
   65PMPE   H7R 3465   2.866   0.687   6.643
   65PMPE   H7S 3466   2.747   0.582   6.643
   65PMPE   C28 3467   2.880   0.563   6.442
   65PMPE   H8R 3468   2.971   0.603   6.409
   65PMPE   H8S 3469   2.801   0.637   6.415
   65PMPE   C29 3470   2.869   0.420   6.344
   65PMPE   H9R 3471   2.790   0.343   6.330
   65PMPE  C217 3472   2.958   0.323   6.388
   65PMPE  H17R 3473   2.920   0.226   6.421
   65PMPE  H17S 3474   3.006   0.389   6.457
   65PMPE  C210 3475   2.944   0.352   6.241
   65PMPE  H10R 3476   2.878   0.286   6.178
   65PMPE  C211 3477   2.997   0.466   6.172
   65PMPE  H11R 3478   3.058   0.414   6.098
   65PMPE  H11S 3479   3.054   0.522   6.247
   65PMPE  C212 3480   2.894   0.564   6.112
   65PMPE  H12R 3481   2.961   0.633   6.057
   65PMPE  H12S 3482   2.845   0.626   6.191
   65PMPE  C213 3483   2.791   0.504   6.016
   65PMPE  H13R 3484   2.721   0.581   5.978
   65PMPE  H13S 3485   2.730   0.427   6.070
   65PMPE  C214 3486   2.846   0.441   5.890
   65PMPE  H14R 3487   2.758   0.396   5.838
   65PMPE  H14S 3488   2.913   0.361   5.924
   65PMPE  C215 3489   2.918   0.536   5.792
   65PMPE  H15R 3490   3.000   0.587   5.846
   65PMPE  H15S 3491   2.844   0.612   5.756
   65PMPE  C216 3492   2.972   0.472   5.664
   65PMPE  H16R 3493   2.991   0.543   5.582
   65PMPE  H16S 3494   3.068   0.421   5.682
   65PMPE  H16T 3495   2.897   0.398   5.627
   65PMPE   C33 3496   3.065   1.064   6.616
   65PMPE   H3X 3497   3.155   1.105   6.572
   65PMPE   H3Y 3498   3.015   1.163   6.606
   65PMPE   C34 3499   3.021   0.953   6.524
   65PMPE   H4X 3500   3.053   0.985   6.422
   65PMPE   H4Y 3501   2.912   0.957   6.518
   65PMPE   C35 3502   3.074   0.809   6.558
   65PMPE   H5X 3503   3.035   0.754   6.472
   65PMPE   H5Y 3504   3.049   0.766   6.656
   65PMPE   C36 3505   3.220   0.770   6.555
   65PMPE   H6X 3506   3.254   0.666   6.544
   65PMPE   H6Y 3507   3.279   0.820   6.637
   65PMPE   C37 3508   3.262   0.818   6.425
   65PMPE   H7X 3509   3.370   0.822   6.445
   65PMPE   H7Y 3510   3.232   0.921   6.455
   65PMPE   C38 3511   3.218   0.763   6.277
   65PMPE   H8X 3512   3.125   0.816   6.250
   65PMPE   H8Y 3513   3.198   0.658   6.304
   65PMPE   C39 3514   3.302   0.724   6.141
   65PMPE   H9X 3515   3.267   0.637   6.085
   65PMPE   H9Y 3516   3.401   0.690   6.172
   65PMPE  C310 3517   3.315   0.807   6.004
   65PMPE  H10X 3518   3.399   0.866   5.957
   65PMPE  H10Y 3519   3.359   0.850   6.088
   65PMPE  C311 3520   3.199   0.876   5.929
   65PMPE  H11X 3521   3.165   0.788   5.872
   65PMPE  H11Y 3522   3.250   0.947   5.857
   65PMPE  C312 3523   3.080   0.952   5.999
   65PMPE  H12X 3524   3.070   0.973   6.106
   65PMPE  H12Y 3525   3.000   0.878   5.998
   65PMPE  C313 3526   3.057   1.094   5.945
   65PMPE  H13X 3527   3.140   1.169   5.945
   65PMPE  H13Y 3528   2.976   1.148   6.000
   65PMPE  C314 3529   3.027   1.064   5.803
   65PMPE  H14X 3530   3.100   1.009   5.743
   65PMPE  H14Y 3531   3.044   1.167   5.762
   65PMPE  C315 3532   2.892   0.983   5.798
   65PMPE  H15X 3533   2.816   1.047   5.852
   65PMPE  H15Y 3534   2.892   0.892   5.858
   65PMPE  C316 3535   2.851   0.909   5.667
   65PMPE  H16X 3536   2.922   0.944   5.589
   65PMPE  H16Y 3537   2.812   0.957   5.579
   65PMPE  H16Z 3538   2.739   0.900   5.668
   66PMPE     N 3539   6.698   6.940   7.511
   66PMPE   HN1 3540   6.798   6.916   7.525
   66PMPE   HN2 3541   6.679   6.955   7.410
   66PMPE   HN3 3542   6.675   7.027   7.565
   66PMPE   C12 3543   6.613   6.830   7.571
   66PMPE  H12A 3544   6.619   6.845   7.681
   66PMPE  H12B 3545   6.656   6.732   7.544
   66PMPE   C11 3546   6.465   6.831   7.531
   66PMPE  H11A 3547   6.418   6.933   7.536
   66PMPE  H11B 3548   6.418   6.772   7.613
   66PMPE     P 3549   6.325   6.805   7.307
   66PMPE   O13 3550   6.207   6.835   7.389
   66PMPE   O14 3551   6.316   6.705   7.199
   66PMPE   O11 3552   6.379   6.939   7.247
   66PMPE   O12 3553   6.446   6.766   7.406
   66PMPE    C1 3554   6.511   6.963   7.201
   66PMPE    HA 3555   6.584   6.910   7.265
   66PMPE    HB 3556   6.530   7.072   7.216
   66PMPE    C2 3557   6.534   6.928   7.048
   66PMPE    HS 3558   6.616   6.994   7.011
   66PMPE   O21 3559   6.418   6.946   6.967
   66PMPE   C21 3560   6.365   7.066   6.970
   66PMPE   O22 3561   6.416   7.167   7.015
   66PMPE   C22 3562   6.229   7.059   6.901
   66PMPE   H2R 3563   6.183   7.154   6.937
   66PMPE   H2S 3564   6.165   6.978   6.938
   66PMPE    C3 3565   6.584   6.783   7.018
   66PMPE    HX 3566   6.504   6.709   7.043
   66PMPE    HY 3567   6.670   6.760   7.084
   66PMPE   O31 3568   6.628   6.776   6.880
   66PMPE   C31 3569   6.547   6.717   6.790
   66PMPE   O32 3570   6.445   6.658   6.816
   66PMPE   C32 3571   6.607   6.735   6.649
   66PMPE   H2X 3572   6.717   6.724   6.657
   66PMPE   H2Y 3573   6.581   6.837   6.613
   66PMPE   C23 3574   6.235   7.051   6.746
   66PMPE   H3R 3575   6.312   7.122   6.706
   66PMPE   H3S 3576   6.131   7.074   6.711
   66PMPE   C24 3577   6.252   6.919   6.674
   66PMPE   H4R 3578   6.205   6.846   6.742
   66PMPE   H4S 3579   6.361   6.901   6.669
   66PMPE   C25 3580   6.188   6.910   6.532
   66PMPE   H5R 3581   6.078   6.926   6.535
   66PMPE   H5S 3582   6.207   6.806   6.498
   66PMPE   C26 3583   6.251   6.994   6.422
   66PMPE   H6R 3584   6.233   7.100   6.429
   66PMPE   H6S 3585   6.209   6.982   6.320
   66PMPE   C27 3586   6.399   6.972   6.418
   66PMPE   H7R 3587   6.425   6.866   6.402
   66PMPE   H7S 3588   6.452   7.010   6.510
   66PMPE   C28 3589   6.439   7.042   6.295
   66PMPE   H8R 3590   6.430   7.149   6.312
   66PMPE   H8S 3591   6.374   7.033   6.207
   66PMPE   C29 3592   6.574   7.002   6.254
   66PMPE   H9R 3593   6.628   6.913   6.291
   66PMPE  C217 3594   6.640   7.104   6.337
   66PMPE  H17R 3595   6.721   7.058   6.388
   66PMPE  H17S 3596   6.589   7.187   6.382
   66PMPE  C210 3597   6.650   7.104   6.186
   66PMPE  H10R 3598   6.739   7.075   6.128
   66PMPE  C211 3599   6.565   7.191   6.118
   66PMPE  H11R 3600   6.601   7.296   6.140
   66PMPE  H11S 3601   6.459   7.186   6.125
   66PMPE  C212 3602   6.562   7.135   5.979
   66PMPE  H12R 3603   6.672   7.144   5.957
   66PMPE  H12S 3604   6.480   7.192   5.928
   66PMPE  C213 3605   6.547   7.014   5.897
   66PMPE  H13R 3606   6.441   7.000   5.931
   66PMPE  H13S 3607   6.630   6.955   5.940
   66PMPE  C214 3608   6.563   7.030   5.738
   66PMPE  H14R 3609   6.462   7.047   5.695
   66PMPE  H14S 3610   6.594   6.928   5.718
   66PMPE  C215 3611   6.675   7.098   5.648
   66PMPE  H15R 3612   6.771   7.101   5.690
   66PMPE  H15S 3613   6.703   7.204   5.625
   66PMPE  C216 3614   6.643   7.084   5.513
   66PMPE  H16R 3615   6.669   6.985   5.486
   66PMPE  H16S 3616   6.535   7.101   5.497
   66PMPE  H16T 3617   6.704   7.167   5.459
   66PMPE   C33 3618   6.558   6.628   6.548
   66PMPE   H3X 3619   6.449   6.637   6.529
   66PMPE   H3Y 3620   6.576   6.528   6.594
   66PMPE   C34 3621   6.629   6.629   6.411
   66PMPE   H4X 3622   6.739   6.638   6.427
   66PMPE   H4Y 3623   6.600   6.717   6.351
   66PMPE   C35 3624   6.594   6.501   6.332
   66PMPE   H5X 3625   6.623   6.412   6.391
   66PMPE   H5Y 3626   6.651   6.497   6.237
   66PMPE   C36 3627   6.447   6.494   6.291
   66PMPE   H6X 3628   6.381   6.507   6.380
   66PMPE   H6Y 3629   6.427   6.393   6.250
   66PMPE   C37 3630   6.408   6.605   6.192
   66PMPE   H7X 3631   6.472   6.606   6.100
   66PMPE   H7Y 3632   6.424   6.702   6.243
   66PMPE   C38 3633   6.261   6.602   6.153
   66PMPE   H8X 3634   6.202   6.627   6.244
   66PMPE   H8Y 3635   6.230   6.501   6.117
   66PMPE   C39 3636   6.231   6.703   6.044
   66PMPE   H9X 3637   6.271   6.666   5.948
   66PMPE   H9Y 3638   6.283   6.799   6.068
   66PMPE  C310 3639   6.083   6.736   6.029
   66PMPE  H10X 3640   6.040   6.763   6.129
   66PMPE  H10Y 3641   6.023   6.649   5.995
   66PMPE  C311 3642   6.073   6.859   5.938
   66PMPE  H11X 3643   6.099   6.950   5.996
   66PMPE  H11Y 3644   5.969   6.870   5.915
   66PMPE  C312 3645   6.145   6.864   5.804
   66PMPE  H12X 3646   6.252   6.850   5.828
   66PMPE  H12Y 3647   6.130   6.964   5.757
   66PMPE  C313 3648   6.111   6.755   5.701
   66PMPE  H13X 3649   6.107   6.657   5.756
   66PMPE  H13Y 3650   6.183   6.765   5.618
   66PMPE  C314 3651   5.984   6.761   5.625
   66PMPE  H14X 3652   5.948   6.777   5.723
   66PMPE  H14Y 3653   5.929   6.669   5.598
   66PMPE  C315 3654   5.969   6.870   5.521
   66PMPE  H15X 3655   6.020   6.829   5.431
   66PMPE  H15Y 3656   6.018   6.968   5.544
   66PMPE  C316 3657   5.826   6.897   5.479
   66PMPE  H16X 3658   5.748   6.926   5.548
   66PMPE  H16Y 3659   5.780   6.819   5.414
   66PMPE  H16Z 3660   5.834   6.997   5.442
   67PMPE     N 3661   1.349   1.993   7.617
   67PMPE   HN1 3662   1.427   2.049   7.578
   67PMPE   HN2 3663   1.363   1.977   7.720
   67PMPE   HN3 3664   1.347   1.904   7.566
   67PMPE   C12 3665   1.221   2.070   7.601
   67PMPE  H12A 3666   1.212   2.137   7.689
   67PMPE  H12B 3667   1.136   1.999   7.602
   67PMPE   C11 3668   1.222   2.156   7.473
   67PMPE  H11A 3669   1.316   2.215   7.470
   67PMPE  H11B 3670   1.143   2.235   7.478
   67PMPE     P 3671   1.067   2.034   7.300
   67PMPE   O13 3672   0.975   2.150   7.319
   67PMPE   O14 3673   1.039   1.906   7.371
   67PMPE   O11 3674   1.088   2.008   7.147
   67PMPE   O12 3675   1.210   2.077   7.355
   67PMPE    C1 3676   1.158   2.093   7.058
   67PMPE    HA 3677   1.232   2.031   7.003
   67PMPE    HB 3678   1.214   2.174   7.111
   67PMPE    C2 3679   1.066   2.153   6.947
   67PMPE    HS 3680   0.989   2.216   6.997
   67PMPE   O21 3681   1.001   2.043   6.879
   67PMPE   C21 3682   0.900   2.075   6.800
   67PMPE   O22 3683   0.865   2.187   6.771
   67PMPE   C22 3684   0.826   1.947   6.762
   67PMPE   H2R 3685   0.717   1.971   6.760
   67PMPE   H2S 3686   0.842   1.867   6.837
   67PMPE    C3 3687   1.150   2.241   6.850
   67PMPE    HX 3688   1.228   2.296   6.906
   67PMPE    HY 3689   1.083   2.317   6.802
   67PMPE   O31 3690   1.215   2.157   6.754
   67PMPE   C31 3691   1.234   2.214   6.637
   67PMPE   O32 3692   1.221   2.333   6.611
   67PMPE   C32 3693   1.295   2.112   6.549
   67PMPE   H2X 3694   1.256   2.118   6.446
   67PMPE   H2Y 3695   1.295   2.009   6.589
   67PMPE   C23 3696   0.859   1.899   6.621
   67PMPE   H3R 3697   0.857   1.984   6.550
   67PMPE   H3S 3698   0.778   1.827   6.593
   67PMPE   C24 3699   0.990   1.823   6.607
   67PMPE   H4R 3700   0.995   1.742   6.684
   67PMPE   H4S 3701   1.077   1.890   6.624
   67PMPE   C25 3702   0.997   1.769   6.464
   67PMPE   H5R 3703   0.991   1.849   6.390
   67PMPE   H5S 3704   0.896   1.726   6.445
   67PMPE   C26 3705   1.121   1.677   6.444
   67PMPE   H6R 3706   1.116   1.595   6.520
   67PMPE   H6S 3707   1.216   1.725   6.466
   67PMPE   C27 3708   1.127   1.601   6.310
   67PMPE   H7R 3709   1.028   1.564   6.317
   67PMPE   H7S 3710   1.194   1.512   6.307
   67PMPE   C28 3711   1.095   1.664   6.176
   67PMPE   H8R 3712   1.000   1.719   6.189
   67PMPE   H8S 3713   1.077   1.586   6.098
   67PMPE   C29 3714   1.212   1.749   6.143
   67PMPE   H9R 3715   1.313   1.705   6.148
   67PMPE  C217 3716   1.187   1.883   6.211
   67PMPE  H17R 3717   1.273   1.909   6.265
   67PMPE  H17S 3718   1.087   1.910   6.238
   67PMPE  C210 3719   1.199   1.874   6.062
   67PMPE  H10R 3720   1.293   1.911   6.019
   67PMPE  C211 3721   1.074   1.882   5.978
   67PMPE  H11R 3722   1.060   1.985   5.941
   67PMPE  H11S 3723   0.982   1.853   6.033
   67PMPE  C212 3724   1.106   1.787   5.863
   67PMPE  H12R 3725   1.140   1.690   5.907
   67PMPE  H12S 3726   1.192   1.831   5.807
   67PMPE  C213 3727   0.990   1.758   5.771
   67PMPE  H13R 3728   0.950   1.853   5.729
   67PMPE  H13S 3729   0.908   1.707   5.827
   67PMPE  C214 3730   1.028   1.668   5.656
   67PMPE  H14R 3731   1.038   1.562   5.690
   67PMPE  H14S 3732   1.128   1.696   5.614
   67PMPE  C215 3733   0.922   1.680   5.549
   67PMPE  H15R 3734   0.938   1.768   5.481
   67PMPE  H15S 3735   0.816   1.672   5.582
   67PMPE  C216 3736   0.936   1.563   5.468
   67PMPE  H16R 3737   0.860   1.558   5.387
   67PMPE  H16S 3738   1.040   1.574   5.427
   67PMPE  H16T 3739   0.931   1.467   5.523
   67PMPE   C33 3740   1.437   2.150   6.545
   67PMPE   H3X 3741   1.477   2.155   6.646
   67PMPE   H3Y 3742   1.447   2.253   6.502
   67PMPE   C34 3743   1.511   2.048   6.464
   67PMPE   H4X 3744   1.560   1.953   6.488
   67PMPE   H4Y 3745   1.601   2.093   6.494
   67PMPE   C35 3746   1.480   2.065   6.320
   67PMPE   H5X 3747   1.380   2.041   6.296
   67PMPE   H5Y 3748   1.551   2.004   6.261
   67PMPE   C36 3749   1.470   2.207   6.279
   67PMPE   H6X 3750   1.475   2.205   6.170
   67PMPE   H6Y 3751   1.547   2.271   6.322
   67PMPE   C37 3752   1.357   2.276   6.225
   67PMPE   H7X 3753   1.422   2.368   6.209
   67PMPE   H7Y 3754   1.303   2.280   6.320
   67PMPE   C38 3755   1.288   2.209   6.102
   67PMPE   H8X 3756   1.227   2.132   6.150
   67PMPE   H8Y 3757   1.360   2.165   6.029
   67PMPE   C39 3758   1.203   2.300   6.020
   67PMPE   H9X 3759   1.272   2.367   5.961
   67PMPE   H9Y 3760   1.132   2.350   6.091
   67PMPE  C310 3761   1.122   2.260   5.907
   67PMPE  H10X 3762   1.069   2.355   5.876
   67PMPE  H10Y 3763   1.051   2.185   5.944
   67PMPE  C311 3764   1.216   2.212   5.802
   67PMPE  H11X 3765   1.290   2.140   5.842
   67PMPE  H11Y 3766   1.279   2.298   5.765
   67PMPE  C312 3767   1.130   2.143   5.701
   67PMPE  H12X 3768   1.047   2.203   5.660
   67PMPE  H12Y 3769   1.068   2.062   5.742
   67PMPE  C313 3770   1.213   2.105   5.584
   67PMPE  H13X 3771   1.296   2.038   5.613
   67PMPE  H13Y 3772   1.269   2.192   5.545
   67PMPE  C314 3773   1.111   2.049   5.487
   67PMPE  H14X 3774   1.048   2.124   5.433
   67PMPE  H14Y 3775   1.055   1.963   5.527
   67PMPE  C315 3776   1.190   1.992   5.384
   67PMPE  H15X 3777   1.130   1.924   5.320
   67PMPE  H15Y 3778   1.264   1.932   5.442
   67PMPE  C316 3779   1.245   2.108   5.307
   67PMPE  H16X 3780   1.192   2.155   5.225
   67PMPE  H16Y 3781   1.273   2.076   5.210
   67PMPE  H16Z 3782   1.337   2.157   5.351
   68PMPE     N 3783   6.227   7.863   7.410
   68PMPE   HN1 3784   6.294   7.865   7.490
   68PMPE   HN2 3785   6.251   7.780   7.352
   68PMPE   HN3 3786   6.242   7.949   7.355
   68PMPE   C12 3787   6.084   7.841   7.454
   68PMPE  H12A 3788   6.018   7.870   7.369
   68PMPE  H12B 3789   6.064   7.907   7.541
   68PMPE   C11 3790   6.062   7.693   7.485
   68PMPE  H11A 3791   5.960   7.678   7.527
   68PMPE  H11B 3792   6.137   7.660   7.562
   68PMPE     P 3793   6.055   7.460   7.372
   68PMPE   O13 3794   5.922   7.439   7.433
   68PMPE   O14 3795   6.175   7.405   7.437
   68PMPE   O11 3796   6.052   7.421   7.218
   68PMPE   O12 3797   6.078   7.618   7.365
   68PMPE    C1 3798   5.949   7.447   7.122
   68PMPE    HA 3799   5.874   7.518   7.163
   68PMPE    HB 3800   5.896   7.353   7.095
   68PMPE    C2 3801   6.001   7.510   6.989
   68PMPE    HS 3802   5.912   7.537   6.927
   68PMPE   O21 3803   6.081   7.418   6.914
   68PMPE   C21 3804   6.094   7.440   6.783
   68PMPE   O22 3805   6.040   7.525   6.716
   68PMPE   C22 3806   6.172   7.327   6.730
   68PMPE   H2R 3807   6.116   7.248   6.784
   68PMPE   H2S 3808   6.279   7.325   6.761
   68PMPE    C3 3809   6.082   7.637   7.023
   68PMPE    HX 3810   6.173   7.608   7.081
   68PMPE    HY 3811   6.022   7.700   7.090
   68PMPE   O31 3812   6.108   7.716   6.906
   68PMPE   C31 3813   6.230   7.709   6.863
   68PMPE   O32 3814   6.324   7.658   6.921
   68PMPE   C32 3815   6.234   7.770   6.724
   68PMPE   H2X 3816   6.277   7.873   6.733
   68PMPE   H2Y 3817   6.135   7.775   6.676
   68PMPE   C23 3818   6.145   7.293   6.584
   68PMPE   H3R 3819   6.038   7.274   6.563
   68PMPE   H3S 3820   6.193   7.197   6.570
   68PMPE   C24 3821   6.209   7.382   6.482
   68PMPE   H4R 3822   6.194   7.482   6.517
   68PMPE   H4S 3823   6.155   7.375   6.386
   68PMPE   C25 3824   6.354   7.347   6.455
   68PMPE   H5R 3825   6.327   7.260   6.397
   68PMPE   H5S 3826   6.414   7.314   6.542
   68PMPE   C26 3827   6.425   7.439   6.356
   68PMPE   H6R 3828   6.527   7.403   6.349
   68PMPE   H6S 3829   6.433   7.542   6.392
   68PMPE   C27 3830   6.366   7.432   6.215
   68PMPE   H7R 3831   6.259   7.426   6.210
   68PMPE   H7S 3832   6.393   7.337   6.177
   68PMPE   C28 3833   6.411   7.534   6.115
   68PMPE   H8R 3834   6.371   7.633   6.141
   68PMPE   H8S 3835   6.385   7.509   6.009
   68PMPE   C29 3836   6.555   7.543   6.125
   68PMPE   H9R 3837   6.594   7.592   6.216
   68PMPE  C217 3838   6.574   7.612   6.002
   68PMPE  H17R 3839   6.658   7.639   6.038
   68PMPE  H17S 3840   6.559   7.696   5.937
   68PMPE  C210 3841   6.661   7.505   6.016
   68PMPE  H10R 3842   6.763   7.494   6.057
   68PMPE  C211 3843   6.647   7.503   5.870
   68PMPE  H11R 3844   6.738   7.498   5.806
   68PMPE  H11S 3845   6.548   7.522   5.819
   68PMPE  C212 3846   6.610   7.379   5.906
   68PMPE  H12R 3847   6.512   7.370   5.958
   68PMPE  H12S 3848   6.687   7.323   5.968
   68PMPE  C213 3849   6.619   7.321   5.782
   68PMPE  H13R 3850   6.640   7.227   5.807
   68PMPE  H13S 3851   6.727   7.318   5.758
   68PMPE  C214 3852   6.512   7.332   5.676
   68PMPE  H14R 3853   6.539   7.283   5.584
   68PMPE  H14S 3854   6.526   7.436   5.648
   68PMPE  C215 3855   6.371   7.274   5.678
   68PMPE  H15R 3856   6.346   7.219   5.769
   68PMPE  H15S 3857   6.352   7.205   5.591
   68PMPE  C216 3858   6.282   7.394   5.666
   68PMPE  H16R 3859   6.182   7.370   5.702
   68PMPE  H16S 3860   6.331   7.478   5.721
   68PMPE  H16T 3861   6.269   7.420   5.560
   68PMPE   C33 3862   6.309   7.679   6.626
   68PMPE   H3X 3863   6.307   7.575   6.608
   68PMPE   H3Y 3864   6.382   7.648   6.696
   68PMPE   C34 3865   6.357   7.757   6.509
   68PMPE   H4X 3866   6.444   7.725   6.449
   68PMPE   H4Y 3867   6.388   7.836   6.576
   68PMPE   C35 3868   6.259   7.846   6.446
   68PMPE   H5X 3869   6.236   7.935   6.510
   68PMPE   H5Y 3870   6.177   7.777   6.422
   68PMPE   C36 3871   6.300   7.888   6.314
   68PMPE   H6X 3872   6.333   7.806   6.249
   68PMPE   H6Y 3873   6.390   7.942   6.318
   68PMPE   C37 3874   6.201   7.985   6.262
   68PMPE   H7X 3875   6.229   8.087   6.294
   68PMPE   H7Y 3876   6.102   7.983   6.308
   68PMPE   C38 3877   6.201   7.965   6.114
   68PMPE   H8X 3878   6.281   7.976   6.048
   68PMPE   H8Y 3879   6.181   8.065   6.085
   68PMPE   C39 3880   6.160   7.838   6.045
   68PMPE   H9X 3881   6.119   7.781   6.130
   68PMPE   H9Y 3882   6.250   7.791   5.999
   68PMPE  C310 3883   6.056   7.843   5.933
   68PMPE  H10X 3884   5.970   7.869   5.989
   68PMPE  H10Y 3885   6.025   7.741   5.908
   68PMPE  C311 3886   6.071   7.931   5.807
   68PMPE  H11X 3887   6.098   8.038   5.815
   68PMPE  H11Y 3888   5.972   7.936   5.756
   68PMPE  C312 3889   6.167   7.868   5.715
   68PMPE  H12X 3890   6.158   7.759   5.733
   68PMPE  H12Y 3891   6.268   7.903   5.747
   68PMPE  C313 3892   6.129   7.899   5.571
   68PMPE  H13X 3893   6.202   7.850   5.511
   68PMPE  H13Y 3894   6.135   8.007   5.545
   68PMPE  C314 3895   5.996   7.836   5.526
   68PMPE  H14X 3896   5.982   7.865   5.420
   68PMPE  H14Y 3897   5.911   7.878   5.582
   68PMPE  C315 3898   5.985   7.684   5.537
   68PMPE  H15X 3899   5.882   7.658   5.506
   68PMPE  H15Y 3900   6.003   7.646   5.641
   68PMPE  C316 3901   6.075   7.610   5.442
   68PMPE  H16X 3902   6.059   7.650   5.340
   68PMPE  H16Y 3903   6.064   7.500   5.441
   68PMPE  H16Z 3904   6.177   7.634   5.473
   69PMPE     N 3905   3.763   0.176   7.581
   69PMPE   HN1 3906   3.780   0.116   7.662
   69PMPE   HN2 3907   3.841   0.243   7.569
   69PMPE   HN3 3908   3.674   0.229   7.596
   69PMPE   C12 3909   3.743   0.095   7.456
   69PMPE  H12A 3910   3.727  -0.011   7.485
   69PMPE  H12B 3911   3.834   0.104   7.394
   69PMPE   C11 3912   3.624   0.150   7.378
   69PMPE  H11A 3913   3.629   0.099   7.278
   69PMPE  H11B 3914   3.635   0.260   7.364
   69PMPE     P 3915   3.372   0.152   7.350
   69PMPE   O13 3916   3.262   0.209   7.430
   69PMPE   O14 3917   3.347   0.028   7.273
   69PMPE   O11 3918   3.426   0.266   7.252
   69PMPE   O12 3919   3.500   0.127   7.444
   69PMPE    C1 3920   3.357   0.296   7.129
   69PMPE    HA 3921   3.324   0.402   7.127
   69PMPE    HB 3922   3.266   0.234   7.113
   69PMPE    C2 3923   3.449   0.266   7.008
   69PMPE    HS 3924   3.396   0.296   6.915
   69PMPE   O21 3925   3.483   0.128   7.006
   69PMPE   C21 3926   3.393   0.039   6.969
   69PMPE   O22 3927   3.281   0.063   6.926
   69PMPE   C22 3928   3.465  -0.094   6.961
   69PMPE   H2R 3929   3.396  -0.179   6.949
   69PMPE   H2S 3930   3.522  -0.109   7.055
   69PMPE    C3 3931   3.583   0.344   7.017
   69PMPE    HX 3932   3.639   0.298   7.102
   69PMPE    HY 3933   3.569   0.452   7.040
   69PMPE   O31 3934   3.661   0.321   6.899
   69PMPE   C31 3935   3.639   0.403   6.799
   69PMPE   O32 3936   3.591   0.516   6.807
   69PMPE   C32 3937   3.677   0.331   6.670
   69PMPE   H2X 3938   3.644   0.225   6.677
   69PMPE   H2Y 3939   3.787   0.333   6.663
   69PMPE   C23 3940   3.568  -0.089   6.847
   69PMPE   H3R 3941   3.631  -0.178   6.858
   69PMPE   H3S 3942   3.638  -0.003   6.860
   69PMPE   C24 3943   3.509  -0.081   6.706
   69PMPE   H4R 3944   3.474   0.023   6.688
   69PMPE   H4S 3945   3.422  -0.149   6.691
   69PMPE   C25 3946   3.616  -0.110   6.602
   69PMPE   H5R 3947   3.652  -0.211   6.605
   69PMPE   H5S 3948   3.711  -0.059   6.626
   69PMPE   C26 3949   3.563  -0.096   6.461
   69PMPE   H6R 3950   3.531   0.010   6.450
   69PMPE   H6S 3951   3.476  -0.163   6.445
   69PMPE   C27 3952   3.670  -0.123   6.359
   69PMPE   H7R 3953   3.628  -0.109   6.257
   69PMPE   H7S 3954   3.721  -0.220   6.354
   69PMPE   C28 3955   3.784  -0.036   6.394
   69PMPE   H8R 3956   3.857  -0.079   6.468
   69PMPE   H8S 3957   3.754   0.068   6.417
   69PMPE   C29 3958   3.854  -0.035   6.271
   69PMPE   H9R 3959   3.942  -0.094   6.287
   69PMPE  C217 3960   3.927   0.090   6.290
   69PMPE  H17R 3961   4.034   0.064   6.281
   69PMPE  H17S 3962   3.900   0.187   6.322
   69PMPE  C210 3963   3.827   0.066   6.167
   69PMPE  H10R 3964   3.875   0.122   6.094
   69PMPE  C211 3965   3.706   0.145   6.139
   69PMPE  H11R 3966   3.737   0.251   6.162
   69PMPE  H11S 3967   3.626   0.100   6.198
   69PMPE  C212 3968   3.669   0.144   5.985
   69PMPE  H12R 3969   3.625   0.045   5.962
   69PMPE  H12S 3970   3.754   0.155   5.913
   69PMPE  C213 3971   3.567   0.257   5.969
   69PMPE  H13R 3972   3.620   0.350   5.989
   69PMPE  H13S 3973   3.490   0.252   6.047
   69PMPE  C214 3974   3.494   0.279   5.838
   69PMPE  H14R 3975   3.400   0.337   5.851
   69PMPE  H14S 3976   3.473   0.183   5.787
   69PMPE  C215 3977   3.574   0.371   5.756
   69PMPE  H15R 3978   3.676   0.329   5.753
   69PMPE  H15S 3979   3.589   0.473   5.792
   69PMPE  C216 3980   3.510   0.397   5.626
   69PMPE  H16R 3981   3.422   0.461   5.612
   69PMPE  H16S 3982   3.591   0.463   5.589
   69PMPE  H16T 3983   3.497   0.306   5.563
   69PMPE   C33 3984   3.610   0.396   6.547
   69PMPE   H3X 3985   3.664   0.363   6.455
   69PMPE   H3Y 3986   3.619   0.507   6.551
   69PMPE   C34 3987   3.465   0.351   6.531
   69PMPE   H4X 3988   3.412   0.346   6.629
   69PMPE   H4Y 3989   3.464   0.249   6.487
   69PMPE   C35 3990   3.383   0.443   6.441
   69PMPE   H5X 3991   3.411   0.425   6.335
   69PMPE   H5Y 3992   3.400   0.549   6.468
   69PMPE   C36 3993   3.236   0.414   6.455
   69PMPE   H6X 3994   3.187   0.467   6.372
   69PMPE   H6Y 3995   3.192   0.462   6.546
   69PMPE   C37 3996   3.210   0.261   6.455
   69PMPE   H7X 3997   3.116   0.230   6.502
   69PMPE   H7Y 3998   3.261   0.210   6.536
   69PMPE   C38 3999   3.220   0.199   6.314
   69PMPE   H8X 4000   3.327   0.207   6.285
   69PMPE   H8Y 4001   3.163   0.252   6.234
   69PMPE   C39 4002   3.177   0.052   6.312
   69PMPE   H9X 4003   3.070   0.042   6.342
   69PMPE   H9Y 4004   3.240   0.001   6.388
   69PMPE  C310 4005   3.193  -0.013   6.175
   69PMPE  H10X 4006   3.289   0.019   6.129
   69PMPE  H10Y 4007   3.113   0.026   6.108
   69PMPE  C311 4008   3.180  -0.167   6.177
   69PMPE  H11X 4009   3.099  -0.193   6.104
   69PMPE  H11Y 4010   3.143  -0.200   6.277
   69PMPE  C312 4011   3.311  -0.242   6.150
   69PMPE  H12X 4012   3.296  -0.352   6.163
   69PMPE  H12Y 4013   3.386  -0.209   6.225
   69PMPE  C313 4014   3.373  -0.220   6.012
   69PMPE  H13X 4015   3.457  -0.293   6.000
   69PMPE  H13Y 4016   3.415  -0.117   6.007
   69PMPE  C314 4017   3.275  -0.238   5.896
   69PMPE  H14X 4018   3.225  -0.141   5.877
   69PMPE  H14Y 4019   3.199  -0.315   5.924
   69PMPE  C315 4020   3.342  -0.281   5.767
   69PMPE  H15X 4021   3.267  -0.295   5.687
   69PMPE  H15Y 4022   3.389  -0.380   5.785
   69PMPE  C316 4023   3.446  -0.177   5.724
   69PMPE  H16X 4024   3.478  -0.195   5.619
   69PMPE  H16Y 4025   3.533  -0.190   5.788
   69PMPE  H16Z 4026   3.415  -0.072   5.735
   70PMPE     N 4027   7.523   3.637   7.718
   70PMPE   HN1 4028   7.510   3.737   7.746
   70PMPE   HN2 4029   7.442   3.586   7.759
   70PMPE   HN3 4030   7.613   3.605   7.759
   70PMPE   C12 4031   7.523   3.633   7.568
   70PMPE  H12A 4032   7.434   3.691   7.535
   70PMPE  H12B 4033   7.511   3.528   7.534
   70PMPE   C11 4034   7.653   3.695   7.515
   70PMPE  H11A 4035   7.742   3.643   7.557
   70PMPE  H11B 4036   7.656   3.803   7.544
   70PMPE     P 4037   7.774   3.727   7.279
   70PMPE   O13 4038   7.875   3.619   7.272
   70PMPE   O14 4039   7.821   3.860   7.325
   70PMPE   O11 4040   7.702   3.736   7.138
   70PMPE   O12 4041   7.654   3.681   7.375
   70PMPE    C1 4042   7.601   3.639   7.106
   70PMPE    HA 4043   7.508   3.693   7.077
   70PMPE    HB 4044   7.572   3.573   7.190
   70PMPE    C2 4045   7.639   3.544   6.990
   70PMPE    HS 4046   7.571   3.453   6.999
   70PMPE   O21 4047   7.776   3.518   6.972
   70PMPE   C21 4048   7.805   3.414   7.034
   70PMPE   O22 4049   7.728   3.351   7.105
   70PMPE   C22 4050   7.942   3.381   6.983
   70PMPE   H2R 4051   8.002   3.381   7.076
   70PMPE   H2S 4052   7.993   3.467   6.939
   70PMPE    C3 4053   7.605   3.598   6.860
   70PMPE    HX 4054   7.505   3.617   6.891
   70PMPE    HY 4055   7.594   3.519   6.779
   70PMPE   O31 4056   7.668   3.728   6.836
   70PMPE   C31 4057   7.665   3.751   6.707
   70PMPE   O32 4058   7.639   3.660   6.630
   70PMPE   C32 4059   7.688   3.899   6.666
   70PMPE   H2X 4060   7.792   3.909   6.702
   70PMPE   H2Y 4061   7.625   3.973   6.721
   70PMPE   C23 4062   7.947   3.261   6.883
   70PMPE   H3R 4063   7.893   3.168   6.909
   70PMPE   H3S 4064   8.056   3.241   6.883
   70PMPE   C24 4065   7.928   3.290   6.738
   70PMPE   H4R 4066   7.824   3.328   6.733
   70PMPE   H4S 4067   7.935   3.198   6.675
   70PMPE   C25 4068   8.033   3.391   6.695
   70PMPE   H5R 4069   8.128   3.376   6.753
   70PMPE   H5S 4070   7.993   3.491   6.724
   70PMPE   C26 4071   8.067   3.388   6.547
   70PMPE   H6R 4072   8.119   3.293   6.521
   70PMPE   H6S 4073   8.139   3.470   6.525
   70PMPE   C27 4074   7.941   3.407   6.462
   70PMPE   H7R 4075   7.897   3.507   6.483
   70PMPE   H7S 4076   7.865   3.332   6.492
   70PMPE   C28 4077   7.972   3.405   6.312
   70PMPE   H8R 4078   8.011   3.304   6.284
   70PMPE   H8S 4079   8.046   3.481   6.284
   70PMPE   C29 4080   7.849   3.443   6.235
   70PMPE   H9R 4081   7.781   3.526   6.264
   70PMPE  C217 4082   7.774   3.320   6.260
   70PMPE  H17R 4083   7.669   3.333   6.275
   70PMPE  H17S 4084   7.829   3.230   6.286
   70PMPE  C210 4085   7.810   3.365   6.115
   70PMPE  H10R 4086   7.719   3.396   6.061
   70PMPE  C211 4087   7.919   3.284   6.038
   70PMPE  H11R 4088   7.888   3.225   5.950
   70PMPE  H11S 4089   7.958   3.200   6.099
   70PMPE  C212 4090   8.012   3.380   5.971
   70PMPE  H12R 4091   8.095   3.323   5.924
   70PMPE  H12S 4092   8.054   3.436   6.055
   70PMPE  C213 4093   7.945   3.487   5.879
   70PMPE  H13R 4094   8.019   3.562   5.848
   70PMPE  H13S 4095   7.852   3.526   5.928
   70PMPE  C214 4096   7.876   3.454   5.752
   70PMPE  H14R 4097   7.807   3.516   5.693
   70PMPE  H14S 4098   7.819   3.375   5.797
   70PMPE  C215 4099   7.962   3.415   5.642
   70PMPE  H15R 4100   7.907   3.407   5.548
   70PMPE  H15S 4101   7.943   3.313   5.669
   70PMPE  C216 4102   8.101   3.482   5.621
   70PMPE  H16R 4103   8.166   3.479   5.709
   70PMPE  H16S 4104   8.167   3.442   5.541
   70PMPE  H16T 4105   8.077   3.583   5.588
   70PMPE   C33 4106   7.694   3.923   6.511
   70PMPE   H3X 4107   7.727   4.026   6.491
   70PMPE   H3Y 4108   7.599   3.929   6.455
   70PMPE   C34 4109   7.778   3.815   6.438
   70PMPE   H4X 4110   7.750   3.808   6.331
   70PMPE   H4Y 4111   7.758   3.713   6.471
   70PMPE   C35 4112   7.930   3.828   6.453
   70PMPE   H5X 4113   7.977   3.740   6.404
   70PMPE   H5Y 4114   7.957   3.821   6.561
   70PMPE   C36 4115   7.985   3.960   6.399
   70PMPE   H6X 4116   8.096   3.959   6.401
   70PMPE   H6Y 4117   7.950   4.038   6.470
   70PMPE   C37 4118   7.936   4.006   6.261
   70PMPE   H7X 4119   7.971   4.112   6.254
   70PMPE   H7Y 4120   7.825   4.008   6.260
   70PMPE   C38 4121   7.990   3.928   6.139
   70PMPE   H8X 4122   7.996   3.819   6.155
   70PMPE   H8Y 4123   8.095   3.961   6.124
   70PMPE   C39 4124   7.911   3.955   6.010
   70PMPE   H9X 4125   7.981   3.965   5.923
   70PMPE   H9Y 4126   7.858   4.052   6.026
   70PMPE  C310 4127   7.801   3.857   5.971
   70PMPE  H10X 4128   7.729   3.850   6.056
   70PMPE  H10Y 4129   7.841   3.755   5.951
   70PMPE  C311 4130   7.724   3.906   5.847
   70PMPE  H11X 4131   7.746   4.014   5.830
   70PMPE  H11Y 4132   7.616   3.899   5.869
   70PMPE  C312 4133   7.751   3.829   5.717
   70PMPE  H12X 4134   7.751   3.719   5.733
   70PMPE  H12Y 4135   7.852   3.853   5.675
   70PMPE  C313 4136   7.648   3.871   5.612
   70PMPE  H13X 4137   7.632   3.980   5.617
   70PMPE  H13Y 4138   7.551   3.817   5.624
   70PMPE  C314 4139   7.697   3.843   5.475
   70PMPE  H14X 4140   7.805   3.871   5.460
   70PMPE  H14Y 4141   7.639   3.889   5.391
   70PMPE  C315 4142   7.689   3.695   5.463
   70PMPE  H15X 4143   7.767   3.651   5.527
   70PMPE  H15Y 4144   7.722   3.705   5.359
   70PMPE  C316 4145   7.567   3.600   5.483
   70PMPE  H16X 4146   7.475   3.639   5.440
   70PMPE  H16Y 4147   7.565   3.568   5.589
   70PMPE  H16Z 4148   7.578   3.499   5.437
   71PMPE     N 4149   0.643   6.025   7.611
   71PMPE   HN1 4150   0.616   6.115   7.657
   71PMPE   HN2 4151   0.586   5.947   7.651
   71PMPE   HN3 4152   0.744   6.009   7.632
   71PMPE   C12 4153   0.622   6.029   7.462
   71PMPE  H12A 4154   0.703   6.089   7.417
   71PMPE  H12B 4155   0.524   6.078   7.443
   71PMPE   C11 4156   0.621   5.889   7.401
   71PMPE  H11A 4157   0.706   5.827   7.440
   71PMPE  H11B 4158   0.636   5.898   7.291
   71PMPE     P 4159   0.416   5.730   7.340
   71PMPE   O13 4160   0.272   5.753   7.350
   71PMPE   O14 4161   0.459   5.599   7.379
   71PMPE   O11 4162   0.468   5.761   7.196
   71PMPE   O12 4163   0.496   5.831   7.433
   71PMPE    C1 4164   0.560   5.682   7.122
   71PMPE    HA 4165   0.525   5.577   7.107
   71PMPE    HB 4166   0.659   5.675   7.173
   71PMPE    C2 4167   0.581   5.755   6.989
   71PMPE    HS 4168   0.667   5.824   7.006
   71PMPE   O21 4169   0.460   5.819   6.942
   71PMPE   C21 4170   0.471   5.949   6.924
   71PMPE   O22 4171   0.572   6.015   6.940
   71PMPE   C22 4172   0.336   6.004   6.876
   71PMPE   H2R 4173   0.289   6.050   6.965
   71PMPE   H2S 4174   0.272   5.920   6.842
   71PMPE    C3 4175   0.620   5.661   6.880
   71PMPE    HX 4176   0.541   5.584   6.866
   71PMPE    HY 4177   0.715   5.615   6.909
   71PMPE   O31 4178   0.631   5.727   6.757
   71PMPE   C31 4179   0.736   5.797   6.747
   71PMPE   O32 4180   0.836   5.800   6.818
   71PMPE   C32 4181   0.705   5.870   6.626
   71PMPE   H2X 4182   0.635   5.955   6.638
   71PMPE   H2Y 4183   0.693   5.808   6.533
   71PMPE   C23 4184   0.352   6.114   6.768
   71PMPE   H3R 4185   0.404   6.075   6.678
   71PMPE   H3S 4186   0.421   6.190   6.809
   71PMPE   C24 4187   0.223   6.189   6.730
   71PMPE   H4R 4188   0.250   6.272   6.661
   71PMPE   H4S 4189   0.171   6.228   6.819
   71PMPE   C25 4190   0.121   6.110   6.653
   71PMPE   H5R 4191   0.037   6.179   6.622
   71PMPE   H5S 4192   0.071   6.033   6.715
   71PMPE   C26 4193   0.187   6.048   6.529
   71PMPE   H6R 4194   0.241   6.116   6.463
   71PMPE   H6S 4195   0.090   6.047   6.480
   71PMPE   C27 4196   0.253   5.905   6.546
   71PMPE   H7R 4197   0.202   5.846   6.627
   71PMPE   H7S 4198   0.354   5.915   6.585
   71PMPE   C28 4199   0.252   5.813   6.420
   71PMPE   H8R 4200   0.274   5.861   6.325
   71PMPE   H8S 4201   0.160   5.754   6.411
   71PMPE   C29 4202   0.312   5.681   6.441
   71PMPE   H9R 4203   0.305   5.649   6.541
   71PMPE  C217 4204   0.456   5.691   6.416
   71PMPE  H17R 4205   0.496   5.655   6.511
   71PMPE  H17S 4206   0.482   5.776   6.358
   71PMPE  C210 4207   0.370   5.595   6.336
   71PMPE  H10R 4208   0.377   5.491   6.365
   71PMPE  C211 4209   0.326   5.628   6.198
   71PMPE  H11R 4210   0.365   5.726   6.165
   71PMPE  H11S 4211   0.215   5.627   6.186
   71PMPE  C212 4212   0.379   5.519   6.108
   71PMPE  H12R 4213   0.338   5.420   6.136
   71PMPE  H12S 4214   0.490   5.517   6.118
   71PMPE  C213 4215   0.331   5.558   5.973
   71PMPE  H13R 4216   0.359   5.486   5.895
   71PMPE  H13S 4217   0.364   5.661   5.943
   71PMPE  C214 4218   0.198   5.526   5.931
   71PMPE  H14R 4219   0.129   5.565   6.007
   71PMPE  H14S 4220   0.182   5.416   5.911
   71PMPE  C215 4221   0.192   5.609   5.805
   71PMPE  H15R 4222   0.222   5.714   5.805
   71PMPE  H15S 4223   0.084   5.618   5.812
   71PMPE  C216 4224   0.254   5.555   5.677
   71PMPE  H16R 4225   0.209   5.478   5.630
   71PMPE  H16S 4226   0.265   5.625   5.591
   71PMPE  H16T 4227   0.331   5.482   5.694
   71PMPE   C33 4228   0.814   5.944   6.593
   71PMPE   H3X 4229   0.899   5.871   6.603
   71PMPE   H3Y 4230   0.877   5.990   6.674
   71PMPE   C34 4231   0.748   6.010   6.450
   71PMPE   H4X 4232   0.800   6.081   6.387
   71PMPE   H4Y 4233   0.697   6.101   6.490
   71PMPE   C35 4234   0.757   5.961   6.292
   71PMPE   H5X 4235   0.773   6.041   6.215
   71PMPE   H5Y 4236   0.654   5.990   6.276
   71PMPE   C36 4237   0.852   5.837   6.220
   71PMPE   H6X 4238   0.841   5.742   6.272
   71PMPE   H6Y 4239   0.973   5.843   6.206
   71PMPE   C37 4240   0.839   5.815   6.097
   71PMPE   H7X 4241   0.934   5.758   6.065
   71PMPE   H7Y 4242   0.848   5.920   6.103
   71PMPE   C38 4243   0.700   5.785   6.097
   71PMPE   H8X 4244   0.635   5.866   6.134
   71PMPE   H8Y 4245   0.684   5.695   6.162
   71PMPE   C39 4246   0.688   5.782   5.952
   71PMPE   H9X 4247   0.698   5.879   5.902
   71PMPE   H9Y 4248   0.580   5.764   5.952
   71PMPE  C310 4249   0.801   5.688   5.903
   71PMPE  H10X 4250   0.796   5.602   5.977
   71PMPE  H10Y 4251   0.909   5.709   5.902
   71PMPE  C311 4252   0.816   5.663   5.754
   71PMPE  H11X 4253   0.722   5.637   5.759
   71PMPE  H11Y 4254   0.858   5.570   5.720
   71PMPE  C312 4255   0.773   5.757   5.642
   71PMPE  H12X 4256   0.863   5.815   5.644
   71PMPE  H12Y 4257   0.678   5.811   5.670
   71PMPE  C313 4258   0.760   5.684   5.507
   71PMPE  H13X 4259   0.671   5.637   5.496
   71PMPE  H13Y 4260   0.826   5.598   5.488
   71PMPE  C314 4261   0.690   5.749   5.390
   71PMPE  H14X 4262   0.592   5.797   5.422
   71PMPE  H14Y 4263   0.657   5.687   5.304
   71PMPE  C315 4264   0.809   5.814   5.342
   71PMPE  H15X 4265   0.898   5.748   5.353
   71PMPE  H15Y 4266   0.823   5.897   5.412
   71PMPE  C316 4267   0.788   5.835   5.197
   71PMPE  H16X 4268   0.778   5.743   5.137
   71PMPE  H16Y 4269   0.865   5.905   5.159
   71PMPE  H16Z 4270   0.684   5.866   5.189
   72PMPE     N 4271   7.621   6.133   7.605
   72PMPE   HN1 4272   7.722   6.117   7.583
   72PMPE   HN2 4273   7.595   6.229   7.574
   72PMPE   HN3 4274   7.603   6.126   7.707
   72PMPE   C12 4275   7.536   6.029   7.534
   72PMPE  H12A 4276   7.429   6.053   7.552
   72PMPE  H12B 4277   7.560   5.932   7.583
   72PMPE   C11 4278   7.559   6.021   7.382
   72PMPE  H11A 4279   7.531   6.116   7.333
   72PMPE  H11B 4280   7.494   5.942   7.336
   72PMPE     P 4281   7.756   5.854   7.335
   72PMPE   O13 4282   7.706   5.781   7.454
   72PMPE   O14 4283   7.900   5.874   7.317
   72PMPE   O11 4284   7.685   5.818   7.198
   72PMPE   O12 4285   7.697   5.999   7.356
   72PMPE    C1 4286   7.595   5.709   7.186
   72PMPE    HA 4287   7.535   5.724   7.093
   72PMPE    HB 4288   7.524   5.707   7.272
   72PMPE    C2 4289   7.675   5.576   7.172
   72PMPE    HS 4290   7.730   5.560   7.268
   72PMPE   O21 4291   7.757   5.585   7.054
   72PMPE   C21 4292   7.884   5.580   7.083
   72PMPE   O22 4293   7.936   5.555   7.190
   72PMPE   C22 4294   7.958   5.624   6.962
   72PMPE   H2R 4295   7.906   5.587   6.871
   72PMPE   H2S 4296   8.058   5.579   6.973
   72PMPE    C3 4297   7.598   5.444   7.161
   72PMPE    HX 4298   7.533   5.423   7.245
   72PMPE    HY 4299   7.672   5.362   7.157
   72PMPE   O31 4300   7.509   5.437   7.054
   72PMPE   C31 4301   7.533   5.335   6.957
   72PMPE   O32 4302   7.647   5.309   6.927
   72PMPE   C32 4303   7.395   5.316   6.848
   72PMPE   H2X 4304   7.365   5.390   6.929
   72PMPE   H2Y 4305   7.316   5.256   6.854
   72PMPE   C23 4306   7.975   5.777   6.968
   72PMPE   H3R 4307   8.044   5.796   7.055
   72PMPE   H3S 4308   7.877   5.824   6.993
   72PMPE   C24 4309   8.029   5.840   6.840
   72PMPE   H4R 4310   8.138   5.818   6.833
   72PMPE   H4S 4311   8.017   5.950   6.853
   72PMPE   C25 4312   7.947   5.798   6.715
   72PMPE   H5R 4313   7.840   5.795   6.743
   72PMPE   H5S 4314   7.976   5.694   6.686
   72PMPE   C26 4315   7.947   5.888   6.591
   72PMPE   H6R 4316   7.959   5.997   6.615
   72PMPE   H6S 4317   7.861   5.870   6.526
   72PMPE   C27 4318   8.054   5.840   6.500
   72PMPE   H7R 4319   8.089   5.740   6.524
   72PMPE   H7S 4320   8.117   5.892   6.567
   72PMPE   C28 4321   8.058   5.868   6.344
   72PMPE   H8R 4322   7.963   5.826   6.315
   72PMPE   H8S 4323   8.129   5.807   6.285
   72PMPE   C29 4324   8.091   6.003   6.283
   72PMPE   H9R 4325   8.195   6.044   6.284
   72PMPE  C217 4326   7.979   6.103   6.300
   72PMPE  H17R 4327   8.017   6.197   6.337
   72PMPE  H17S 4328   7.885   6.063   6.332
   72PMPE  C210 4329   8.019   6.049   6.162
   72PMPE  H10R 4330   8.086   6.101   6.093
   72PMPE  C211 4331   7.930   5.950   6.093
   72PMPE  H11R 4332   7.868   6.007   6.020
   72PMPE  H11S 4333   7.863   5.899   6.163
   72PMPE  C212 4334   8.014   5.844   6.025
   72PMPE  H12R 4335   7.943   5.779   5.969
   72PMPE  H12S 4336   8.062   5.776   6.098
   72PMPE  C213 4337   8.128   5.900   5.937
   72PMPE  H13R 4338   8.187   5.810   5.911
   72PMPE  H13S 4339   8.202   5.960   5.992
   72PMPE  C214 4340   8.086   5.992   5.820
   72PMPE  H14R 4341   8.173   5.996   5.747
   72PMPE  H14S 4342   8.051   6.090   5.850
   72PMPE  C215 4343   7.970   5.948   5.742
   72PMPE  H15R 4344   7.967   5.992   5.637
   72PMPE  H15S 4345   7.870   5.920   5.782
   72PMPE  C216 4346   8.020   5.819   5.736
   72PMPE  H16R 4347   7.951   5.807   5.650
   72PMPE  H16S 4348   8.132   5.815   5.711
   72PMPE  H16T 4349   8.000   5.731   5.797
   72PMPE   C33 4350   7.369   5.356   6.660
   72PMPE   H3X 4351   7.269   5.327   6.624
   72PMPE   H3Y 4352   7.445   5.286   6.628
   72PMPE   C34 4353   7.369   5.507   6.550
   72PMPE   H4X 4354   7.452   5.581   6.545
   72PMPE   H4Y 4355   7.345   5.616   6.572
   72PMPE   C35 4356   7.392   5.499   6.410
   72PMPE   H5X 4357   7.292   5.507   6.369
   72PMPE   H5Y 4358   7.461   5.414   6.391
   72PMPE   C36 4359   7.476   5.611   6.363
   72PMPE   H6X 4360   7.512   5.539   6.286
   72PMPE   H6Y 4361   7.572   5.589   6.358
   72PMPE   C37 4362   7.447   5.766   6.363
   72PMPE   H7X 4363   7.525   5.827   6.311
   72PMPE   H7Y 4364   7.466   5.812   6.462
   72PMPE   C38 4365   7.304   5.796   6.313
   72PMPE   H8X 4366   7.285   5.903   6.331
   72PMPE   H8Y 4367   7.240   5.729   6.375
   72PMPE   C39 4368   7.260   5.773   6.166
   72PMPE   H9X 4369   7.151   5.765   6.156
   72PMPE   H9Y 4370   7.249   5.665   6.149
   72PMPE  C310 4371   7.326   5.875   6.060
   72PMPE  H10X 4372   7.430   5.869   6.033
   72PMPE  H10Y 4373   7.332   5.981   6.090
   72PMPE  C311 4374   7.287   5.856   5.914
   72PMPE  H11X 4375   7.224   5.933   5.927
   72PMPE  H11Y 4376   7.225   5.765   5.910
   72PMPE  C312 4377   7.370   5.887   5.782
   72PMPE  H12X 4378   7.327   5.833   5.693
   72PMPE  H12Y 4379   7.472   5.849   5.796
   72PMPE  C313 4380   7.435   6.012   5.742
   72PMPE  H13X 4381   7.522   6.039   5.808
   72PMPE  H13Y 4382   7.354   6.083   5.742
   72PMPE  C314 4383   7.480   6.012   5.599
   72PMPE  H14X 4384   7.411   5.951   5.533
   72PMPE  H14Y 4385   7.586   5.982   5.594
   72PMPE  C315 4386   7.490   6.154   5.563
   72PMPE  H15X 4387   7.562   6.197   5.635
   72PMPE  H15Y 4388   7.395   6.199   5.592
   72PMPE  C316 4389   7.524   6.175   5.416
   72PMPE  H16X 4390   7.506   6.280   5.388
   72PMPE  H16Y 4391   7.460   6.109   5.352
   72PMPE  H16Z 4392   7.630   6.147   5.397
   73PMPE     N 4393   7.626   2.038   7.278
   73PMPE   HN1 4394   7.693   2.033   7.198
   73PMPE   HN2 4395   7.658   2.111   7.345
   73PMPE   HN3 4396   7.621   1.946   7.326
   73PMPE   C12 4397   7.487   2.081   7.233
   73PMPE  H12A 4398   7.446   2.000   7.170
   73PMPE  H12B 4399   7.499   2.174   7.174
   73PMPE   C11 4400   7.394   2.113   7.353
   73PMPE  H11A 4401   7.362   2.018   7.401
   73PMPE  H11B 4402   7.299   2.159   7.315
   73PMPE     P 4403   7.413   2.344   7.471
   73PMPE   O13 4404   7.512   2.420   7.551
   73PMPE   O14 4405   7.276   2.334   7.524
   73PMPE   O11 4406   7.417   2.391   7.322
   73PMPE   O12 4407   7.463   2.194   7.450
   73PMPE    C1 4408   7.482   2.514   7.296
   73PMPE    HA 4409   7.591   2.504   7.283
   73PMPE    HB 4410   7.457   2.593   7.373
   73PMPE    C2 4411   7.427   2.571   7.168
   73PMPE    HS 4412   7.333   2.609   7.206
   73PMPE   O21 4413   7.420   2.473   7.059
   73PMPE   C21 4414   7.324   2.379   7.049
   73PMPE   O22 4415   7.229   2.361   7.123
   73PMPE   C22 4416   7.336   2.296   6.921
   73PMPE   H2R 4417   7.420   2.226   6.933
   73PMPE   H2S 4418   7.359   2.362   6.836
   73PMPE    C3 4419   7.509   2.697   7.127
   73PMPE    HX 4420   7.618   2.696   7.124
   73PMPE    HY 4421   7.474   2.780   7.191
   73PMPE   O31 4422   7.464   2.740   7.005
   73PMPE   C31 4423   7.493   2.680   6.905
   73PMPE   O32 4424   7.602   2.626   6.883
   73PMPE   C32 4425   7.380   2.727   6.808
   73PMPE   H2X 4426   7.384   2.825   6.776
   73PMPE   H2Y 4427   7.277   2.721   6.831
   73PMPE   C23 4428   7.205   2.215   6.889
   73PMPE   H3R 4429   7.113   2.276   6.908
   73PMPE   H3S 4430   7.199   2.127   6.955
   73PMPE   C24 4431   7.196   2.170   6.741
   73PMPE   H4R 4432   7.175   2.249   6.668
   73PMPE   H4S 4433   7.106   2.108   6.728
   73PMPE   C25 4434   7.327   2.112   6.690
   73PMPE   H5R 4435   7.351   2.028   6.759
   73PMPE   H5S 4436   7.410   2.186   6.699
   73PMPE   C26 4437   7.312   2.059   6.547
   73PMPE   H6R 4438   7.231   1.983   6.554
   73PMPE   H6S 4439   7.405   2.005   6.521
   73PMPE   C27 4440   7.274   2.157   6.434
   73PMPE   H7R 4441   7.277   2.260   6.466
   73PMPE   H7S 4442   7.166   2.148   6.409
   73PMPE   C28 4443   7.363   2.148   6.309
   73PMPE   H8R 4444   7.329   2.224   6.235
   73PMPE   H8S 4445   7.345   2.049   6.264
   73PMPE   C29 4446   7.515   2.163   6.337
   73PMPE   H9R 4447   7.556   2.124   6.431
   73PMPE  C217 4448   7.554   2.307   6.321
   73PMPE  H17R 4449   7.624   2.338   6.399
   73PMPE  H17S 4450   7.466   2.361   6.287
   73PMPE  C210 4451   7.614   2.211   6.232
   73PMPE  H10R 4452   7.719   2.188   6.257
   73PMPE  C211 4453   7.568   2.228   6.091
   73PMPE  H11R 4454   7.640   2.284   6.027
   73PMPE  H11S 4455   7.473   2.282   6.092
   73PMPE  C212 4456   7.547   2.089   6.036
   73PMPE  H12R 4457   7.464   2.037   6.087
   73PMPE  H12S 4458   7.643   2.038   6.057
   73PMPE  C213 4459   7.529   2.085   5.886
   73PMPE  H13R 4460   7.579   1.995   5.845
   73PMPE  H13S 4461   7.592   2.166   5.854
   73PMPE  C214 4462   7.383   2.081   5.836
   73PMPE  H14R 4463   7.325   2.176   5.845
   73PMPE  H14S 4464   7.325   2.018   5.904
   73PMPE  C215 4465   7.377   2.026   5.693
   73PMPE  H15R 4466   7.452   1.944   5.687
   73PMPE  H15S 4467   7.406   2.103   5.618
   73PMPE  C216 4468   7.240   1.971   5.654
   73PMPE  H16R 4469   7.165   2.053   5.654
   73PMPE  H16S 4470   7.246   1.926   5.553
   73PMPE  H16T 4471   7.207   1.893   5.725
   73PMPE   C33 4472   7.404   2.683   6.680
   73PMPE   H3X 4473   7.437   2.584   6.715
   73PMPE   H3Y 4474   7.513   2.668   6.682
   73PMPE   C34 4475   7.293   2.698   6.520
   73PMPE   H4X 4476   7.254   2.779   6.578
   73PMPE   H4Y 4477   7.223   2.767   6.482
   73PMPE   C35 4478   7.296   2.604   6.372
   73PMPE   H5X 4479   7.236   2.516   6.349
   73PMPE   H5Y 4480   7.396   2.551   6.338
   73PMPE   C36 4481   7.309   2.662   6.252
   73PMPE   H6X 4482   7.394   2.702   6.228
   73PMPE   H6Y 4483   7.250   2.752   6.263
   73PMPE   C37 4484   7.342   2.555   6.153
   73PMPE   H7X 4485   7.312   2.617   6.074
   73PMPE   H7Y 4486   7.291   2.458   6.164
   73PMPE   C38 4487   7.464   2.540   6.084
   73PMPE   H8X 4488   7.556   2.507   6.133
   73PMPE   H8Y 4489   7.508   2.636   6.058
   73PMPE   C39 4490   7.390   2.464   5.968
   73PMPE   H9X 4491   7.300   2.509   5.916
   73PMPE   H9Y 4492   7.359   2.361   5.974
   73PMPE  C310 4493   7.489   2.467   5.878
   73PMPE  H10X 4494   7.586   2.467   5.930
   73PMPE  H10Y 4495   7.506   2.578   5.879
   73PMPE  C311 4496   7.457   2.377   5.745
   73PMPE  H11X 4497   7.364   2.405   5.685
   73PMPE  H11Y 4498   7.442   2.295   5.802
   73PMPE  C312 4499   7.572   2.287   5.669
   73PMPE  H12X 4500   7.660   2.296   5.734
   73PMPE  H12Y 4501   7.533   2.379   5.633
   73PMPE  C313 4502   7.640   2.238   5.524
   73PMPE  H13X 4503   7.595   2.270   5.428
   73PMPE  H13Y 4504   7.628   2.135   5.558
   73PMPE  C314 4505   7.789   2.239   5.459
   73PMPE  H14X 4506   7.841   2.313   5.399
   73PMPE  H14Y 4507   7.781   2.174   5.368
   73PMPE  C315 4508   7.906   2.212   5.545
   73PMPE  H15X 4509   7.930   2.284   5.626
   73PMPE  H15Y 4510   7.999   2.216   5.480
   73PMPE  C316 4511   7.878   2.080   5.603
   73PMPE  H16X 4512   7.857   2.002   5.527
   73PMPE  H16Y 4513   7.814   2.072   5.692
   73PMPE  H16Z 4514   7.974   2.076   5.648
   74PMPE     N 4515  -0.009   4.377   7.665
   74PMPE   HN1 4516   0.064   4.449   7.643
   74PMPE   HN2 4517  -0.088   4.421   7.715
   74PMPE   HN3 4518   0.035   4.302   7.721
   74PMPE   C12 4519  -0.053   4.318   7.533
   74PMPE  H12A 4520  -0.159   4.333   7.518
   74PMPE  H12B 4521  -0.031   4.210   7.533
   74PMPE   C11 4522   0.013   4.393   7.418
   74PMPE  H11A 4523  -0.017   4.500   7.421
   74PMPE  H11B 4524  -0.026   4.349   7.322
   74PMPE     P 4525   0.248   4.389   7.307
   74PMPE   O13 4526   0.386   4.383   7.361
   74PMPE   O14 4527   0.205   4.507   7.230
   74PMPE   O11 4528   0.206   4.258   7.226
   74PMPE   O12 4529   0.153   4.378   7.434
   74PMPE    C1 4530   0.214   4.127   7.283
   74PMPE    HA 4531   0.148   4.119   7.372
   74PMPE    HB 4532   0.319   4.108   7.314
   74PMPE    C2 4533   0.169   4.013   7.185
   74PMPE    HS 4534   0.223   3.919   7.212
   74PMPE   O21 4535   0.196   4.048   7.049
   74PMPE   C21 4536   0.321   4.050   7.018
   74PMPE   O22 4537   0.415   4.005   7.082
   74PMPE   C22 4538   0.324   4.097   6.874
   74PMPE   H2R 4539   0.239   4.163   6.850
   74PMPE   H2S 4540   0.303   4.004   6.821
   74PMPE    C3 4541   0.017   3.982   7.195
   74PMPE    HX 4542  -0.004   3.959   7.301
   74PMPE    HY 4543  -0.007   3.888   7.138
   74PMPE   O31 4544  -0.065   4.095   7.155
   74PMPE   C31 4545  -0.111   4.093   7.030
   74PMPE   O32 4546  -0.090   4.007   6.947
   74PMPE   C32 4547  -0.201   4.215   7.006
   74PMPE   H2X 4548  -0.156   4.304   7.054
   74PMPE   H2Y 4549  -0.296   4.193   7.058
   74PMPE   C23 4550   0.455   4.166   6.834
   74PMPE   H3R 4551   0.455   4.165   6.722
   74PMPE   H3S 4552   0.545   4.115   6.874
   74PMPE   C24 4553   0.459   4.314   6.864
   74PMPE   H4R 4554   0.444   4.328   6.973
   74PMPE   H4S 4555   0.372   4.357   6.809
   74PMPE   C25 4556   0.595   4.376   6.823
   74PMPE   H5R 4557   0.675   4.315   6.869
   74PMPE   H5S 4558   0.602   4.479   6.863
   74PMPE   C26 4559   0.627   4.375   6.674
   74PMPE   H6R 4560   0.602   4.277   6.636
   74PMPE   H6S 4561   0.733   4.400   6.652
   74PMPE   C27 4562   0.544   4.472   6.599
   74PMPE   H7R 4563   0.579   4.571   6.638
   74PMPE   H7S 4564   0.436   4.462   6.621
   74PMPE   C28 4565   0.557   4.465   6.449
   74PMPE   H8R 4566   0.529   4.376   6.398
   74PMPE   H8S 4567   0.662   4.487   6.420
   74PMPE   C29 4568   0.455   4.567   6.416
   74PMPE   H9R 4569   0.419   4.623   6.506
   74PMPE  C217 4570   0.325   4.591   6.351
   74PMPE  H17R 4571   0.299   4.701   6.368
   74PMPE  H17S 4572   0.269   4.519   6.303
   74PMPE  C210 4573   0.445   4.585   6.268
   74PMPE  H10R 4574   0.401   4.672   6.215
   74PMPE  C211 4575   0.510   4.467   6.179
   74PMPE  H11R 4576   0.457   4.378   6.201
   74PMPE  H11S 4577   0.623   4.459   6.200
   74PMPE  C212 4578   0.500   4.466   6.020
   74PMPE  H12R 4579   0.571   4.421   5.950
   74PMPE  H12S 4580   0.574   4.538   6.034
   74PMPE  C213 4581   0.365   4.516   5.964
   74PMPE  H13R 4582   0.344   4.595   6.040
   74PMPE  H13S 4583   0.298   4.432   5.978
   74PMPE  C214 4584   0.314   4.555   5.820
   74PMPE  H14R 4585   0.292   4.658   5.832
   74PMPE  H14S 4586   0.209   4.584   5.797
   74PMPE  C215 4587   0.384   4.497   5.692
   74PMPE  H15R 4588   0.301   4.428   5.672
   74PMPE  H15S 4589   0.474   4.445   5.725
   74PMPE  C216 4590   0.421   4.547   5.547
   74PMPE  H16R 4591   0.514   4.503   5.534
   74PMPE  H16S 4592   0.431   4.654   5.561
   74PMPE  H16T 4593   0.464   4.628   5.482
   74PMPE   C33 4594  -0.236   4.240   6.856
   74PMPE   H3X 4595  -0.330   4.300   6.858
   74PMPE   H3Y 4596  -0.256   4.145   6.801
   74PMPE   C34 4597  -0.135   4.323   6.776
   74PMPE   H4X 4598  -0.081   4.394   6.841
   74PMPE   H4Y 4599  -0.194   4.385   6.704
   74PMPE   C35 4600  -0.039   4.235   6.695
   74PMPE   H5X 4601  -0.094   4.152   6.646
   74PMPE   H5Y 4602   0.036   4.187   6.761
   74PMPE   C36 4603   0.033   4.319   6.590
   74PMPE   H6X 4604   0.075   4.410   6.637
   74PMPE   H6Y 4605  -0.042   4.352   6.515
   74PMPE   C37 4606   0.149   4.242   6.527
   74PMPE   H7X 4607   0.119   4.139   6.501
   74PMPE   H7Y 4608   0.233   4.235   6.600
   74PMPE   C38 4609   0.200   4.310   6.402
   74PMPE   H8X 4610   0.283   4.376   6.435
   74PMPE   H8Y 4611   0.122   4.375   6.358
   74PMPE   C39 4612   0.242   4.210   6.296
   74PMPE   H9X 4613   0.188   4.114   6.305
   74PMPE   H9Y 4614   0.346   4.182   6.309
   74PMPE  C310 4615   0.217   4.260   6.155
   74PMPE  H10X 4616   0.266   4.191   6.083
   74PMPE  H10Y 4617   0.257   4.362   6.146
   74PMPE  C311 4618   0.071   4.255   6.117
   74PMPE  H11X 4619   0.009   4.303   6.196
   74PMPE  H11Y 4620   0.045   4.148   6.117
   74PMPE  C312 4621   0.051   4.303   5.974
   74PMPE  H12X 4622   0.118   4.243   5.910
   74PMPE  H12Y 4623   0.092   4.403   5.965
   74PMPE  C313 4624  -0.093   4.290   5.921
   74PMPE  H13X 4625  -0.158   4.368   5.967
   74PMPE  H13Y 4626  -0.133   4.193   5.949
   74PMPE  C314 4627  -0.110   4.293   5.769
   74PMPE  H14X 4628  -0.078   4.399   5.752
   74PMPE  H14Y 4629  -0.216   4.291   5.738
   74PMPE  C315 4630  -0.033   4.179   5.688
   74PMPE  H15X 4631  -0.034   4.081   5.736
   74PMPE  H15Y 4632   0.075   4.206   5.696
   74PMPE  C316 4633  -0.075   4.146   5.541
   74PMPE  H16X 4634  -0.053   4.219   5.467
   74PMPE  H16Y 4635  -0.182   4.160   5.516
   74PMPE  H16Z 4636   0.000   4.094   5.477
   75PMPE     N 4637   7.007   7.291   7.459
   75PMPE   HN1 4638   6.947   7.308   7.374
   75PMPE   HN2 4639   7.104   7.315   7.433
   75PMPE   HN3 4640   7.000   7.192   7.492
   75PMPE   C12 4641   6.957   7.388   7.561
   75PMPE  H12A 4642   7.035   7.467   7.569
   75PMPE  H12B 4643   6.950   7.337   7.660
   75PMPE   C11 4644   6.823   7.441   7.509
   75PMPE  H11A 4645   6.789   7.529   7.570
   75PMPE  H11B 4646   6.745   7.363   7.520
   75PMPE     P 4647   6.869   7.620   7.330
   75PMPE   O13 4648   7.001   7.634   7.394
   75PMPE   O14 4649   6.754   7.702   7.372
   75PMPE   O11 4650   6.885   7.616   7.174
   75PMPE   O12 4651   6.832   7.471   7.369
   75PMPE    C1 4652   6.852   7.503   7.093
   75PMPE    HA 4653   6.769   7.442   7.137
   75PMPE    HB 4654   6.941   7.440   7.077
   75PMPE    C2 4655   6.798   7.552   6.958
   75PMPE    HS 4656   6.760   7.466   6.899
   75PMPE   O21 4657   6.898   7.623   6.880
   75PMPE   C21 4658   6.997   7.553   6.829
   75PMPE   O22 4659   7.009   7.432   6.831
   75PMPE   C22 4660   7.096   7.652   6.767
   75PMPE   H2R 4661   7.158   7.695   6.849
   75PMPE   H2S 4662   7.040   7.736   6.722
   75PMPE    C3 4663   6.679   7.647   6.990
   75PMPE    HX 4664   6.714   7.728   7.056
   75PMPE    HY 4665   6.594   7.594   7.039
   75PMPE   O31 4666   6.635   7.713   6.875
   75PMPE   C31 4667   6.594   7.634   6.784
   75PMPE   O32 4668   6.546   7.522   6.792
   75PMPE   C32 4669   6.599   7.723   6.664
   75PMPE   H2X 4670   6.506   7.772   6.695
   75PMPE   H2Y 4671   6.587   7.669   6.571
   75PMPE   C23 4672   7.190   7.583   6.667
   75PMPE   H3R 4673   7.244   7.500   6.719
   75PMPE   H3S 4674   7.265   7.654   6.631
   75PMPE   C24 4675   7.130   7.533   6.535
   75PMPE   H4R 4676   7.076   7.437   6.546
   75PMPE   H4S 4677   7.221   7.514   6.474
   75PMPE   C25 4678   7.049   7.633   6.453
   75PMPE   H5R 4679   7.058   7.602   6.346
   75PMPE   H5S 4680   7.093   7.735   6.456
   75PMPE   C26 4681   6.902   7.647   6.494
   75PMPE   H6R 4682   6.860   7.722   6.425
   75PMPE   H6S 4683   6.893   7.682   6.598
   75PMPE   C27 4684   6.817   7.522   6.481
   75PMPE   H7R 4685   6.710   7.539   6.504
   75PMPE   H7S 4686   6.850   7.448   6.557
   75PMPE   C28 4687   6.834   7.473   6.339
   75PMPE   H8R 4688   6.935   7.471   6.301
   75PMPE   H8S 4689   6.768   7.530   6.272
   75PMPE   C29 4690   6.793   7.334   6.337
   75PMPE   H9R 4691   6.693   7.336   6.373
   75PMPE  C217 4692   6.876   7.244   6.427
   75PMPE  H17R 4693   6.810   7.189   6.493
   75PMPE  H17S 4694   6.978   7.257   6.450
   75PMPE  C210 4695   6.869   7.221   6.273
   75PMPE  H10R 4696   6.861   7.112   6.272
   75PMPE  C211 4697   6.988   7.239   6.189
   75PMPE  H11R 4698   7.018   7.139   6.149
   75PMPE  H11S 4699   7.053   7.274   6.265
   75PMPE  C212 4700   6.972   7.341   6.079
   75PMPE  H12R 4701   7.062   7.396   6.061
   75PMPE  H12S 4702   6.920   7.428   6.115
   75PMPE  C213 4703   6.903   7.288   5.955
   75PMPE  H13R 4704   6.855   7.370   5.903
   75PMPE  H13S 4705   6.847   7.199   5.992
   75PMPE  C214 4706   6.963   7.236   5.831
   75PMPE  H14R 4707   6.909   7.154   5.785
   75PMPE  H14S 4708   7.018   7.167   5.896
   75PMPE  C215 4709   7.036   7.338   5.735
   75PMPE  H15R 4710   7.117   7.292   5.676
   75PMPE  H15S 4711   7.088   7.421   5.788
   75PMPE  C216 4712   6.952   7.391   5.627
   75PMPE  H16R 4713   6.913   7.301   5.576
   75PMPE  H16S 4714   6.874   7.452   5.674
   75PMPE  H16T 4715   7.014   7.451   5.558
   75PMPE   C33 4716   6.634   7.869   6.659
   75PMPE   H3X 4717   6.744   7.874   6.652
   75PMPE   H3Y 4718   6.589   7.933   6.740
   75PMPE   C34 4719   6.586   7.927   6.530
   75PMPE   H4X 4720   6.614   8.025   6.528
   75PMPE   H4Y 4721   6.483   7.969   6.521
   75PMPE   C35 4722   6.666   7.867   6.417
   75PMPE   H5X 4723   6.626   7.768   6.388
   75PMPE   H5Y 4724   6.773   7.884   6.434
   75PMPE   C36 4725   6.670   7.947   6.297
   75PMPE   H6X 4726   6.698   8.049   6.331
   75PMPE   H6Y 4727   6.564   7.922   6.279
   75PMPE   C37 4728   6.748   7.939   6.169
   75PMPE   H7X 4729   6.847   7.977   6.177
   75PMPE   H7Y 4730   6.717   7.992   6.075
   75PMPE   C38 4731   6.724   7.810   6.128
   75PMPE   H8X 4732   6.611   7.800   6.120
   75PMPE   H8Y 4733   6.738   7.738   6.211
   75PMPE   C39 4734   6.807   7.782   5.998
   75PMPE   H9X 4735   6.768   7.836   5.911
   75PMPE   H9Y 4736   6.809   7.682   5.950
   75PMPE  C310 4737   6.945   7.761   6.046
   75PMPE  H10X 4738   6.939   7.696   6.137
   75PMPE  H10Y 4739   6.974   7.864   6.074
   75PMPE  C311 4740   7.032   7.691   5.942
   75PMPE  H11X 4741   7.000   7.593   5.906
   75PMPE  H11Y 4742   7.122   7.669   6.003
   75PMPE  C312 4743   7.055   7.786   5.825
   75PMPE  H12X 4744   7.073   7.869   5.891
   75PMPE  H12Y 4745   6.967   7.818   5.767
   75PMPE  C313 4746   7.172   7.757   5.729
   75PMPE  H13X 4747   7.154   7.652   5.700
   75PMPE  H13Y 4748   7.270   7.760   5.781
   75PMPE  C314 4749   7.172   7.845   5.600
   75PMPE  H14X 4750   7.193   7.952   5.604
   75PMPE  H14Y 4751   7.070   7.856   5.563
   75PMPE  C315 4752   7.270   7.802   5.494
   75PMPE  H15X 4753   7.372   7.773   5.527
   75PMPE  H15Y 4754   7.282   7.880   5.415
   75PMPE  C316 4755   7.207   7.683   5.436
   75PMPE  H16X 4756   7.266   7.659   5.355
   75PMPE  H16Y 4757   7.132   7.708   5.366
   75PMPE  H16Z 4758   7.192   7.594   5.499
   76PMPE     N 4759   7.244   0.926   7.631
   76PMPE   HN1 4760   7.235   1.011   7.690
   76PMPE   HN2 4761   7.148   0.897   7.600
   76PMPE   HN3 4762   7.284   0.848   7.686
   76PMPE   C12 4763   7.328   0.959   7.509
   76PMPE  H12A 4764   7.430   0.985   7.543
   76PMPE  H12B 4765   7.282   1.048   7.463
   76PMPE   C11 4766   7.340   0.845   7.404
   76PMPE  H11A 4767   7.420   0.774   7.433
   76PMPE  H11B 4768   7.369   0.883   7.303
   76PMPE     P 4769   7.096   0.844   7.320
   76PMPE   O13 4770   7.136   0.976   7.269
   76PMPE   O14 4771   6.988   0.838   7.422
   76PMPE   O11 4772   7.073   0.748   7.195
   76PMPE   O12 4773   7.218   0.774   7.395
   76PMPE    C1 4774   7.040   0.616   7.232
   76PMPE    HA 4775   6.959   0.630   7.307
   76PMPE    HB 4776   7.126   0.562   7.279
   76PMPE    C2 4777   6.968   0.520   7.133
   76PMPE    HS 4778   6.959   0.419   7.173
   76PMPE   O21 4779   7.040   0.506   7.013
   76PMPE   C21 4780   7.002   0.399   6.943
   76PMPE   O22 4781   6.948   0.301   6.989
   76PMPE   C22 4782   7.050   0.431   6.804
   76PMPE   H2R 4783   7.154   0.441   6.826
   76PMPE   H2S 4784   7.033   0.537   6.789
   76PMPE    C3 4785   6.826   0.578   7.113
   76PMPE    HX 4786   6.767   0.598   7.205
   76PMPE    HY 4787   6.757   0.511   7.059
   76PMPE   O31 4788   6.845   0.707   7.065
   76PMPE   C31 4789   6.866   0.713   6.941
   76PMPE   O32 4790   6.861   0.618   6.867
   76PMPE   C32 4791   6.880   0.857   6.898
   76PMPE   H2X 4792   6.978   0.881   6.936
   76PMPE   H2Y 4793   6.817   0.924   6.955
   76PMPE   C23 4794   6.993   0.372   6.673
   76PMPE   H3R 4795   7.048   0.280   6.656
   76PMPE   H3S 4796   7.028   0.433   6.587
   76PMPE   C24 4797   6.840   0.373   6.664
   76PMPE   H4R 4798   6.814   0.442   6.741
   76PMPE   H4S 4799   6.767   0.326   6.733
   76PMPE   C25 4800   6.751   0.325   6.541
   76PMPE   H5R 4801   6.653   0.346   6.574
   76PMPE   H5S 4802   6.734   0.230   6.481
   76PMPE   C26 4803   6.791   0.374   6.432
   76PMPE   H6R 4804   6.902   0.368   6.435
   76PMPE   H6S 4805   6.771   0.457   6.491
   76PMPE   C27 4806   6.685   0.358   6.317
   76PMPE   H7R 4807   6.589   0.358   6.360
   76PMPE   H7S 4808   6.743   0.264   6.294
   76PMPE   C28 4809   6.614   0.449   6.204
   76PMPE   H8R 4810   6.664   0.533   6.164
   76PMPE   H8S 4811   6.554   0.539   6.226
   76PMPE   C29 4812   6.588   0.373   6.081
   76PMPE   H9R 4813   6.528   0.295   6.107
   76PMPE  C217 4814   6.665   0.294   5.972
   76PMPE  H17R 4815   6.632   0.217   5.911
   76PMPE  H17S 4816   6.752   0.237   5.954
   76PMPE  C210 4817   6.620   0.449   5.952
   76PMPE  H10R 4818   6.521   0.476   5.918
   76PMPE  C211 4819   6.690   0.594   5.940
   76PMPE  H11R 4820   6.791   0.615   5.969
   76PMPE  H11S 4821   6.645   0.658   6.018
   76PMPE  C212 4822   6.672   0.676   5.812
   76PMPE  H12R 4823   6.718   0.777   5.829
   76PMPE  H12S 4824   6.562   0.682   5.804
   76PMPE  C213 4825   6.729   0.625   5.681
   76PMPE  H13R 4826   6.675   0.675   5.603
   76PMPE  H13S 4827   6.709   0.518   5.670
   76PMPE  C214 4828   6.877   0.651   5.658
   76PMPE  H14R 4829   6.911   0.616   5.752
   76PMPE  H14S 4830   6.920   0.748   5.682
   76PMPE  C215 4831   6.936   0.592   5.527
   76PMPE  H15R 4832   7.048   0.588   5.529
   76PMPE  H15S 4833   6.910   0.666   5.450
   76PMPE  C216 4834   6.890   0.459   5.465
   76PMPE  H16R 4835   6.982   0.404   5.457
   76PMPE  H16S 4836   6.814   0.399   5.521
   76PMPE  H16T 4837   6.887   0.446   5.357
   76PMPE   C33 4838   6.864   0.892   6.750
   76PMPE   H3X 4839   6.853   1.001   6.737
   76PMPE   H3Y 4840   6.775   0.855   6.697
   76PMPE   C34 4841   6.972   0.832   6.669
   76PMPE   H4X 4842   6.942   0.857   6.565
   76PMPE   H4Y 4843   6.979   0.721   6.687
   76PMPE   C35 4844   7.108   0.865   6.710
   76PMPE   H5X 4845   7.122   0.830   6.815
   76PMPE   H5Y 4846   7.117   0.974   6.698
   76PMPE   C36 4847   7.199   0.791   6.618
   76PMPE   H6X 4848   7.204   0.682   6.648
   76PMPE   H6Y 4849   7.299   0.835   6.630
   76PMPE   C37 4850   7.155   0.817   6.474
   76PMPE   H7X 4851   7.133   0.921   6.450
   76PMPE   H7Y 4852   7.069   0.751   6.444
   76PMPE   C38 4853   7.260   0.788   6.379
   76PMPE   H8X 4854   7.361   0.832   6.388
   76PMPE   H8Y 4855   7.219   0.797   6.274
   76PMPE   C39 4856   7.275   0.651   6.417
   76PMPE   H9X 4857   7.190   0.593   6.459
   76PMPE   H9Y 4858   7.379   0.638   6.466
   76PMPE  C310 4859   7.274   0.576   6.298
   76PMPE  H10X 4860   7.343   0.501   6.333
   76PMPE  H10Y 4861   7.327   0.654   6.244
   76PMPE  C311 4862   7.164   0.518   6.211
   76PMPE  H11X 4863   7.117   0.604   6.164
   76PMPE  H11Y 4864   7.112   0.463   6.292
   76PMPE  C312 4865   7.190   0.420   6.091
   76PMPE  H12X 4866   7.116   0.339   6.090
   76PMPE  H12Y 4867   7.239   0.330   6.102
   76PMPE  C313 4868   7.236   0.471   5.950
   76PMPE  H13X 4869   7.322   0.531   5.939
   76PMPE  H13Y 4870   7.165   0.541   5.906
   76PMPE  C314 4871   7.258   0.358   5.851
   76PMPE  H14X 4872   7.230   0.255   5.871
   76PMPE  H14Y 4873   7.355   0.339   5.860
   76PMPE  C315 4874   7.265   0.410   5.712
   76PMPE  H15X 4875   7.261   0.519   5.704
   76PMPE  H15Y 4876   7.169   0.380   5.700
   76PMPE  C316 4877   7.327   0.332   5.600
   76PMPE  H16X 4878   7.277   0.236   5.575
   76PMPE  H16Y 4879   7.426   0.303   5.625
   76PMPE  H16Z 4880   7.328   0.398   5.512
   77PMPE     N 4881   0.405   6.599   7.596
   77PMPE   HN1 4882   0.330   6.672   7.606
   77PMPE   HN2 4883   0.401   6.529   7.675
   77PMPE   HN3 4884   0.500   6.643   7.601
   77PMPE   C12 4885   0.391   6.537   7.458
   77PMPE  H12A 4886   0.435   6.435   7.464
   77PMPE  H12B 4887   0.455   6.599   7.391
   77PMPE   C11 4888   0.247   6.522   7.400
   77PMPE  H11A 4889   0.200   6.432   7.444
   77PMPE  H11B 4890   0.257   6.499   7.291
   77PMPE     P 4891   0.013   6.625   7.348
   77PMPE   O13 4892  -0.080   6.719   7.415
   77PMPE   O14 4893  -0.023   6.482   7.338
   77PMPE   O11 4894   0.046   6.678   7.204
   77PMPE   O12 4895   0.159   6.634   7.421
   77PMPE    C1 4896   0.116   6.801   7.195
   77PMPE    HA 4897   0.215   6.798   7.244
   77PMPE    HB 4898   0.056   6.887   7.236
   77PMPE    C2 4899   0.148   6.827   7.049
   77PMPE    HS 4900   0.162   6.938   7.042
   77PMPE   O21 4901   0.049   6.801   6.959
   77PMPE   C21 4902  -0.055   6.856   6.975
   77PMPE   O22 4903  -0.095   6.942   7.052
   77PMPE   C22 4904  -0.120   6.805   6.856
   77PMPE   H2R 4905  -0.211   6.826   6.915
   77PMPE   H2S 4906  -0.127   6.696   6.841
   77PMPE    C3 4907   0.258   6.745   6.986
   77PMPE    HX 4908   0.225   6.642   6.963
   77PMPE    HY 4909   0.346   6.728   7.048
   77PMPE   O31 4910   0.284   6.820   6.868
   77PMPE   C31 4911   0.293   6.769   6.751
   77PMPE   O32 4912   0.299   6.649   6.727
   77PMPE   C32 4913   0.328   6.882   6.646
   77PMPE   H2X 4914   0.414   6.943   6.674
   77PMPE   H2Y 4915   0.252   6.961   6.656
   77PMPE   C23 4916  -0.075   6.886   6.728
   77PMPE   H3R 4917  -0.056   6.993   6.749
   77PMPE   H3S 4918  -0.145   6.918   6.650
   77PMPE   C24 4919  -0.003   6.811   6.619
   77PMPE   H4R 4920   0.082   6.781   6.678
   77PMPE   H4S 4921   0.025   6.886   6.543
   77PMPE   C25 4922  -0.062   6.686   6.549
   77PMPE   H5R 4923  -0.163   6.647   6.571
   77PMPE   H5S 4924  -0.004   6.602   6.590
   77PMPE   C26 4925  -0.050   6.693   6.396
   77PMPE   H6R 4926   0.056   6.715   6.373
   77PMPE   H6S 4927  -0.103   6.777   6.347
   77PMPE   C27 4928  -0.096   6.561   6.336
   77PMPE   H7R 4929  -0.203   6.541   6.365
   77PMPE   H7S 4930  -0.031   6.480   6.373
   77PMPE   C28 4931  -0.091   6.556   6.185
   77PMPE   H8R 4932  -0.002   6.604   6.139
   77PMPE   H8S 4933  -0.181   6.607   6.161
   77PMPE   C29 4934  -0.119   6.418   6.136
   77PMPE   H9R 4935  -0.203   6.363   6.183
   77PMPE  C217 4936   0.013   6.347   6.117
   77PMPE  H17R 4937   0.011   6.266   6.181
   77PMPE  H17S 4938   0.103   6.405   6.112
   77PMPE  C210 4939  -0.084   6.362   6.002
   77PMPE  H10R 4940  -0.144   6.275   5.971
   77PMPE  C211 4941  -0.022   6.443   5.893
   77PMPE  H11R 4942  -0.015   6.377   5.804
   77PMPE  H11S 4943   0.080   6.481   5.918
   77PMPE  C212 4944  -0.106   6.560   5.855
   77PMPE  H12R 4945  -0.046   6.601   5.770
   77PMPE  H12S 4946  -0.109   6.632   5.938
   77PMPE  C213 4947  -0.249   6.536   5.811
   77PMPE  H13R 4948  -0.289   6.628   5.768
   77PMPE  H13S 4949  -0.316   6.501   5.892
   77PMPE  C214 4950  -0.258   6.447   5.694
   77PMPE  H14R 4951  -0.363   6.444   5.653
   77PMPE  H14S 4952  -0.227   6.344   5.718
   77PMPE  C215 4953  -0.165   6.491   5.590
   77PMPE  H15R 4954  -0.057   6.467   5.599
   77PMPE  H15S 4955  -0.167   6.602   5.566
   77PMPE  C216 4956  -0.226   6.404   5.486
   77PMPE  H16R 4957  -0.187   6.312   5.442
   77PMPE  H16S 4958  -0.323   6.432   5.447
   77PMPE  H16T 4959  -0.167   6.467   5.434
   77PMPE   C33 4960   0.335   6.830   6.498
   77PMPE   H3X 4961   0.306   6.915   6.435
   77PMPE   H3Y 4962   0.262   6.747   6.500
   77PMPE   C34 4963   0.458   6.759   6.437
   77PMPE   H4X 4964   0.476   6.670   6.500
   77PMPE   H4Y 4965   0.548   6.820   6.430
   77PMPE   C35 4966   0.474   6.707   6.297
   77PMPE   H5X 4967   0.389   6.639   6.286
   77PMPE   H5Y 4968   0.574   6.655   6.294
   77PMPE   C36 4969   0.476   6.815   6.192
   77PMPE   H6X 4970   0.563   6.873   6.194
   77PMPE   H6Y 4971   0.397   6.889   6.211
   77PMPE   C37 4972   0.496   6.767   6.053
   77PMPE   H7X 4973   0.587   6.707   6.032
   77PMPE   H7Y 4974   0.499   6.859   5.989
   77PMPE   C38 4975   0.377   6.685   6.034
   77PMPE   H8X 4976   0.295   6.724   6.101
   77PMPE   H8Y 4977   0.379   6.577   6.054
   77PMPE   C39 4978   0.339   6.715   5.899
   77PMPE   H9X 4979   0.340   6.825   5.878
   77PMPE   H9Y 4980   0.244   6.656   5.891
   77PMPE  C310 4981   0.416   6.704   5.785
   77PMPE  H10X 4982   0.520   6.743   5.791
   77PMPE  H10Y 4983   0.367   6.763   5.702
   77PMPE  C311 4984   0.390   6.563   5.769
   77PMPE  H11X 4985   0.284   6.536   5.751
   77PMPE  H11Y 4986   0.439   6.491   5.840
   77PMPE  C312 4987   0.460   6.565   5.652
   77PMPE  H12X 4988   0.487   6.461   5.663
   77PMPE  H12Y 4989   0.553   6.597   5.677
   77PMPE  C313 4990   0.422   6.641   5.524
   77PMPE  H13X 4991   0.491   6.593   5.466
   77PMPE  H13Y 4992   0.491   6.728   5.511
   77PMPE  C314 4993   0.274   6.645   5.451
   77PMPE  H14X 4994   0.319   6.716   5.374
   77PMPE  H14Y 4995   0.225   6.713   5.522
   77PMPE  C315 4996   0.174   6.508   5.372
   77PMPE  H15X 4997   0.110   6.558   5.314
   77PMPE  H15Y 4998   0.122   6.487   5.466
   77PMPE  C316 4999   0.195   6.353   5.250
   77PMPE  H16X 5000   0.281   6.344   5.175
   77PMPE  H16Y 5001   0.167   6.256   5.292
   77PMPE  H16Z 5002   0.293   6.292   5.245
   78PMPE     N 5003   0.420   7.421   7.504
   78PMPE   HN1 5004   0.437   7.406   7.606
   78PMPE   HN2 5005   0.337   7.479   7.483
   78PMPE   HN3 5006   0.410   7.327   7.460
   78PMPE   C12 5007   0.543   7.471   7.436
   78PMPE  H12A 5008   0.553   7.580   7.453
   78PMPE  H12B 5009   0.527   7.452   7.327
   78PMPE   C11 5010   0.658   7.385   7.488
   78PMPE  H11A 5011   0.679   7.410   7.594
   78PMPE  H11B 5012   0.754   7.410   7.435
   78PMPE     P 5013   0.652   7.166   7.348
   78PMPE   O13 5014   0.711   7.034   7.377
   78PMPE   O14 5015   0.714   7.264   7.261
   78PMPE   O11 5016   0.515   7.154   7.278
   78PMPE   O12 5017   0.620   7.246   7.482
   78PMPE    C1 5018   0.413   7.077   7.335
   78PMPE    HA 5019   0.399   7.104   7.441
   78PMPE    HB 5020   0.444   6.970   7.331
   78PMPE    C2 5021   0.284   7.101   7.252
   78PMPE    HS 5022   0.214   7.021   7.285
   78PMPE   O21 5023   0.303   7.101   7.110
   78PMPE   C21 5024   0.387   7.014   7.061
   78PMPE   O22 5025   0.425   6.913   7.119
   78PMPE   C22 5026   0.407   7.056   6.915
   78PMPE   H2R 5027   0.371   7.157   6.901
   78PMPE   H2S 5028   0.335   7.014   6.847
   78PMPE    C3 5029   0.217   7.237   7.275
   78PMPE    HX 5030   0.181   7.250   7.378
   78PMPE    HY 5031   0.126   7.233   7.209
   78PMPE   O31 5032   0.313   7.342   7.241
   78PMPE   C31 5033   0.281   7.411   7.130
   78PMPE   O32 5034   0.167   7.431   7.093
   78PMPE   C32 5035   0.407   7.465   7.062
   78PMPE   H2X 5036   0.475   7.380   7.040
   78PMPE   H2Y 5037   0.459   7.535   7.131
   78PMPE   C23 5038   0.548   7.033   6.864
   78PMPE   H3R 5039   0.616   7.082   6.938
   78PMPE   H3S 5040   0.564   7.075   6.763
   78PMPE   C24 5041   0.594   6.889   6.863
   78PMPE   H4R 5042   0.575   6.838   6.960
   78PMPE   H4S 5043   0.700   6.917   6.836
   78PMPE   C25 5044   0.596   6.786   6.758
   78PMPE   H5R 5045   0.502   6.747   6.760
   78PMPE   H5S 5046   0.628   6.684   6.766
   78PMPE   C26 5047   0.636   6.836   6.629
   78PMPE   H6R 5048   0.576   6.920   6.591
   78PMPE   H6S 5049   0.631   6.735   6.579
   78PMPE   C27 5050   0.771   6.871   6.591
   78PMPE   H7R 5051   0.815   6.780   6.616
   78PMPE   H7S 5052   0.810   6.951   6.654
   78PMPE   C28 5053   0.791   6.886   6.441
   78PMPE   H8R 5054   0.754   6.800   6.379
   78PMPE   H8S 5055   0.903   6.882   6.439
   78PMPE   C29 5056   0.746   7.026   6.396
   78PMPE   H9R 5057   0.756   7.103   6.474
   78PMPE  C217 5058   0.607   7.052   6.337
   78PMPE  H17R 5059   0.558   7.145   6.351
   78PMPE  H17S 5060   0.543   6.974   6.342
   78PMPE  C210 5061   0.730   7.058   6.249
   78PMPE  H10R 5062   0.758   7.161   6.223
   78PMPE  C211 5063   0.765   6.955   6.142
   78PMPE  H11R 5064   0.746   6.993   6.039
   78PMPE  H11S 5065   0.729   6.850   6.144
   78PMPE  C212 5066   0.903   6.911   6.156
   78PMPE  H12R 5067   0.905   6.859   6.062
   78PMPE  H12S 5068   0.930   6.847   6.242
   78PMPE  C213 5069   1.002   7.004   6.117
   78PMPE  H13R 5070   1.094   6.939   6.114
   78PMPE  H13S 5071   1.008   7.087   6.190
   78PMPE  C214 5072   0.984   7.060   5.978
   78PMPE  H14R 5073   1.089   7.081   5.969
   78PMPE  H14S 5074   0.913   7.144   5.970
   78PMPE  C215 5075   0.986   6.975   5.854
   78PMPE  H15R 5076   0.891   6.930   5.877
   78PMPE  H15S 5077   1.075   6.907   5.855
   78PMPE  C216 5078   0.975   7.048   5.721
   78PMPE  H16R 5079   1.035   7.141   5.725
   78PMPE  H16S 5080   1.014   6.984   5.639
   78PMPE  H16T 5081   0.870   7.075   5.697
   78PMPE   C33 5082   0.371   7.538   6.931
   78PMPE   H3X 5083   0.459   7.596   6.897
   78PMPE   H3Y 5084   0.289   7.611   6.950
   78PMPE   C34 5085   0.332   7.439   6.819
   78PMPE   H4X 5086   0.264   7.489   6.747
   78PMPE   H4Y 5087   0.277   7.354   6.866
   78PMPE   C35 5088   0.450   7.380   6.740
   78PMPE   H5X 5089   0.410   7.298   6.676
   78PMPE   H5Y 5090   0.521   7.333   6.811
   78PMPE   C36 5091   0.521   7.480   6.647
   78PMPE   H6X 5092   0.544   7.574   6.701
   78PMPE   H6Y 5093   0.454   7.503   6.561
   78PMPE   C37 5094   0.646   7.420   6.583
   78PMPE   H7X 5095   0.621   7.324   6.534
   78PMPE   H7Y 5096   0.707   7.385   6.666
   78PMPE   C38 5097   0.723   7.511   6.485
   78PMPE   H8X 5098   0.814   7.454   6.454
   78PMPE   H8Y 5099   0.756   7.605   6.534
   78PMPE   C39 5100   0.651   7.552   6.356
   78PMPE   H9X 5101   0.728   7.596   6.288
   78PMPE   H9Y 5102   0.578   7.633   6.377
   78PMPE  C310 5103   0.581   7.433   6.290
   78PMPE  H10X 5104   0.483   7.417   6.341
   78PMPE  H10Y 5105   0.644   7.344   6.307
   78PMPE  C311 5106   0.555   7.451   6.140
   78PMPE  H11X 5107   0.655   7.458   6.090
   78PMPE  H11Y 5108   0.500   7.545   6.121
   78PMPE  C312 5109   0.478   7.335   6.075
   78PMPE  H12X 5110   0.370   7.336   6.101
   78PMPE  H12Y 5111   0.521   7.239   6.111
   78PMPE  C313 5112   0.492   7.342   5.923
   78PMPE  H13X 5113   0.597   7.317   5.898
   78PMPE  H13Y 5114   0.472   7.444   5.887
   78PMPE  C314 5115   0.395   7.246   5.855
   78PMPE  H14X 5116   0.290   7.283   5.867
   78PMPE  H14Y 5117   0.402   7.146   5.903
   78PMPE  C315 5118   0.423   7.224   5.708
   78PMPE  H15X 5119   0.415   7.321   5.653
   78PMPE  H15Y 5120   0.338   7.158   5.681
   78PMPE  C316 5121   0.551   7.148   5.674
   78PMPE  H16X 5122   0.586   7.159   5.570
   78PMPE  H16Y 5123   0.539   7.039   5.690
   78PMPE  H16Z 5124   0.632   7.188   5.738
   79PMPE     N 5125   7.737   1.206   7.460
   79PMPE   HN1 5126   7.822   1.250   7.416
   79PMPE   HN2 5127   7.761   1.124   7.517
   79PMPE   HN3 5128   7.674   1.181   7.381
   79PMPE   C12 5129   7.669   1.312   7.541
   79PMPE  H12A 5130   7.741   1.362   7.606
   79PMPE  H12B 5131   7.591   1.264   7.604
   79PMPE   C11 5132   7.617   1.424   7.451
   79PMPE  H11A 5133   7.602   1.518   7.511
   79PMPE  H11B 5134   7.517   1.392   7.415
   79PMPE     P 5135   7.825   1.551   7.350
   79PMPE   O13 5136   7.918   1.499   7.453
   79PMPE   O14 5137   7.772   1.689   7.361
   79PMPE   O11 5138   7.891   1.531   7.208
   79PMPE   O12 5139   7.705   1.445   7.341
   79PMPE    C1 5140   7.807   1.533   7.094
   79PMPE    HA 5141   7.818   1.629   7.039
   79PMPE    HB 5142   7.698   1.522   7.119
   79PMPE    C2 5143   7.841   1.415   7.001
   79PMPE    HS 5144   7.822   1.323   7.061
   79PMPE   O21 5145   7.978   1.423   6.954
   79PMPE   C21 5146   8.052   1.315   6.972
   79PMPE   O22 5147   8.018   1.212   7.028
   79PMPE   C22 5148   8.189   1.333   6.906
   79PMPE   H2R 5149   8.265   1.331   6.987
   79PMPE   H2S 5150   8.198   1.432   6.859
   79PMPE    C3 5151   7.742   1.414   6.882
   79PMPE    HX 5152   7.639   1.408   6.925
   79PMPE    HY 5153   7.765   1.321   6.825
   79PMPE   O31 5154   7.753   1.532   6.799
   79PMPE   C31 5155   7.687   1.518   6.685
   79PMPE   O32 5156   7.623   1.420   6.653
   79PMPE   C32 5157   7.701   1.646   6.601
   79PMPE   H2X 5158   7.637   1.723   6.648
   79PMPE   H2Y 5159   7.660   1.622   6.500
   79PMPE   C23 5160   8.216   1.220   6.805
   79PMPE   H3R 5161   8.180   1.120   6.840
   79PMPE   H3S 5162   8.325   1.212   6.789
   79PMPE   C24 5163   8.162   1.257   6.669
   79PMPE   H4R 5164   8.217   1.347   6.633
   79PMPE   H4S 5165   8.054   1.277   6.675
   79PMPE   C25 5166   8.178   1.147   6.569
   79PMPE   H5R 5167   8.149   1.047   6.609
   79PMPE   H5S 5168   8.289   1.145   6.555
   79PMPE   C26 5169   8.099   1.174   6.439
   79PMPE   H6R 5170   8.099   1.085   6.375
   79PMPE   H6S 5171   8.146   1.258   6.383
   79PMPE   C27 5172   7.948   1.179   6.449
   79PMPE   H7R 5173   7.924   1.270   6.505
   79PMPE   H7S 5174   7.918   1.086   6.505
   79PMPE   C28 5175   7.877   1.174   6.311
   79PMPE   H8R 5176   7.900   1.077   6.261
   79PMPE   H8S 5177   7.916   1.255   6.246
   79PMPE   C29 5178   7.727   1.194   6.332
   79PMPE   H9R 5179   7.694   1.281   6.391
   79PMPE  C217 5180   7.663   1.061   6.374
   79PMPE  H17R 5181   7.600   1.075   6.460
   79PMPE  H17S 5182   7.733   0.981   6.361
   79PMPE  C210 5183   7.618   1.133   6.247
   79PMPE  H10R 5184   7.520   1.183   6.256
   79PMPE  C211 5185   7.649   1.069   6.112
   79PMPE  H11R 5186   7.573   0.990   6.092
   79PMPE  H11S 5187   7.749   1.021   6.111
   79PMPE  C212 5188   7.644   1.176   6.002
   79PMPE  H12R 5189   7.698   1.267   6.034
   79PMPE  H12S 5190   7.538   1.204   5.980
   79PMPE  C213 5191   7.707   1.134   5.871
   79PMPE  H13R 5192   7.664   1.036   5.849
   79PMPE  H13S 5193   7.817   1.120   5.875
   79PMPE  C214 5194   7.667   1.231   5.763
   79PMPE  H14R 5195   7.697   1.336   5.784
   79PMPE  H14S 5196   7.557   1.230   5.748
   79PMPE  C215 5197   7.727   1.186   5.634
   79PMPE  H15R 5198   7.665   1.099   5.607
   79PMPE  H15S 5199   7.838   1.173   5.632
   79PMPE  C216 5200   7.693   1.279   5.532
   79PMPE  H16R 5201   7.587   1.271   5.501
   79PMPE  H16S 5202   7.707   1.376   5.585
   79PMPE  H16T 5203   7.758   1.275   5.441
   79PMPE   C33 5204   7.847   1.693   6.584
   79PMPE   H3X 5205   7.907   1.614   6.534
   79PMPE   H3Y 5206   7.892   1.714   6.684
   79PMPE   C34 5207   7.865   1.820   6.500
   79PMPE   H4X 5208   7.973   1.830   6.473
   79PMPE   H4Y 5209   7.834   1.905   6.564
   79PMPE   C35 5210   7.778   1.838   6.376
   79PMPE   H5X 5211   7.810   1.934   6.328
   79PMPE   H5Y 5212   7.672   1.849   6.409
   79PMPE   C36 5213   7.793   1.728   6.271
   79PMPE   H6X 5214   7.771   1.628   6.314
   79PMPE   H6Y 5215   7.899   1.731   6.238
   79PMPE   C37 5216   7.701   1.753   6.151
   79PMPE   H7X 5217   7.698   1.863   6.136
   79PMPE   H7Y 5218   7.598   1.718   6.175
   79PMPE   C38 5219   7.752   1.689   6.021
   79PMPE   H8X 5220   7.668   1.673   5.949
   79PMPE   H8Y 5221   7.795   1.589   6.045
   79PMPE   C39 5222   7.855   1.779   5.954
   79PMPE   H9X 5223   7.934   1.808   6.028
   79PMPE   H9Y 5224   7.804   1.874   5.924
   79PMPE  C310 5225   7.918   1.716   5.830
   79PMPE  H10X 5226   7.933   1.796   5.753
   79PMPE  H10Y 5227   7.848   1.642   5.788
   79PMPE  C311 5228   8.053   1.644   5.857
   79PMPE  H11X 5229   8.045   1.557   5.923
   79PMPE  H11Y 5230   8.109   1.716   5.923
   79PMPE  C312 5231   8.120   1.615   5.719
   79PMPE  H12X 5232   8.087   1.698   5.655
   79PMPE  H12Y 5233   8.072   1.533   5.662
   79PMPE  C313 5234   8.276   1.596   5.711
   79PMPE  H13X 5235   8.349   1.631   5.788
   79PMPE  H13Y 5236   8.326   1.609   5.614
   79PMPE  C314 5237   8.304   1.471   5.762
   79PMPE  H14X 5238   8.205   1.424   5.755
   79PMPE  H14Y 5239   8.297   1.482   5.875
   79PMPE  C315 5240   8.445   1.408   5.722
   79PMPE  H15X 5241   8.453   1.297   5.712
   79PMPE  H15Y 5242   8.500   1.364   5.800
   79PMPE  C316 5243   8.497   1.405   5.592
   79PMPE  H16X 5244   8.499   1.489   5.534
   79PMPE  H16Y 5245   8.396   1.393   5.561
   79PMPE  H16Z 5246   8.545   1.309   5.557
   80PMPE     N 5247   0.818   8.241   7.208
   80PMPE   HN1 5248   0.857   8.206   7.119
   80PMPE   HN2 5249   0.721   8.206   7.219
   80PMPE   HN3 5250   0.818   8.345   7.203
   80PMPE   C12 5251   0.909   8.193   7.320
   80PMPE  H12A 5252   0.863   8.225   7.416
   80PMPE  H12B 5253   1.003   8.251   7.311
   80PMPE   C11 5254   0.935   8.039   7.315
   80PMPE  H11A 5255   1.014   8.018   7.239
   80PMPE  H11B 5256   0.845   7.985   7.281
   80PMPE     P 5257   1.094   7.889   7.476
   80PMPE   O13 5258   1.058   7.751   7.437
   80PMPE   O14 5259   1.148   7.913   7.612
   80PMPE   O11 5260   1.199   7.939   7.373
   80PMPE   O12 5261   0.971   7.989   7.444
   80PMPE    C1 5262   1.285   8.049   7.398
   80PMPE    HA 5263   1.371   8.019   7.465
   80PMPE    HB 5264   1.236   8.138   7.443
   80PMPE    C2 5265   1.347   8.090   7.266
   80PMPE    HS 5266   1.417   8.177   7.284
   80PMPE   O21 5267   1.257   8.105   7.156
   80PMPE   C21 5268   1.222   8.228   7.140
   80PMPE   O22 5269   1.272   8.324   7.191
   80PMPE   C22 5270   1.109   8.231   7.038
   80PMPE   H2R 5271   1.024   8.171   7.073
   80PMPE   H2S 5272   1.150   8.183   6.947
   80PMPE    C3 5273   1.435   7.975   7.235
   80PMPE    HX 5274   1.495   7.955   7.326
   80PMPE    HY 5275   1.500   8.029   7.170
   80PMPE   O31 5276   1.378   7.851   7.190
   80PMPE   C31 5277   1.392   7.791   7.077
   80PMPE   O32 5278   1.461   7.814   6.983
   80PMPE   C32 5279   1.315   7.668   7.071
   80PMPE   H2X 5280   1.219   7.689   7.121
   80PMPE   H2Y 5281   1.373   7.592   7.126
   80PMPE   C23 5282   1.062   8.374   7.008
   80PMPE   H3R 5283   1.153   8.437   7.010
   80PMPE   H3S 5284   1.001   8.416   7.090
   80PMPE   C24 5285   0.998   8.389   6.869
   80PMPE   H4R 5286   1.078   8.372   6.795
   80PMPE   H4S 5287   0.966   8.494   6.853
   80PMPE   C25 5288   0.888   8.289   6.827
   80PMPE   H5R 5289   0.804   8.287   6.899
   80PMPE   H5S 5290   0.933   8.187   6.823
   80PMPE   C26 5291   0.831   8.322   6.687
   80PMPE   H6R 5292   0.784   8.423   6.692
   80PMPE   H6S 5293   0.751   8.250   6.663
   80PMPE   C27 5294   0.938   8.326   6.575
   80PMPE   H7R 5295   1.023   8.260   6.604
   80PMPE   H7S 5296   0.976   8.430   6.568
   80PMPE   C28 5297   0.899   8.284   6.432
   80PMPE   H8R 5298   0.874   8.175   6.423
   80PMPE   H8S 5299   0.985   8.305   6.366
   80PMPE   C29 5300   0.785   8.365   6.379
   80PMPE   H9R 5301   0.761   8.463   6.425
   80PMPE  C217 5302   0.672   8.272   6.348
   80PMPE  H17R 5303   0.584   8.304   6.308
   80PMPE  H17S 5304   0.673   8.166   6.349
   80PMPE  C210 5305   0.742   8.350   6.238
   80PMPE  H10R 5306   0.681   8.433   6.194
   80PMPE  C211 5307   0.796   8.247   6.150
   80PMPE  H11R 5308   0.793   8.146   6.197
   80PMPE  H11S 5309   0.900   8.276   6.127
   80PMPE  C212 5310   0.711   8.241   6.027
   80PMPE  H12R 5311   0.708   8.342   5.978
   80PMPE  H12S 5312   0.605   8.217   6.048
   80PMPE  C213 5313   0.781   8.142   5.936
   80PMPE  H13R 5314   0.875   8.180   5.894
   80PMPE  H13S 5315   0.702   8.138   5.863
   80PMPE  C214 5316   0.783   7.994   5.953
   80PMPE  H14R 5317   0.829   7.951   6.039
   80PMPE  H14S 5318   0.833   7.951   5.860
   80PMPE  C215 5319   0.643   7.956   5.962
   80PMPE  H15R 5320   0.561   8.027   5.995
   80PMPE  H15S 5321   0.635   7.853   6.007
   80PMPE  C216 5322   0.619   7.939   5.822
   80PMPE  H16R 5323   0.529   7.903   5.861
   80PMPE  H16S 5324   0.584   8.014   5.748
   80PMPE  H16T 5325   0.689   7.867   5.776
   80PMPE   C33 5326   1.306   7.635   6.921
   80PMPE   H3X 5327   1.260   7.534   6.916
   80PMPE   H3Y 5328   1.406   7.630   6.873
   80PMPE   C34 5329   1.247   7.742   6.828
   80PMPE   H4X 5330   1.309   7.833   6.823
   80PMPE   H4Y 5331   1.149   7.769   6.870
   80PMPE   C35 5332   1.236   7.697   6.683
   80PMPE   H5X 5333   1.194   7.601   6.696
   80PMPE   H5Y 5334   1.325   7.684   6.622
   80PMPE   C36 5335   1.150   7.780   6.591
   80PMPE   H6X 5336   1.211   7.870   6.577
   80PMPE   H6Y 5337   1.053   7.805   6.638
   80PMPE   C37 5338   1.123   7.706   6.459
   80PMPE   H7X 5339   1.059   7.621   6.486
   80PMPE   H7Y 5340   1.216   7.662   6.416
   80PMPE   C38 5341   1.048   7.791   6.356
   80PMPE   H8X 5342   0.952   7.825   6.401
   80PMPE   H8Y 5343   1.022   7.727   6.269
   80PMPE   C39 5344   1.132   7.911   6.309
   80PMPE   H9X 5345   1.225   7.871   6.266
   80PMPE   H9Y 5346   1.165   7.977   6.391
   80PMPE  C310 5347   1.066   8.003   6.206
   80PMPE  H10X 5348   0.989   8.062   6.258
   80PMPE  H10Y 5349   1.014   7.946   6.125
   80PMPE  C311 5350   1.168   8.106   6.154
   80PMPE  H11X 5351   1.258   8.112   6.219
   80PMPE  H11Y 5352   1.121   8.205   6.137
   80PMPE  C312 5353   1.220   8.062   6.024
   80PMPE  H12X 5354   1.129   8.050   5.960
   80PMPE  H12Y 5355   1.266   7.970   6.042
   80PMPE  C313 5356   1.352   8.104   5.962
   80PMPE  H13X 5357   1.386   8.060   5.865
   80PMPE  H13Y 5358   1.446   8.094   6.020
   80PMPE  C314 5359   1.306   8.229   5.919
   80PMPE  H14X 5360   1.377   8.246   5.845
   80PMPE  H14Y 5361   1.346   8.286   6.005
   80PMPE  C315 5362   1.164   8.241   5.848
   80PMPE  H15X 5363   1.112   8.334   5.817
   80PMPE  H15Y 5364   1.086   8.246   5.924
   80PMPE  C316 5365   1.159   8.196   5.703
   80PMPE  H16X 5366   1.146   8.090   5.692
   80PMPE  H16Y 5367   1.249   8.225   5.648
   80PMPE  H16Z 5368   1.073   8.243   5.654
   81PMPE     N 5369   7.930   0.948   7.557
   81PMPE   HN1 5370   8.029   0.914   7.549
   81PMPE   HN2 5371   7.933   1.050   7.541
   81PMPE   HN3 5372   7.896   0.932   7.655
   81PMPE   C12 5373   7.845   0.880   7.452
   81PMPE  H12A 5374   7.884   0.911   7.353
   81PMPE  H12B 5375   7.740   0.916   7.462
   81PMPE   C11 5376   7.848   0.728   7.467
   81PMPE  H11A 5377   7.772   0.682   7.399
   81PMPE  H11B 5378   7.819   0.695   7.569
   81PMPE     P 5379   8.012   0.563   7.340
   81PMPE   O13 5380   7.975   0.437   7.407
   81PMPE   O14 5381   8.149   0.584   7.291
   81PMPE   O11 5382   7.905   0.596   7.229
   81PMPE   O12 5383   7.981   0.683   7.441
   81PMPE    C1 5384   7.932   0.660   7.105
   81PMPE    HA 5385   8.040   0.667   7.080
   81PMPE    HB 5386   7.890   0.762   7.108
   81PMPE    C2 5387   7.856   0.579   6.999
   81PMPE    HS 5388   7.753   0.568   7.039
   81PMPE   O21 5389   7.927   0.451   6.987
   81PMPE   C21 5390   7.838   0.368   6.933
   81PMPE   O22 5391   7.731   0.407   6.894
   81PMPE   C22 5392   7.888   0.234   6.895
   81PMPE   H2R 5393   7.928   0.171   6.977
   81PMPE   H2S 5394   7.970   0.276   6.832
   81PMPE    C3 5395   7.843   0.650   6.863
   81PMPE    HX 5396   7.793   0.748   6.871
   81PMPE    HY 5397   7.791   0.592   6.782
   81PMPE   O31 5398   7.974   0.668   6.829
   81PMPE   C31 5399   7.984   0.739   6.729
   81PMPE   O32 5400   7.894   0.785   6.658
   81PMPE   C32 5401   8.122   0.720   6.701
   81PMPE   H2X 5402   8.154   0.617   6.732
   81PMPE   H2Y 5403   8.197   0.799   6.733
   81PMPE   C23 5404   7.807   0.155   6.787
   81PMPE   H3R 5405   7.703   0.142   6.811
   81PMPE   H3S 5406   7.842   0.048   6.785
   81PMPE   C24 5407   7.846   0.215   6.650
   81PMPE   H4R 5408   7.835   0.140   6.571
   81PMPE   H4S 5409   7.952   0.247   6.651
   81PMPE   C25 5410   7.783   0.340   6.599
   81PMPE   H5R 5411   7.792   0.417   6.677
   81PMPE   H5S 5412   7.683   0.307   6.583
   81PMPE   C26 5413   7.825   0.395   6.462
   81PMPE   H6R 5414   7.820   0.313   6.386
   81PMPE   H6S 5415   7.926   0.440   6.460
   81PMPE   C27 5416   7.734   0.510   6.422
   81PMPE   H7R 5417   7.781   0.581   6.352
   81PMPE   H7S 5418   7.692   0.564   6.512
   81PMPE   C28 5419   7.625   0.455   6.337
   81PMPE   H8R 5420   7.581   0.393   6.415
   81PMPE   H8S 5421   7.656   0.371   6.274
   81PMPE   C29 5422   7.550   0.570   6.263
   81PMPE   H9R 5423   7.525   0.657   6.323
   81PMPE  C217 5424   7.468   0.529   6.139
   81PMPE  H17R 5425   7.380   0.572   6.101
   81PMPE  H17S 5426   7.439   0.443   6.186
   81PMPE  C210 5427   7.579   0.622   6.125
   81PMPE  H10R 5428   7.511   0.702   6.081
   81PMPE  C211 5429   7.645   0.531   6.030
   81PMPE  H11R 5430   7.612   0.432   6.050
   81PMPE  H11S 5431   7.746   0.511   6.061
   81PMPE  C212 5432   7.607   0.567   5.888
   81PMPE  H12R 5433   7.498   0.577   5.869
   81PMPE  H12S 5434   7.643   0.496   5.809
   81PMPE  C213 5435   7.685   0.679   5.859
   81PMPE  H13R 5436   7.791   0.653   5.885
   81PMPE  H13S 5437   7.644   0.764   5.919
   81PMPE  C214 5438   7.676   0.692   5.716
   81PMPE  H14R 5439   7.575   0.682   5.668
   81PMPE  H14S 5440   7.741   0.613   5.671
   81PMPE  C215 5441   7.726   0.832   5.720
   81PMPE  H15R 5442   7.827   0.842   5.767
   81PMPE  H15S 5443   7.643   0.905   5.729
   81PMPE  C216 5444   7.772   0.871   5.602
   81PMPE  H16R 5445   7.784   0.974   5.574
   81PMPE  H16S 5446   7.731   0.890   5.513
   81PMPE  H16T 5447   7.683   0.812   5.557
   81PMPE   C33 5448   8.080   0.733   6.558
   81PMPE   H3X 5449   8.086   0.845   6.545
   81PMPE   H3Y 5450   8.022   0.650   6.509
   81PMPE   C34 5451   8.163   0.677   6.462
   81PMPE   H4X 5452   8.203   0.605   6.506
   81PMPE   H4Y 5453   8.242   0.745   6.527
   81PMPE   C35 5454   8.161   0.662   6.280
   81PMPE   H5X 5455   8.255   0.702   6.220
   81PMPE   H5Y 5456   8.183   0.735   6.195
   81PMPE   C36 5457   8.192   0.534   6.228
   81PMPE   H6X 5458   8.089   0.514   6.258
   81PMPE   H6Y 5459   8.240   0.457   6.280
   81PMPE   C37 5460   8.237   0.526   6.087
   81PMPE   H7X 5461   8.340   0.527   6.047
   81PMPE   H7Y 5462   8.218   0.615   6.026
   81PMPE   C38 5463   8.160   0.397   6.075
   81PMPE   H8X 5464   8.193   0.305   6.127
   81PMPE   H8Y 5465   8.162   0.368   5.976
   81PMPE   C39 5466   8.022   0.434   6.044
   81PMPE   H9X 5467   8.034   0.537   6.001
   81PMPE   H9Y 5468   7.970   0.431   6.141
   81PMPE  C310 5469   7.957   0.349   5.937
   81PMPE  H10X 5470   7.853   0.379   5.954
   81PMPE  H10Y 5471   7.965   0.240   5.960
   81PMPE  C311 5472   8.002   0.380   5.792
   81PMPE  H11X 5473   8.101   0.347   5.763
   81PMPE  H11Y 5474   8.002   0.488   5.768
   81PMPE  C312 5475   7.922   0.310   5.689
   81PMPE  H12X 5476   7.838   0.379   5.673
   81PMPE  H12Y 5477   7.898   0.205   5.720
   81PMPE  C313 5478   7.975   0.314   5.553
   81PMPE  H13X 5479   8.022   0.410   5.530
   81PMPE  H13Y 5480   7.909   0.311   5.469
   81PMPE  C314 5481   8.043   0.194   5.518
   81PMPE  H14X 5482   8.012   0.088   5.521
   81PMPE  H14Y 5483   8.113   0.200   5.596
   81PMPE  C315 5484   8.088   0.240   5.390
   81PMPE  H15X 5485   8.181   0.219   5.435
   81PMPE  H15Y 5486   8.130   0.340   5.367
   81PMPE  C316 5487   8.037   0.158   5.275
   81PMPE  H16X 5488   7.953   0.201   5.221
   81PMPE  H16Y 5489   8.048   0.047   5.279
   81PMPE  H16Z 5490   8.110   0.179   5.206
   82PMPE     N 5491   0.442  -0.110   7.585
   82PMPE   HN1 5492   0.469  -0.106   7.686
   82PMPE   HN2 5493   0.509  -0.170   7.534
   82PMPE   HN3 5494   0.447  -0.015   7.544
   82PMPE   C12 5495   0.300  -0.160   7.565
   82PMPE  H12A 5496   0.233  -0.079   7.599
   82PMPE  H12B 5497   0.286  -0.251   7.625
   82PMPE   C11 5498   0.265  -0.190   7.417
   82PMPE  H11A 5499   0.164  -0.237   7.408
   82PMPE  H11B 5500   0.336  -0.266   7.380
   82PMPE     P 5501   0.153   0.030   7.321
   82PMPE   O13 5502   0.183   0.134   7.420
   82PMPE   O14 5503   0.027  -0.048   7.335
   82PMPE   O11 5504   0.173   0.090   7.175
   82PMPE   O12 5505   0.276  -0.073   7.337
   82PMPE    C1 5506   0.302   0.114   7.117
   82PMPE    HA 5507   0.349   0.016   7.094
   82PMPE    HB 5508   0.367   0.173   7.185
   82PMPE    C2 5509   0.297   0.188   6.979
   82PMPE    HS 5510   0.267   0.295   6.999
   82PMPE   O21 5511   0.209   0.115   6.896
   82PMPE   C21 5512   0.096   0.164   6.894
   82PMPE   O22 5513   0.061   0.270   6.946
   82PMPE   C22 5514   0.032   0.072   6.785
   82PMPE   H2R 5515  -0.065   0.098   6.770
   82PMPE   H2S 5516   0.020  -0.032   6.818
   82PMPE    C3 5517   0.431   0.188   6.905
   82PMPE    HX 5518   0.443   0.084   6.869
   82PMPE    HY 5519   0.505   0.220   6.978
   82PMPE   O31 5520   0.443   0.274   6.794
   82PMPE   C31 5521   0.460   0.223   6.672
   82PMPE   O32 5522   0.492   0.111   6.642
   82PMPE   C32 5523   0.417   0.325   6.574
   82PMPE   H2X 5524   0.468   0.418   6.607
   82PMPE   H2Y 5525   0.306   0.321   6.563
   82PMPE   C23 5526   0.075   0.097   6.638
   82PMPE   H3R 5527   0.155   0.023   6.623
   82PMPE   H3S 5528   0.108   0.203   6.631
   82PMPE   C24 5529  -0.028   0.074   6.524
   82PMPE   H4R 5530  -0.075   0.170   6.489
   82PMPE   H4S 5531  -0.107   0.001   6.554
   82PMPE   C25 5532   0.033   0.046   6.390
   82PMPE   H5R 5533   0.091  -0.047   6.401
   82PMPE   H5S 5534   0.099   0.134   6.369
   82PMPE   C26 5535  -0.076   0.030   6.284
   82PMPE   H6R 5536  -0.152   0.111   6.290
   82PMPE   H6S 5537  -0.126  -0.068   6.304
   82PMPE   C27 5538  -0.024   0.025   6.142
   82PMPE   H7R 5539   0.029   0.121   6.126
   82PMPE   H7S 5540  -0.108   0.022   6.070
   82PMPE   C28 5541   0.071  -0.093   6.115
   82PMPE   H8R 5542   0.153  -0.097   6.191
   82PMPE   H8S 5543   0.117  -0.069   6.018
   82PMPE   C29 5544  -0.002  -0.228   6.102
   82PMPE   H9R 5545  -0.096  -0.229   6.045
   82PMPE  C217 5546   0.010  -0.326   6.218
   82PMPE  H17R 5547  -0.073  -0.394   6.229
   82PMPE  H17S 5548   0.076  -0.293   6.296
   82PMPE  C210 5549   0.077  -0.356   6.085
   82PMPE  H10R 5550   0.025  -0.431   6.023
   82PMPE  C211 5551   0.229  -0.353   6.083
   82PMPE  H11R 5552   0.268  -0.457   6.089
   82PMPE  H11S 5553   0.269  -0.297   6.171
   82PMPE  C212 5554   0.276  -0.284   5.955
   82PMPE  H12R 5555   0.298  -0.179   5.982
   82PMPE  H12S 5556   0.195  -0.282   5.880
   82PMPE  C213 5557   0.390  -0.354   5.881
   82PMPE  H13R 5558   0.387  -0.462   5.872
   82PMPE  H13S 5559   0.473  -0.341   5.956
   82PMPE  C214 5560   0.408  -0.301   5.732
   82PMPE  H14R 5561   0.399  -0.192   5.753
   82PMPE  H14S 5562   0.357  -0.241   5.659
   82PMPE  C215 5563   0.533  -0.350   5.658
   82PMPE  H15R 5564   0.501  -0.443   5.609
   82PMPE  H15S 5565   0.617  -0.385   5.724
   82PMPE  C216 5566   0.589  -0.246   5.559
   82PMPE  H16R 5567   0.663  -0.306   5.520
   82PMPE  H16S 5568   0.519  -0.205   5.486
   82PMPE  H16T 5569   0.668  -0.171   5.583
   82PMPE   C33 5570   0.464   0.333   6.439
   82PMPE   H3X 5571   0.444   0.227   6.416
   82PMPE   H3Y 5572   0.563   0.388   6.433
   82PMPE   C34 5573   0.379   0.387   6.333
   82PMPE   H4X 5574   0.425   0.488   6.343
   82PMPE   H4Y 5575   0.276   0.371   6.370
   82PMPE   C35 5576   0.412   0.398   6.189
   82PMPE   H5X 5577   0.503   0.447   6.152
   82PMPE   H5Y 5578   0.356   0.488   6.178
   82PMPE   C36 5579   0.372   0.272   6.118
   82PMPE   H6X 5580   0.282   0.227   6.165
   82PMPE   H6Y 5581   0.454   0.210   6.158
   82PMPE   C37 5582   0.387   0.280   5.965
   82PMPE   H7X 5583   0.415   0.181   5.927
   82PMPE   H7Y 5584   0.457   0.364   5.941
   82PMPE   C38 5585   0.267   0.309   5.878
   82PMPE   H8X 5586   0.249   0.390   5.805
   82PMPE   H8Y 5587   0.250   0.386   5.941
   82PMPE   C39 5588   0.170   0.192   5.876
   82PMPE   H9X 5589   0.061   0.206   5.882
   82PMPE   H9Y 5590   0.182   0.118   5.955
   82PMPE  C310 5591   0.192   0.154   5.738
   82PMPE  H10X 5592   0.297   0.164   5.720
   82PMPE  H10Y 5593   0.168   0.250   5.686
   82PMPE  C311 5594   0.121   0.020   5.712
   82PMPE  H11X 5595   0.013   0.033   5.697
   82PMPE  H11Y 5596   0.128  -0.039   5.805
   82PMPE  C312 5597   0.180  -0.072   5.604
   82PMPE  H12X 5598   0.135  -0.169   5.600
   82PMPE  H12Y 5599   0.285  -0.073   5.637
   82PMPE  C313 5600   0.169  -0.028   5.460
   82PMPE  H13X 5601   0.194   0.073   5.488
   82PMPE  H13Y 5602   0.071  -0.007   5.427
   82PMPE  C314 5603   0.232  -0.112   5.342
   82PMPE  H14X 5604   0.163  -0.195   5.327
   82PMPE  H14Y 5605   0.333  -0.150   5.373
   82PMPE  C315 5606   0.236  -0.063   5.195
   82PMPE  H15X 5607   0.149  -0.008   5.159
   82PMPE  H15Y 5608   0.281  -0.114   5.103
   82PMPE  C316 5609   0.360  -0.002   5.191
   82PMPE  H16X 5610   0.342   0.094   5.152
   82PMPE  H16Y 5611   0.411  -0.014   5.283
   82PMPE  H16Z 5612   0.405   0.097   5.209
   83PMPE     N 5613   2.573   3.826   3.359
   83PMPE   HN1 5614   2.659   3.814   3.302
   83PMPE   HN2 5615   2.541   3.731   3.389
   83PMPE   HN3 5616   2.503   3.867   3.293
   83PMPE   C12 5617   2.592   3.915   3.480
   83PMPE  H12A 5618   2.498   3.909   3.538
   83PMPE  H12B 5619   2.610   4.019   3.448
   83PMPE   C11 5620   2.710   3.869   3.565
   83PMPE  H11A 5621   2.721   3.933   3.655
   83PMPE  H11B 5622   2.803   3.880   3.507
   83PMPE     P 5623   2.800   3.644   3.664
   83PMPE   O13 5624   2.927   3.690   3.607
   83PMPE   O14 5625   2.760   3.504   3.645
   83PMPE   O11 5626   2.786   3.689   3.815
   83PMPE   O12 5627   2.686   3.733   3.598
   83PMPE    C1 5628   2.660   3.705   3.881
   83PMPE    HA 5629   2.574   3.674   3.817
   83PMPE    HB 5630   2.646   3.813   3.906
   83PMPE    C2 5631   2.653   3.623   4.012
   83PMPE    HS 5632   2.566   3.659   4.072
   83PMPE   O21 5633   2.778   3.636   4.084
   83PMPE   C21 5634   2.780   3.637   4.216
   83PMPE   O22 5635   2.685   3.623   4.291
   83PMPE   C22 5636   2.924   3.672   4.258
   83PMPE   H2R 5637   2.956   3.760   4.197
   83PMPE   H2S 5638   2.989   3.586   4.232
   83PMPE    C3 5639   2.625   3.475   3.973
   83PMPE    HX 5640   2.707   3.438   3.909
   83PMPE    HY 5641   2.531   3.473   3.912
   83PMPE   O31 5642   2.620   3.396   4.091
   83PMPE   C31 5643   2.507   3.339   4.121
   83PMPE   O32 5644   2.408   3.330   4.049
   83PMPE   C32 5645   2.529   3.271   4.255
   83PMPE   H2X 5646   2.629   3.289   4.298
   83PMPE   H2Y 5647   2.529   3.165   4.226
   83PMPE   C23 5648   2.939   3.713   4.406
   83PMPE   H3R 5649   2.871   3.798   4.429
   83PMPE   H3S 5650   3.044   3.748   4.422
   83PMPE   C24 5651   2.914   3.602   4.509
   83PMPE   H4R 5652   2.804   3.590   4.521
   83PMPE   H4S 5653   2.954   3.637   4.606
   83PMPE   C25 5654   2.986   3.471   4.471
   83PMPE   H5R 5655   3.087   3.501   4.437
   83PMPE   H5S 5656   2.937   3.420   4.385
   83PMPE   C26 5657   3.008   3.372   4.587
   83PMPE   H6R 5658   3.045   3.430   4.675
   83PMPE   H6S 5659   3.088   3.301   4.557
   83PMPE   C27 5660   2.887   3.288   4.628
   83PMPE   H7R 5661   2.893   3.189   4.579
   83PMPE   H7S 5662   2.793   3.334   4.592
   83PMPE   C28 5663   2.875   3.274   4.780
   83PMPE   H8R 5664   2.902   3.366   4.834
   83PMPE   H8S 5665   2.954   3.214   4.823
   83PMPE   C29 5666   2.739   3.217   4.815
   83PMPE   H9R 5667   2.697   3.135   4.755
   83PMPE  C217 5668   2.639   3.306   4.887
   83PMPE  H17R 5669   2.535   3.276   4.876
   83PMPE  H17S 5670   2.676   3.406   4.902
   83PMPE  C210 5671   2.718   3.200   4.961
   83PMPE  H10R 5672   2.654   3.117   4.998
   83PMPE  C211 5673   2.819   3.260   5.058
   83PMPE  H11R 5674   2.770   3.209   5.144
   83PMPE  H11S 5675   2.809   3.369   5.049
   83PMPE  C212 5676   2.975   3.252   5.075
   83PMPE  H12R 5677   3.035   3.263   4.988
   83PMPE  H12S 5678   2.997   3.157   5.107
   83PMPE  C213 5679   3.048   3.238   5.207
   83PMPE  H13R 5680   3.085   3.341   5.213
   83PMPE  H13S 5681   3.139   3.170   5.211
   83PMPE  C214 5682   2.946   3.182   5.308
   83PMPE  H14R 5683   2.918   3.085   5.344
   83PMPE  H14S 5684   2.850   3.217   5.301
   83PMPE  C215 5685   2.982   3.205   5.431
   83PMPE  H15R 5686   2.911   3.191   5.514
   83PMPE  H15S 5687   2.987   3.314   5.397
   83PMPE  C216 5688   3.097   3.122   5.460
   83PMPE  H16R 5689   3.112   3.020   5.487
   83PMPE  H16S 5690   3.181   3.153   5.394
   83PMPE  H16T 5691   3.098   3.165   5.563
   83PMPE   C33 5692   2.419   3.299   4.359
   83PMPE   H3X 5693   2.430   3.227   4.443
   83PMPE   H3Y 5694   2.319   3.278   4.315
   83PMPE   C34 5695   2.433   3.430   4.431
   83PMPE   H4X 5696   2.396   3.514   4.369
   83PMPE   H4Y 5697   2.542   3.447   4.445
   83PMPE   C35 5698   2.366   3.422   4.569
   83PMPE   H5X 5699   2.408   3.333   4.620
   83PMPE   H5Y 5700   2.260   3.399   4.575
   83PMPE   C36 5701   2.395   3.548   4.649
   83PMPE   H6X 5702   2.497   3.581   4.621
   83PMPE   H6Y 5703   2.401   3.516   4.754
   83PMPE   C37 5704   2.294   3.665   4.639
   83PMPE   H7X 5705   2.190   3.637   4.667
   83PMPE   H7Y 5706   2.291   3.703   4.534
   83PMPE   C38 5707   2.333   3.782   4.729
   83PMPE   H8X 5708   2.289   3.875   4.685
   83PMPE   H8Y 5709   2.444   3.795   4.728
   83PMPE   C39 5710   2.272   3.772   4.870
   83PMPE   H9X 5711   2.161   3.771   4.858
   83PMPE   H9Y 5712   2.298   3.863   4.929
   83PMPE  C310 5713   2.305   3.649   4.956
   83PMPE  H10X 5714   2.280   3.555   4.903
   83PMPE  H10Y 5715   2.238   3.651   5.045
   83PMPE  C311 5716   2.449   3.647   5.008
   83PMPE  H11X 5717   2.522   3.633   4.925
   83PMPE  H11Y 5718   2.456   3.556   5.070
   83PMPE  C312 5719   2.478   3.774   5.090
   83PMPE  H12X 5720   2.402   3.780   5.172
   83PMPE  H12Y 5721   2.475   3.867   5.031
   83PMPE  C313 5722   2.612   3.777   5.155
   83PMPE  H13X 5723   2.627   3.871   5.215
   83PMPE  H13Y 5724   2.699   3.764   5.086
   83PMPE  C314 5725   2.621   3.664   5.247
   83PMPE  H14X 5726   2.576   3.570   5.215
   83PMPE  H14Y 5727   2.550   3.675   5.330
   83PMPE  C315 5728   2.769   3.669   5.289
   83PMPE  H15X 5729   2.759   3.629   5.391
   83PMPE  H15Y 5730   2.790   3.777   5.288
   83PMPE  C316 5731   2.905   3.629   5.231
   83PMPE  H16X 5732   2.897   3.553   5.154
   83PMPE  H16Y 5733   2.968   3.590   5.316
   83PMPE  H16Z 5734   2.951   3.722   5.191
   84PMPE     N 5735   5.085   4.242   3.411
   84PMPE   HN1 5736   5.173   4.277   3.368
   84PMPE   HN2 5737   5.046   4.171   3.349
   84PMPE   HN3 5738   5.020   4.324   3.416
   84PMPE   C12 5739   5.106   4.182   3.547
   84PMPE  H12A 5740   5.149   4.260   3.613
   84PMPE  H12B 5741   5.179   4.100   3.535
   84PMPE   C11 5742   4.978   4.120   3.610
   84PMPE  H11A 5743   5.012   4.042   3.681
   84PMPE  H11B 5744   4.911   4.070   3.538
   84PMPE     P 5745   4.818   4.329   3.630
   84PMPE   O13 5746   4.734   4.264   3.527
   84PMPE   O14 5747   4.915   4.432   3.586
   84PMPE   O11 5748   4.733   4.380   3.753
   84PMPE   O12 5749   4.908   4.214   3.689
   84PMPE    C1 5750   4.654   4.285   3.827
   84PMPE    HA 5751   4.619   4.202   3.762
   84PMPE    HB 5752   4.561   4.335   3.862
   84PMPE    C2 5753   4.729   4.222   3.950
   84PMPE    HS 5754   4.680   4.266   4.041
   84PMPE   O21 5755   4.873   4.239   3.944
   84PMPE   C21 5756   4.916   4.347   4.004
   84PMPE   O22 5757   4.845   4.419   4.070
   84PMPE   C22 5758   5.068   4.367   3.987
   84PMPE   H2R 5759   5.104   4.453   4.047
   84PMPE   H2S 5760   5.089   4.389   3.880
   84PMPE    C3 5761   4.708   4.069   3.960
   84PMPE    HX 5762   4.760   4.024   3.873
   84PMPE    HY 5763   4.600   4.044   3.951
   84PMPE   O31 5764   4.771   4.019   4.080
   84PMPE   C31 5765   4.688   4.005   4.182
   84PMPE   O32 5766   4.567   4.008   4.176
   84PMPE   C32 5767   4.766   3.975   4.311
   84PMPE   H2X 5768   4.835   4.059   4.328
   84PMPE   H2Y 5769   4.824   3.883   4.301
   84PMPE   C23 5770   5.149   4.243   4.026
   84PMPE   H3R 5771   5.257   4.268   4.015
   84PMPE   H3S 5772   5.120   4.168   3.949
   84PMPE   C24 5773   5.114   4.180   4.162
   84PMPE   H4R 5774   5.143   4.073   4.155
   84PMPE   H4S 5775   5.004   4.179   4.179
   84PMPE   C25 5776   5.179   4.235   4.289
   84PMPE   H5R 5777   5.214   4.340   4.280
   84PMPE   H5S 5778   5.264   4.170   4.320
   84PMPE   C26 5779   5.079   4.229   4.402
   84PMPE   H6R 5780   5.036   4.126   4.408
   84PMPE   H6S 5781   4.996   4.299   4.377
   84PMPE   C27 5782   5.145   4.253   4.537
   84PMPE   H7R 5783   5.191   4.355   4.540
   84PMPE   H7S 5784   5.228   4.182   4.551
   84PMPE   C28 5785   5.042   4.226   4.644
   84PMPE   H8R 5786   5.080   4.237   4.748
   84PMPE   H8S 5787   4.981   4.135   4.634
   84PMPE   C29 5788   4.945   4.328   4.619
   84PMPE   H9R 5789   4.885   4.350   4.527
   84PMPE  C217 5790   5.015   4.449   4.663
   84PMPE  H17R 5791   5.015   4.509   4.573
   84PMPE  H17S 5792   5.102   4.453   4.726
   84PMPE  C210 5793   4.886   4.384   4.736
   84PMPE  H10R 5794   4.787   4.418   4.700
   84PMPE  C211 5795   4.905   4.353   4.894
   84PMPE  H11R 5796   5.007   4.383   4.927
   84PMPE  H11S 5797   4.888   4.246   4.908
   84PMPE  C212 5798   4.817   4.428   5.006
   84PMPE  H12R 5799   4.710   4.418   4.980
   84PMPE  H12S 5800   4.838   4.537   5.018
   84PMPE  C213 5801   4.839   4.384   5.153
   84PMPE  H13R 5802   4.914   4.302   5.150
   84PMPE  H13S 5803   4.741   4.346   5.190
   84PMPE  C214 5804   4.892   4.496   5.247
   84PMPE  H14R 5805   4.830   4.587   5.238
   84PMPE  H14S 5806   4.996   4.522   5.217
   84PMPE  C215 5807   4.901   4.465   5.398
   84PMPE  H15R 5808   4.964   4.374   5.414
   84PMPE  H15S 5809   4.800   4.447   5.439
   84PMPE  C216 5810   4.965   4.582   5.472
   84PMPE  H16R 5811   5.073   4.591   5.447
   84PMPE  H16S 5812   4.915   4.677   5.443
   84PMPE  H16T 5813   4.956   4.572   5.582
   84PMPE   C33 5814   4.672   3.948   4.428
   84PMPE   H3X 5815   4.656   3.838   4.434
   84PMPE   H3Y 5816   4.575   4.001   4.408
   84PMPE   C34 5817   4.712   4.006   4.562
   84PMPE   H4X 5818   4.618   4.018   4.623
   84PMPE   H4Y 5819   4.749   4.108   4.546
   84PMPE   C35 5820   4.821   3.934   4.638
   84PMPE   H5X 5821   4.923   3.948   4.602
   84PMPE   H5Y 5822   4.830   3.825   4.630
   84PMPE   C36 5823   4.799   3.982   4.779
   84PMPE   H6X 5824   4.697   3.980   4.824
   84PMPE   H6Y 5825   4.835   4.087   4.787
   84PMPE   C37 5826   4.889   3.905   4.860
   84PMPE   H7X 5827   4.988   3.915   4.809
   84PMPE   H7Y 5828   4.872   3.797   4.879
   84PMPE   C38 5829   4.894   3.976   4.986
   84PMPE   H8X 5830   4.801   4.021   5.026
   84PMPE   H8Y 5831   4.980   4.050   4.985
   84PMPE   C39 5832   4.926   3.883   5.088
   84PMPE   H9X 5833   5.012   3.845   5.079
   84PMPE   H9Y 5834   4.887   3.778   5.110
   84PMPE  C310 5835   5.007   3.968   5.179
   84PMPE  H10X 5836   4.987   3.878   5.245
   84PMPE  H10Y 5837   4.926   4.045   5.176
   84PMPE  C311 5838   5.139   4.063   5.201
   84PMPE  H11X 5839   5.127   4.141   5.128
   84PMPE  H11Y 5840   5.243   4.034   5.175
   84PMPE  C312 5841   5.196   4.109   5.342
   84PMPE  H12X 5842   5.121   4.183   5.368
   84PMPE  H12Y 5843   5.294   4.163   5.327
   84PMPE  C313 5844   5.239   4.004   5.448
   84PMPE  H13X 5845   5.314   3.935   5.413
   84PMPE  H13Y 5846   5.163   3.944   5.511
   84PMPE  C314 5847   5.248   4.028   5.571
   84PMPE  H14X 5848   5.362   4.004   5.564
   84PMPE  H14Y 5849   5.306   3.967   5.648
   84PMPE  C315 5850   5.159   4.175   5.584
   84PMPE  H15X 5851   5.190   4.262   5.523
   84PMPE  H15Y 5852   5.196   4.249   5.650
   84PMPE  C316 5853   5.034   4.212   5.663
   84PMPE  H16X 5854   4.974   4.222   5.582
   84PMPE  H16Y 5855   5.027   4.318   5.695
   84PMPE  H16Z 5856   5.004   4.141   5.743
   85PMPE     N 5857   4.001   2.486   3.305
   85PMPE   HN1 5858   3.976   2.554   3.229
   85PMPE   HN2 5859   4.101   2.495   3.334
   85PMPE   HN3 5860   3.980   2.390   3.271
   85PMPE   C12 5861   3.917   2.509   3.428
   85PMPE  H12A 5862   3.840   2.431   3.437
   85PMPE  H12B 5863   3.860   2.598   3.412
   85PMPE   C11 5864   3.995   2.516   3.557
   85PMPE  H11A 5865   3.935   2.565   3.637
   85PMPE  H11B 5866   4.090   2.574   3.546
   85PMPE     P 5867   4.114   2.330   3.699
   85PMPE   O13 5868   4.152   2.192   3.667
   85PMPE   O14 5869   4.054   2.359   3.830
   85PMPE   O11 5870   4.226   2.430   3.664
   85PMPE   O12 5871   4.015   2.379   3.587
   85PMPE    C1 5872   4.356   2.377   3.643
   85PMPE    HA 5873   4.399   2.409   3.545
   85PMPE    HB 5874   4.373   2.269   3.665
   85PMPE    C2 5875   4.437   2.437   3.746
   85PMPE    HS 5876   4.536   2.393   3.738
   85PMPE   O21 5877   4.390   2.405   3.875
   85PMPE   C21 5878   4.446   2.301   3.931
   85PMPE   O22 5879   4.540   2.233   3.892
   85PMPE   C22 5880   4.366   2.284   4.054
   85PMPE   H2R 5881   4.280   2.225   4.017
   85PMPE   H2S 5882   4.329   2.381   4.093
   85PMPE    C3 5883   4.435   2.589   3.722
   85PMPE    HX 5884   4.475   2.626   3.625
   85PMPE    HY 5885   4.518   2.583   3.792
   85PMPE   O31 5886   4.316   2.659   3.767
   85PMPE   C31 5887   4.304   2.726   3.879
   85PMPE   O32 5888   4.382   2.798   3.936
   85PMPE   C32 5889   4.165   2.744   3.924
   85PMPE   H2X 5890   4.102   2.658   3.900
   85PMPE   H2Y 5891   4.149   2.824   3.854
   85PMPE   C23 5892   4.438   2.215   4.166
   85PMPE   H3R 5893   4.491   2.283   4.233
   85PMPE   H3S 5894   4.507   2.133   4.133
   85PMPE   C24 5895   4.325   2.168   4.250
   85PMPE   H4R 5896   4.264   2.096   4.190
   85PMPE   H4S 5897   4.247   2.242   4.274
   85PMPE   C25 5898   4.380   2.112   4.379
   85PMPE   H5R 5899   4.469   2.044   4.367
   85PMPE   H5S 5900   4.286   2.059   4.403
   85PMPE   C26 5901   4.398   2.208   4.492
   85PMPE   H6R 5902   4.310   2.274   4.493
   85PMPE   H6S 5903   4.483   2.268   4.465
   85PMPE   C27 5904   4.426   2.143   4.627
   85PMPE   H7R 5905   4.492   2.208   4.688
   85PMPE   H7S 5906   4.479   2.046   4.614
   85PMPE   C28 5907   4.296   2.131   4.705
   85PMPE   H8R 5908   4.251   2.040   4.670
   85PMPE   H8S 5909   4.218   2.204   4.680
   85PMPE   C29 5910   4.316   2.124   4.853
   85PMPE   H9R 5911   4.394   2.184   4.904
   85PMPE  C217 5912   4.352   1.988   4.884
   85PMPE  H17R 5913   4.435   1.983   4.951
   85PMPE  H17S 5914   4.353   1.935   4.790
   85PMPE  C210 5915   4.218   2.041   4.934
   85PMPE  H10R 5916   4.211   2.074   5.039
   85PMPE  C211 5917   4.086   2.005   4.862
   85PMPE  H11R 5918   4.108   1.939   4.776
   85PMPE  H11S 5919   4.039   2.099   4.826
   85PMPE  C212 5920   3.975   1.939   4.946
   85PMPE  H12R 5921   4.014   1.849   4.994
   85PMPE  H12S 5922   3.893   1.907   4.878
   85PMPE  C213 5923   3.925   2.026   5.062
   85PMPE  H13R 5924   3.883   2.117   5.021
   85PMPE  H13S 5925   4.015   2.040   5.127
   85PMPE  C214 5926   3.814   1.968   5.150
   85PMPE  H14R 5927   3.875   1.884   5.159
   85PMPE  H14S 5928   3.730   1.911   5.106
   85PMPE  C215 5929   3.797   2.024   5.296
   85PMPE  H15R 5930   3.727   1.955   5.349
   85PMPE  H15S 5931   3.740   2.117   5.284
   85PMPE  C216 5932   3.923   2.054   5.388
   85PMPE  H16R 5933   4.000   1.979   5.410
   85PMPE  H16S 5934   3.994   2.124   5.342
   85PMPE  H16T 5935   3.897   2.062   5.496
   85PMPE   C33 5936   4.160   2.794   4.071
   85PMPE   H3X 5937   4.064   2.847   4.085
   85PMPE   H3Y 5938   4.239   2.866   4.104
   85PMPE   C34 5939   4.168   2.670   4.163
   85PMPE   H4X 5940   4.274   2.640   4.179
   85PMPE   H4Y 5941   4.114   2.588   4.111
   85PMPE   C35 5942   4.113   2.688   4.304
   85PMPE   H5X 5943   4.015   2.736   4.290
   85PMPE   H5Y 5944   4.174   2.767   4.349
   85PMPE   C36 5945   4.117   2.552   4.388
   85PMPE   H6X 5946   4.216   2.508   4.374
   85PMPE   H6Y 5947   4.043   2.484   4.338
   85PMPE   C37 5948   4.083   2.540   4.542
   85PMPE   H7X 5949   4.075   2.435   4.575
   85PMPE   H7Y 5950   3.983   2.557   4.583
   85PMPE   C38 5951   4.168   2.627   4.631
   85PMPE   H8X 5952   4.119   2.714   4.665
   85PMPE   H8Y 5953   4.255   2.667   4.578
   85PMPE   C39 5954   4.174   2.589   4.773
   85PMPE   H9X 5955   4.071   2.560   4.807
   85PMPE   H9Y 5956   4.210   2.675   4.837
   85PMPE  C310 5957   4.283   2.494   4.758
   85PMPE  H10X 5958   4.361   2.544   4.697
   85PMPE  H10Y 5959   4.240   2.406   4.706
   85PMPE  C311 5960   4.342   2.472   4.888
   85PMPE  H11X 5961   4.374   2.568   4.938
   85PMPE  H11Y 5962   4.429   2.405   4.881
   85PMPE  C312 5963   4.240   2.397   4.962
   85PMPE  H12X 5964   4.228   2.295   4.945
   85PMPE  H12Y 5965   4.132   2.429   4.949
   85PMPE  C313 5966   4.290   2.405   5.092
   85PMPE  H13X 5967   4.399   2.410   5.126
   85PMPE  H13Y 5968   4.268   2.305   5.138
   85PMPE  C314 5969   4.196   2.535   5.100
   85PMPE  H14X 5970   4.230   2.633   5.070
   85PMPE  H14Y 5971   4.281   2.542   5.173
   85PMPE  C315 5972   4.017   2.535   5.137
   85PMPE  H15X 5973   3.971   2.571   5.048
   85PMPE  H15Y 5974   3.983   2.621   5.203
   85PMPE  C316 5975   3.909   2.435   5.218
   85PMPE  H16X 5976   3.899   2.450   5.326
   85PMPE  H16Y 5977   3.935   2.331   5.242
   85PMPE  H16Z 5978   3.808   2.427   5.179
   86PMPE     N 5979   2.278   4.176   3.649
   86PMPE   HN1 5980   2.258   4.212   3.553
   86PMPE   HN2 5981   2.342   4.240   3.700
   86PMPE   HN3 5982   2.322   4.082   3.643
   86PMPE   C12 5983   2.147   4.166   3.722
   86PMPE  H12A 5984   2.168   4.162   3.830
   86PMPE  H12B 5985   2.099   4.071   3.689
   86PMPE   C11 5986   2.051   4.283   3.693
   86PMPE  H11A 5987   2.096   4.383   3.713
   86PMPE  H11B 5988   1.967   4.270   3.765
   86PMPE     P 5989   1.851   4.319   3.529
   86PMPE   O13 5990   1.770   4.196   3.543
   86PMPE   O14 5991   1.849   4.396   3.405
   86PMPE   O11 5992   1.817   4.411   3.647
   86PMPE   O12 5993   2.004   4.280   3.558
   86PMPE    C1 5994   1.681   4.459   3.660
   86PMPE    HA 5995   1.603   4.389   3.628
   86PMPE    HB 5996   1.672   4.549   3.593
   86PMPE    C2 5997   1.658   4.498   3.813
   86PMPE    HS 5998   1.588   4.585   3.814
   86PMPE   O21 5999   1.771   4.533   3.896
   86PMPE   C21 6000   1.850   4.601   3.829
   86PMPE   O22 6001   1.823   4.650   3.719
   86PMPE   C22 6002   1.989   4.609   3.907
   86PMPE   H2R 6003   2.051   4.642   3.821
   86PMPE   H2S 6004   2.022   4.506   3.918
   86PMPE    C3 6005   1.602   4.387   3.895
   86PMPE    HX 6006   1.503   4.365   3.852
   86PMPE    HY 6007   1.593   4.415   4.002
   86PMPE   O31 6008   1.697   4.280   3.889
   86PMPE   C31 6009   1.643   4.163   3.890
   86PMPE   O32 6010   1.525   4.139   3.908
   86PMPE   C32 6011   1.752   4.061   3.863
   86PMPE   H2X 6012   1.786   4.080   3.759
   86PMPE   H2Y 6013   1.708   3.960   3.869
   86PMPE   C23 6014   2.013   4.678   4.055
   86PMPE   H3R 6015   1.932   4.649   4.122
   86PMPE   H3S 6016   1.994   4.779   4.097
   86PMPE   C24 6017   2.152   4.707   4.103
   86PMPE   H4R 6018   2.164   4.796   4.172
   86PMPE   H4S 6019   2.228   4.723   4.023
   86PMPE   C25 6020   2.157   4.578   4.173
   86PMPE   H5R 6021   2.262   4.574   4.180
   86PMPE   H5S 6022   2.118   4.496   4.108
   86PMPE   C26 6023   2.089   4.575   4.310
   86PMPE   H6R 6024   2.077   4.468   4.336
   86PMPE   H6S 6025   1.988   4.621   4.309
   86PMPE   C27 6026   2.174   4.643   4.416
   86PMPE   H7R 6027   2.192   4.749   4.388
   86PMPE   H7S 6028   2.273   4.595   4.425
   86PMPE   C28 6029   2.126   4.622   4.558
   86PMPE   H8R 6030   2.188   4.688   4.621
   86PMPE   H8S 6031   2.148   4.516   4.584
   86PMPE   C29 6032   1.977   4.647   4.576
   86PMPE   H9R 6033   1.908   4.580   4.527
   86PMPE  C217 6034   1.944   4.793   4.592
   86PMPE  H17R 6035   1.852   4.822   4.544
   86PMPE  H17S 6036   2.036   4.848   4.587
   86PMPE  C210 6037   1.930   4.696   4.709
   86PMPE  H10R 6038   1.826   4.697   4.744
   86PMPE  C211 6039   2.036   4.686   4.813
   86PMPE  H11R 6040   2.086   4.782   4.814
   86PMPE  H11S 6041   2.100   4.596   4.800
   86PMPE  C212 6042   1.977   4.672   4.948
   86PMPE  H12R 6043   2.050   4.633   5.021
   86PMPE  H12S 6044   1.897   4.596   4.939
   86PMPE  C213 6045   1.943   4.807   5.009
   86PMPE  H13R 6046   1.853   4.844   4.954
   86PMPE  H13S 6047   2.007   4.894   4.996
   86PMPE  C214 6048   1.928   4.774   5.158
   86PMPE  H14R 6049   1.895   4.667   5.194
   86PMPE  H14S 6050   1.861   4.865   5.152
   86PMPE  C215 6051   1.971   4.821   5.284
   86PMPE  H15R 6052   2.038   4.893   5.258
   86PMPE  H15S 6053   2.032   4.739   5.279
   86PMPE  C216 6054   1.897   4.839   5.416
   86PMPE  H16R 6055   1.859   4.935   5.443
   86PMPE  H16S 6056   1.850   4.760   5.478
   86PMPE  H16T 6057   1.981   4.862   5.472
   86PMPE   C33 6058   1.877   4.077   3.952
   86PMPE   H3X 6059   1.912   4.183   3.950
   86PMPE   H3Y 6060   1.955   4.014   3.905
   86PMPE   C34 6061   1.853   4.030   4.096
   86PMPE   H4X 6062   1.812   3.927   4.090
   86PMPE   H4Y 6063   1.775   4.093   4.143
   86PMPE   C35 6064   1.975   4.029   4.190
   86PMPE   H5X 6065   2.065   3.985   4.142
   86PMPE   H5Y 6066   1.948   3.964   4.276
   86PMPE   C36 6067   2.011   4.169   4.245
   86PMPE   H6X 6068   2.022   4.236   4.157
   86PMPE   H6Y 6069   2.110   4.162   4.295
   86PMPE   C37 6070   1.906   4.229   4.342
   86PMPE   H7X 6071   1.804   4.220   4.299
   86PMPE   H7Y 6072   1.923   4.338   4.353
   86PMPE   C38 6073   1.914   4.172   4.485
   86PMPE   H8X 6074   1.923   4.061   4.479
   86PMPE   H8Y 6075   1.820   4.194   4.540
   86PMPE   C39 6076   2.030   4.232   4.567
   86PMPE   H9X 6077   2.000   4.333   4.603
   86PMPE   H9Y 6078   2.118   4.246   4.500
   86PMPE  C310 6079   2.074   4.140   4.681
   86PMPE  H10X 6080   2.115   4.051   4.628
   86PMPE  H10Y 6081   1.987   4.106   4.741
   86PMPE  C311 6082   2.179   4.197   4.780
   86PMPE  H11X 6083   2.235   4.280   4.733
   86PMPE  H11Y 6084   2.252   4.118   4.808
   86PMPE  C312 6085   2.113   4.245   4.910
   86PMPE  H12X 6086   2.051   4.162   4.951
   86PMPE  H12Y 6087   2.045   4.330   4.888
   86PMPE  C313 6088   2.211   4.276   5.023
   86PMPE  H13X 6089   2.278   4.363   4.999
   86PMPE  H13Y 6090   2.278   4.189   5.039
   86PMPE  C314 6091   2.135   4.294   5.154
   86PMPE  H14X 6092   2.076   4.210   5.192
   86PMPE  H14Y 6093   2.069   4.384   5.145
   86PMPE  C315 6094   2.234   4.315   5.264
   86PMPE  H15X 6095   2.180   4.340   5.359
   86PMPE  H15Y 6096   2.282   4.398   5.209
   86PMPE  C316 6097   2.334   4.216   5.306
   86PMPE  H16X 6098   2.387   4.247   5.399
   86PMPE  H16Y 6099   2.409   4.197   5.228
   86PMPE  H16Z 6100   2.263   4.136   5.325
   87PMPE     N 6101   4.811   2.719   3.327
   87PMPE   HN1 6102   4.718   2.763   3.318
   87PMPE   HN2 6103   4.869   2.733   3.242
   87PMPE   HN3 6104   4.796   2.616   3.344
   87PMPE   C12 6105   4.872   2.784   3.448
   87PMPE  H12A 6106   4.918   2.878   3.418
   87PMPE  H12B 6107   4.951   2.717   3.485
   87PMPE   C11 6108   4.766   2.814   3.553
   87PMPE  H11A 6109   4.691   2.888   3.517
   87PMPE  H11B 6110   4.812   2.858   3.645
   87PMPE     P 6111   4.769   2.587   3.676
   87PMPE   O13 6112   4.911   2.572   3.642
   87PMPE   O14 6113   4.693   2.469   3.639
   87PMPE   O11 6114   4.746   2.648   3.823
   87PMPE   O12 6115   4.700   2.694   3.583
   87PMPE    C1 6116   4.649   2.738   3.884
   87PMPE    HA 6117   4.558   2.750   3.827
   87PMPE    HB 6118   4.665   2.845   3.864
   87PMPE    C2 6119   4.612   2.690   4.030
   87PMPE    HS 6120   4.518   2.728   4.076
   87PMPE   O21 6121   4.716   2.729   4.113
   87PMPE   C21 6122   4.708   2.856   4.136
   87PMPE   O22 6123   4.611   2.929   4.124
   87PMPE   C22 6124   4.843   2.893   4.185
   87PMPE   H2R 6125   4.872   2.983   4.129
   87PMPE   H2S 6126   4.914   2.812   4.158
   87PMPE    C3 6127   4.585   2.540   4.050
   87PMPE    HX 6128   4.655   2.476   3.992
   87PMPE    HY 6129   4.483   2.533   4.013
   87PMPE   O31 6130   4.569   2.507   4.189
   87PMPE   C31 6131   4.672   2.445   4.241
   87PMPE   O32 6132   4.768   2.400   4.182
   87PMPE   C32 6133   4.648   2.431   4.389
   87PMPE   H2X 6134   4.645   2.322   4.407
   87PMPE   H2Y 6135   4.554   2.483   4.420
   87PMPE   C23 6136   4.827   2.913   4.337
   87PMPE   H3R 6137   4.797   2.821   4.389
   87PMPE   H3S 6138   4.742   2.985   4.349
   87PMPE   C24 6139   4.956   2.958   4.405
   87PMPE   H4R 6140   5.008   3.015   4.327
   87PMPE   H4S 6141   5.034   2.884   4.422
   87PMPE   C25 6142   4.933   3.027   4.540
   87PMPE   H5R 6143   4.871   3.109   4.516
   87PMPE   H5S 6144   5.026   3.073   4.582
   87PMPE   C26 6145   4.843   2.950   4.638
   87PMPE   H6R 6146   4.925   2.898   4.691
   87PMPE   H6S 6147   4.763   2.900   4.584
   87PMPE   C27 6148   4.760   3.018   4.745
   87PMPE   H7R 6149   4.670   3.078   4.730
   87PMPE   H7S 6150   4.853   3.068   4.769
   87PMPE   C28 6151   4.674   2.959   4.853
   87PMPE   H8R 6152   4.753   2.933   4.925
   87PMPE   H8S 6153   4.627   2.883   4.790
   87PMPE   C29 6154   4.534   3.024   4.904
   87PMPE   H9R 6155   4.510   3.122   4.851
   87PMPE  C217 6156   4.560   3.092   5.021
   87PMPE  H17R 6157   4.502   3.187   5.034
   87PMPE  H17S 6158   4.667   3.067   5.032
   87PMPE  C210 6159   4.489   2.991   5.057
   87PMPE  H10R 6160   4.414   3.049   5.116
   87PMPE  C211 6161   4.588   2.927   5.160
   87PMPE  H11R 6162   4.568   2.958   5.265
   87PMPE  H11S 6163   4.700   2.928   5.153
   87PMPE  C212 6164   4.546   2.799   5.102
   87PMPE  H12R 6165   4.577   2.796   4.996
   87PMPE  H12S 6166   4.434   2.799   5.108
   87PMPE  C213 6167   4.609   2.685   5.171
   87PMPE  H13R 6168   4.719   2.693   5.175
   87PMPE  H13S 6169   4.580   2.594   5.114
   87PMPE  C214 6170   4.543   2.682   5.305
   87PMPE  H14R 6171   4.438   2.684   5.276
   87PMPE  H14S 6172   4.553   2.772   5.371
   87PMPE  C215 6173   4.578   2.556   5.375
   87PMPE  H15R 6174   4.596   2.466   5.314
   87PMPE  H15S 6175   4.489   2.532   5.433
   87PMPE  C216 6176   4.698   2.589   5.457
   87PMPE  H16R 6177   4.793   2.592   5.405
   87PMPE  H16S 6178   4.679   2.681   5.518
   87PMPE  H16T 6179   4.720   2.502   5.519
   87PMPE   C33 6180   4.770   2.480   4.463
   87PMPE   H3X 6181   4.790   2.585   4.431
   87PMPE   H3Y 6182   4.857   2.416   4.434
   87PMPE   C34 6183   4.749   2.470   4.614
   87PMPE   H4X 6184   4.755   2.362   4.642
   87PMPE   H4Y 6185   4.647   2.506   4.641
   87PMPE   C35 6186   4.851   2.552   4.692
   87PMPE   H5X 6187   4.826   2.660   4.679
   87PMPE   H5Y 6188   4.953   2.535   4.651
   87PMPE   C36 6189   4.853   2.519   4.841
   87PMPE   H6X 6190   4.873   2.411   4.854
   87PMPE   H6Y 6191   4.753   2.540   4.884
   87PMPE   C37 6192   4.958   2.600   4.918
   87PMPE   H7X 6193   5.056   2.597   4.866
   87PMPE   H7Y 6194   4.969   2.552   5.018
   87PMPE   C38 6195   4.919   2.746   4.940
   87PMPE   H8X 6196   4.817   2.747   4.984
   87PMPE   H8Y 6197   4.913   2.797   4.844
   87PMPE   C39 6198   5.016   2.825   5.028
   87PMPE   H9X 6199   4.979   2.929   5.046
   87PMPE   H9Y 6200   5.114   2.835   4.976
   87PMPE  C310 6201   5.038   2.748   5.157
   87PMPE  H10X 6202   5.108   2.663   5.138
   87PMPE  H10Y 6203   4.942   2.715   5.201
   87PMPE  C311 6204   5.109   2.826   5.260
   87PMPE  H11X 6205   5.130   2.921   5.204
   87PMPE  H11Y 6206   5.206   2.776   5.282
   87PMPE  C312 6207   5.039   2.848   5.397
   87PMPE  H12X 6208   5.106   2.915   5.453
   87PMPE  H12Y 6209   5.054   2.771   5.472
   87PMPE  C313 6210   4.904   2.922   5.383
   87PMPE  H13X 6211   4.817   2.867   5.345
   87PMPE  H13Y 6212   4.927   2.974   5.289
   87PMPE  C314 6213   4.864   3.013   5.502
   87PMPE  H14X 6214   4.758   3.048   5.490
   87PMPE  H14Y 6215   4.905   3.111   5.533
   87PMPE  C315 6216   4.896   2.931   5.621
   87PMPE  H15X 6217   4.996   2.901   5.656
   87PMPE  H15Y 6218   4.832   2.840   5.602
   87PMPE  C316 6219   4.857   3.009   5.735
   87PMPE  H16X 6220   4.907   3.047   5.823
   87PMPE  H16Y 6221   4.818   2.912   5.778
   87PMPE  H16Z 6222   4.776   3.082   5.704
   88PMPE     N 6223   4.723   5.161   3.588
   88PMPE   HN1 6224   4.727   5.068   3.635
   88PMPE   HN2 6225   4.624   5.198   3.595
   88PMPE   HN3 6226   4.760   5.161   3.492
   88PMPE   C12 6227   4.812   5.247   3.669
   88PMPE  H12A 6228   4.764   5.236   3.764
   88PMPE  H12B 6229   4.819   5.349   3.627
   88PMPE   C11 6230   4.949   5.196   3.698
   88PMPE  H11A 6231   4.936   5.090   3.733
   88PMPE  H11B 6232   4.993   5.254   3.783
   88PMPE     P 6233   5.138   5.120   3.536
   88PMPE   O13 6234   5.267   5.186   3.506
   88PMPE   O14 6235   5.082   5.021   3.443
   88PMPE   O11 6236   5.153   5.052   3.674
   88PMPE   O12 6237   5.021   5.217   3.576
   88PMPE    C1 6238   5.241   4.943   3.680
   88PMPE    HA 6239   5.348   4.977   3.688
   88PMPE    HB 6240   5.243   4.879   3.588
   88PMPE    C2 6241   5.188   4.854   3.795
   88PMPE    HS 6242   5.226   4.761   3.750
   88PMPE   O21 6243   5.050   4.834   3.804
   88PMPE   C21 6244   5.028   4.710   3.847
   88PMPE   O22 6245   5.103   4.624   3.878
   88PMPE   C22 6246   4.896   4.673   3.855
   88PMPE   H2R 6247   4.901   4.564   3.879
   88PMPE   H2S 6248   4.867   4.685   3.748
   88PMPE    C3 6249   5.236   4.907   3.936
   88PMPE    HX 6250   5.323   4.935   3.895
   88PMPE    HY 6251   5.296   4.859   4.016
   88PMPE   O31 6252   5.197   5.036   3.969
   88PMPE   C31 6253   5.138   5.035   4.082
   88PMPE   O32 6254   5.126   4.940   4.159
   88PMPE   C32 6255   5.078   5.172   4.090
   88PMPE   H2X 6256   4.976   5.168   4.049
   88PMPE   H2Y 6257   5.138   5.240   4.025
   88PMPE   C23 6258   4.854   4.765   3.968
   88PMPE   H3R 6259   4.747   4.775   3.944
   88PMPE   H3S 6260   4.899   4.867   3.967
   88PMPE   C24 6261   4.866   4.716   4.113
   88PMPE   H4R 6262   4.969   4.712   4.155
   88PMPE   H4S 6263   4.827   4.616   4.125
   88PMPE   C25 6264   4.761   4.790   4.195
   88PMPE   H5R 6265   4.670   4.798   4.131
   88PMPE   H5S 6266   4.801   4.891   4.214
   88PMPE   C26 6267   4.713   4.720   4.322
   88PMPE   H6R 6268   4.661   4.624   4.304
   88PMPE   H6S 6269   4.640   4.788   4.370
   88PMPE   C27 6270   4.823   4.699   4.424
   88PMPE   H7R 6271   4.885   4.792   4.427
   88PMPE   H7S 6272   4.890   4.617   4.388
   88PMPE   C28 6273   4.764   4.676   4.565
   88PMPE   H8R 6274   4.707   4.579   4.560
   88PMPE   H8S 6275   4.697   4.758   4.594
   88PMPE   C29 6276   4.882   4.676   4.660
   88PMPE   H9R 6277   4.978   4.698   4.610
   88PMPE  C217 6278   4.867   4.622   4.802
   88PMPE  H17R 6279   4.955   4.576   4.848
   88PMPE  H17S 6280   4.769   4.575   4.815
   88PMPE  C210 6281   4.897   4.758   4.784
   88PMPE  H10R 6282   5.001   4.759   4.828
   88PMPE  C211 6283   4.774   4.800   4.851
   88PMPE  H11R 6284   4.686   4.730   4.858
   88PMPE  H11S 6285   4.746   4.878   4.780
   88PMPE  C212 6286   4.812   4.850   4.986
   88PMPE  H12R 6287   4.913   4.895   4.981
   88PMPE  H12S 6288   4.815   4.766   5.060
   88PMPE  C213 6289   4.708   4.954   5.020
   88PMPE  H13R 6290   4.608   4.918   4.987
   88PMPE  H13S 6291   4.730   5.046   4.961
   88PMPE  C214 6292   4.707   4.977   5.169
   88PMPE  H14R 6293   4.810   4.972   5.209
   88PMPE  H14S 6294   4.647   4.893   5.212
   88PMPE  C215 6295   4.637   5.105   5.211
   88PMPE  H15R 6296   4.544   5.112   5.149
   88PMPE  H15S 6297   4.704   5.191   5.188
   88PMPE  C216 6298   4.596   5.110   5.358
   88PMPE  H16R 6299   4.535   5.021   5.383
   88PMPE  H16S 6300   4.686   5.113   5.423
   88PMPE  H16T 6301   4.535   5.201   5.378
   88PMPE   C33 6302   5.093   5.221   4.234
   88PMPE   H3X 6303   5.078   5.331   4.230
   88PMPE   H3Y 6304   5.197   5.202   4.268
   88PMPE   C34 6305   4.993   5.156   4.330
   88PMPE   H4X 6306   4.988   5.045   4.319
   88PMPE   H4Y 6307   4.895   5.191   4.297
   88PMPE   C35 6308   5.028   5.189   4.476
   88PMPE   H5X 6309   5.018   5.298   4.494
   88PMPE   H5Y 6310   5.134   5.160   4.493
   88PMPE   C36 6311   4.943   5.122   4.584
   88PMPE   H6X 6312   4.946   5.011   4.572
   88PMPE   H6Y 6313   4.838   5.156   4.571
   88PMPE   C37 6314   4.994   5.157   4.725
   88PMPE   H7X 6315   5.099   5.194   4.717
   88PMPE   H7Y 6316   4.997   5.063   4.785
   88PMPE   C38 6317   4.913   5.262   4.802
   88PMPE   H8X 6318   4.810   5.222   4.816
   88PMPE   H8Y 6319   4.906   5.357   4.745
   88PMPE   C39 6320   4.975   5.287   4.940
   88PMPE   H9X 6321   5.074   5.336   4.931
   88PMPE   H9Y 6322   4.994   5.186   4.980
   88PMPE  C310 6323   4.884   5.365   5.037
   88PMPE  H10X 6324   4.789   5.309   5.047
   88PMPE  H10Y 6325   4.861   5.467   4.998
   88PMPE  C311 6326   4.937   5.377   5.180
   88PMPE  H11X 6327   4.868   5.433   5.247
   88PMPE  H11Y 6328   5.028   5.432   5.171
   88PMPE  C312 6329   4.985   5.244   5.236
   88PMPE  H12X 6330   5.056   5.198   5.163
   88PMPE  H12Y 6331   4.898   5.183   5.260
   88PMPE  C313 6332   5.073   5.242   5.355
   88PMPE  H13X 6333   5.043   5.314   5.434
   88PMPE  H13Y 6334   5.172   5.272   5.314
   88PMPE  C314 6335   5.106   5.103   5.411
   88PMPE  H14X 6336   5.200   5.128   5.462
   88PMPE  H14Y 6337   5.145   5.038   5.332
   88PMPE  C315 6338   4.982   5.033   5.479
   88PMPE  H15X 6339   4.933   4.984   5.395
   88PMPE  H15Y 6340   4.904   5.107   5.499
   88PMPE  C316 6341   4.974   4.908   5.570
   88PMPE  H16X 6342   5.073   4.859   5.553
   88PMPE  H16Y 6343   4.898   4.911   5.651
   88PMPE  H16Z 6344   4.998   4.911   5.677
   89PMPE     N 6345   5.767   2.849   3.513
   89PMPE   HN1 6346   5.842   2.892   3.455
   89PMPE   HN2 6347   5.797   2.830   3.611
   89PMPE   HN3 6348   5.730   2.762   3.469
   89PMPE   C12 6349   5.652   2.945   3.513
   89PMPE  H12A 6350   5.607   2.945   3.411
   89PMPE  H12B 6351   5.689   3.047   3.538
   89PMPE   C11 6352   5.546   2.900   3.612
   89PMPE  H11A 6353   5.578   2.925   3.717
   89PMPE  H11B 6354   5.528   2.791   3.613
   89PMPE     P 6355   5.383   3.098   3.619
   89PMPE   O13 6356   5.239   3.102   3.643
   89PMPE   O14 6357   5.441   3.199   3.527
   89PMPE   O11 6358   5.470   3.103   3.750
   89PMPE   O12 6359   5.424   2.956   3.568
   89PMPE    C1 6360   5.430   3.195   3.848
   89PMPE    HA 6361   5.338   3.159   3.892
   89PMPE    HB 6362   5.414   3.295   3.805
   89PMPE    C2 6363   5.518   3.195   3.970
   89PMPE    HS 6364   5.615   3.152   3.942
   89PMPE   O21 6365   5.461   3.140   4.082
   89PMPE   C21 6366   5.494   3.024   4.115
   89PMPE   O22 6367   5.562   2.947   4.050
   89PMPE   C22 6368   5.452   3.007   4.263
   89PMPE   H2R 6369   5.352   2.965   4.253
   89PMPE   H2S 6370   5.460   3.103   4.313
   89PMPE    C3 6371   5.549   3.329   4.013
   89PMPE    HX 6372   5.489   3.404   3.993
   89PMPE    HY 6373   5.607   3.346   3.928
   89PMPE   O31 6374   5.615   3.360   4.131
   89PMPE   C31 6375   5.755   3.336   4.113
   89PMPE   O32 6376   5.803   3.278   4.023
   89PMPE   C32 6377   5.851   3.373   4.224
   89PMPE   H2X 6378   5.757   3.341   4.256
   89PMPE   H2Y 6379   5.813   3.459   4.255
   89PMPE   C23 6380   5.531   2.944   4.377
   89PMPE   H3R 6381   5.596   3.007   4.443
   89PMPE   H3S 6382   5.593   2.884   4.315
   89PMPE   C24 6383   5.456   2.883   4.487
   89PMPE   H4R 6384   5.536   2.838   4.552
   89PMPE   H4S 6385   5.390   2.811   4.437
   89PMPE   C25 6386   5.381   2.978   4.576
   89PMPE   H5R 6387   5.331   2.923   4.658
   89PMPE   H5S 6388   5.299   3.021   4.517
   89PMPE   C26 6389   5.471   3.078   4.649
   89PMPE   H6R 6390   5.512   3.154   4.577
   89PMPE   H6S 6391   5.558   3.034   4.700
   89PMPE   C27 6392   5.387   3.133   4.762
   89PMPE   H7R 6393   5.300   3.078   4.802
   89PMPE   H7S 6394   5.310   3.180   4.698
   89PMPE   C28 6395   5.465   3.223   4.867
   89PMPE   H8R 6396   5.492   3.164   4.954
   89PMPE   H8S 6397   5.381   3.282   4.912
   89PMPE   C29 6398   5.588   3.321   4.820
   89PMPE   H9R 6399   5.600   3.376   4.722
   89PMPE  C217 6400   5.729   3.304   4.846
   89PMPE  H17R 6401   5.779   3.344   4.755
   89PMPE  H17S 6402   5.716   3.202   4.868
   89PMPE  C210 6403   5.648   3.410   4.923
   89PMPE  H10R 6404   5.670   3.517   4.897
   89PMPE  C211 6405   5.613   3.381   5.066
   89PMPE  H11R 6406   5.698   3.422   5.123
   89PMPE  H11S 6407   5.595   3.274   5.083
   89PMPE  C212 6408   5.488   3.451   5.116
   89PMPE  H12R 6409   5.395   3.426   5.064
   89PMPE  H12S 6410   5.522   3.552   5.105
   89PMPE  C213 6411   5.444   3.438   5.258
   89PMPE  H13R 6412   5.414   3.334   5.275
   89PMPE  H13S 6413   5.359   3.507   5.280
   89PMPE  C214 6414   5.549   3.478   5.352
   89PMPE  H14R 6415   5.597   3.573   5.323
   89PMPE  H14S 6416   5.640   3.436   5.336
   89PMPE  C215 6417   5.500   3.470   5.495
   89PMPE  H15R 6418   5.426   3.551   5.504
   89PMPE  H15S 6419   5.586   3.477   5.563
   89PMPE  C216 6420   5.448   3.359   5.570
   89PMPE  H16R 6421   5.439   3.387   5.677
   89PMPE  H16S 6422   5.357   3.333   5.525
   89PMPE  H16T 6423   5.519   3.283   5.567
   89PMPE   C33 6424   5.995   3.304   4.310
   89PMPE   H3X 6425   6.085   3.354   4.284
   89PMPE   H3Y 6426   6.030   3.214   4.261
   89PMPE   C34 6427   6.002   3.253   4.471
   89PMPE   H4X 6428   5.916   3.204   4.519
   89PMPE   H4Y 6429   6.011   3.312   4.562
   89PMPE   C35 6430   6.038   3.118   4.494
   89PMPE   H5X 6431   6.105   3.173   4.434
   89PMPE   H5Y 6432   6.030   3.028   4.434
   89PMPE   C36 6433   6.037   3.098   4.638
   89PMPE   H6X 6434   6.083   3.186   4.693
   89PMPE   H6Y 6435   6.096   3.004   4.629
   89PMPE   C37 6436   5.910   3.056   4.695
   89PMPE   H7X 6437   5.890   2.957   4.646
   89PMPE   H7Y 6438   5.830   3.130   4.687
   89PMPE   C38 6439   5.936   3.034   4.834
   89PMPE   H8X 6440   5.984   3.117   4.894
   89PMPE   H8Y 6441   6.024   2.969   4.811
   89PMPE   C39 6442   5.815   2.948   4.882
   89PMPE   H9X 6443   5.811   2.868   4.808
   89PMPE   H9Y 6444   5.722   3.005   4.903
   89PMPE  C310 6445   5.837   2.841   4.986
   89PMPE  H10X 6446   5.846   2.943   5.034
   89PMPE  H10Y 6447   5.925   2.778   4.993
   89PMPE  C311 6448   5.769   2.760   5.086
   89PMPE  H11X 6449   5.702   2.695   5.033
   89PMPE  H11Y 6450   5.696   2.842   5.087
   89PMPE  C312 6451   5.880   2.705   5.219
   89PMPE  H12X 6452   5.987   2.677   5.198
   89PMPE  H12Y 6453   5.794   2.645   5.206
   89PMPE  C313 6454   5.918   2.687   5.381
   89PMPE  H13X 6455   5.995   2.762   5.383
   89PMPE  H13Y 6456   6.003   2.622   5.416
   89PMPE  C314 6457   5.825   2.744   5.494
   89PMPE  H14X 6458   5.801   2.638   5.509
   89PMPE  H14Y 6459   5.710   2.740   5.483
   89PMPE  C315 6460   5.886   2.897   5.566
   89PMPE  H15X 6461   5.982   2.882   5.584
   89PMPE  H15Y 6462   5.867   2.924   5.671
   89PMPE  C316 6463   5.936   3.040   5.504
   89PMPE  H16X 6464   5.933   3.121   5.574
   89PMPE  H16Y 6465   5.866   3.076   5.432
   89PMPE  H16Z 6466   6.022   3.059   5.442
   90PMPE     N 6467   2.303   4.926   3.499
   90PMPE   HN1 6468   2.386   4.885   3.450
   90PMPE   HN2 6469   2.322   4.916   3.601
   90PMPE   HN3 6470   2.214   4.876   3.475
   90PMPE   C12 6471   2.282   5.073   3.469
   90PMPE  H12A 6472   2.242   5.082   3.366
   90PMPE  H12B 6473   2.383   5.119   3.473
   90PMPE   C11 6474   2.188   5.144   3.570
   90PMPE  H11A 6475   2.202   5.253   3.555
   90PMPE  H11B 6476   2.220   5.119   3.675
   90PMPE     P 6477   1.933   5.187   3.628
   90PMPE   O13 6478   1.805   5.194   3.556
   90PMPE   O14 6479   1.976   5.311   3.696
   90PMPE   O11 6480   1.928   5.089   3.738
   90PMPE   O12 6481   2.051   5.115   3.546
   90PMPE    C1 6482   1.907   4.960   3.689
   90PMPE    HA 6483   1.998   4.903   3.657
   90PMPE    HB 6484   1.814   4.934   3.631
   90PMPE    C2 6485   1.879   4.912   3.816
   90PMPE    HS 6486   1.872   4.814   3.797
   90PMPE   O21 6487   1.790   4.982   3.902
   90PMPE   C21 6488   1.676   4.964   3.878
   90PMPE   O22 6489   1.630   4.886   3.792
   90PMPE   C22 6490   1.618   5.027   4.026
   90PMPE   H2R 6491   1.611   4.976   4.125
   90PMPE   H2S 6492   1.525   4.993   4.071
   90PMPE    C3 6493   1.992   4.889   3.897
   90PMPE    HX 6494   2.068   4.823   3.852
   90PMPE    HY 6495   1.914   4.840   3.963
   90PMPE   O31 6496   2.046   4.991   3.969
   90PMPE   C31 6497   2.171   5.000   3.964
   90PMPE   O32 6498   2.254   4.930   3.908
   90PMPE   C32 6499   2.191   5.122   4.044
   90PMPE   H2X 6500   2.111   5.191   4.008
   90PMPE   H2Y 6501   2.290   5.161   4.017
   90PMPE   C23 6502   1.626   5.166   4.032
   90PMPE   H3R 6503   1.532   5.216   4.003
   90PMPE   H3S 6504   1.708   5.180   3.959
   90PMPE   C24 6505   1.666   5.177   4.173
   90PMPE   H4R 6506   1.712   5.276   4.167
   90PMPE   H4S 6507   1.743   5.098   4.198
   90PMPE   C25 6508   1.548   5.169   4.268
   90PMPE   H5R 6509   1.489   5.074   4.272
   90PMPE   H5S 6510   1.477   5.249   4.238
   90PMPE   C26 6511   1.608   5.188   4.403
   90PMPE   H6R 6512   1.676   5.277   4.398
   90PMPE   H6S 6513   1.670   5.100   4.433
   90PMPE   C27 6514   1.501   5.212   4.502
   90PMPE   H7R 6515   1.432   5.126   4.516
   90PMPE   H7S 6516   1.436   5.292   4.460
   90PMPE   C28 6517   1.567   5.252   4.633
   90PMPE   H8R 6518   1.474   5.268   4.675
   90PMPE   H8S 6519   1.624   5.348   4.634
   90PMPE   C29 6520   1.618   5.138   4.720
   90PMPE   H9R 6521   1.668   5.059   4.665
   90PMPE  C217 6522   1.503   5.079   4.807
   90PMPE  H17R 6523   1.495   4.974   4.793
   90PMPE  H17S 6524   1.415   5.136   4.791
   90PMPE  C210 6525   1.629   5.135   4.872
   90PMPE  H10R 6526   1.700   5.060   4.910
   90PMPE  C211 6527   1.626   5.266   4.947
   90PMPE  H11R 6528   1.590   5.250   5.052
   90PMPE  H11S 6529   1.562   5.326   4.881
   90PMPE  C212 6530   1.759   5.340   4.950
   90PMPE  H12R 6531   1.784   5.347   4.842
   90PMPE  H12S 6532   1.827   5.274   5.006
   90PMPE  C213 6533   1.773   5.485   5.003
   90PMPE  H13R 6534   1.695   5.551   4.957
   90PMPE  H13S 6535   1.872   5.525   4.980
   90PMPE  C214 6536   1.785   5.511   5.154
   90PMPE  H14R 6537   1.684   5.524   5.146
   90PMPE  H14S 6538   1.793   5.616   5.186
   90PMPE  C215 6539   1.836   5.405   5.260
   90PMPE  H15R 6540   1.932   5.454   5.284
   90PMPE  H15S 6541   1.849   5.310   5.206
   90PMPE  C216 6542   1.775   5.362   5.401
   90PMPE  H16R 6543   1.697   5.284   5.396
   90PMPE  H16S 6544   1.848   5.326   5.474
   90PMPE  H16T 6545   1.729   5.442   5.459
   90PMPE   C33 6546   2.170   5.090   4.194
   90PMPE   H3X 6547   2.251   5.020   4.223
   90PMPE   H3Y 6548   2.073   5.038   4.212
   90PMPE   C34 6549   2.176   5.218   4.278
   90PMPE   H4X 6550   2.097   5.288   4.243
   90PMPE   H4Y 6551   2.275   5.263   4.258
   90PMPE   C35 6552   2.159   5.202   4.430
   90PMPE   H5X 6553   2.158   5.302   4.478
   90PMPE   H5Y 6554   2.246   5.156   4.471
   90PMPE   C36 6555   2.048   5.108   4.475
   90PMPE   H6X 6556   2.088   5.005   4.479
   90PMPE   H6Y 6557   1.971   5.112   4.396
   90PMPE   C37 6558   1.987   5.149   4.611
   90PMPE   H7X 6559   1.894   5.092   4.630
   90PMPE   H7Y 6560   1.959   5.256   4.601
   90PMPE   C38 6561   2.084   5.131   4.728
   90PMPE   H8X 6562   2.170   5.200   4.712
   90PMPE   H8Y 6563   2.120   5.025   4.731
   90PMPE   C39 6564   2.031   5.163   4.868
   90PMPE   H9X 6565   1.963   5.080   4.898
   90PMPE   H9Y 6566   1.977   5.259   4.865
   90PMPE  C310 6567   2.139   5.178   4.975
   90PMPE  H10X 6568   2.224   5.238   4.941
   90PMPE  H10Y 6569   2.171   5.075   4.996
   90PMPE  C311 6570   2.099   5.222   5.111
   90PMPE  H11X 6571   2.039   5.313   5.102
   90PMPE  H11Y 6572   2.184   5.237   5.181
   90PMPE  C312 6573   2.020   5.109   5.168
   90PMPE  H12X 6574   2.079   5.018   5.145
   90PMPE  H12Y 6575   1.922   5.106   5.119
   90PMPE  C313 6576   2.000   5.128   5.313
   90PMPE  H13X 6577   1.899   5.095   5.343
   90PMPE  H13Y 6578   2.007   5.236   5.332
   90PMPE  C314 6579   2.104   5.065   5.396
   90PMPE  H14X 6580   2.203   5.098   5.376
   90PMPE  H14Y 6581   2.126   4.957   5.397
   90PMPE  C315 6582   2.065   5.113   5.527
   90PMPE  H15X 6583   2.152   5.070   5.573
   90PMPE  H15Y 6584   1.970   5.082   5.576
   90PMPE  C316 6585   2.100   5.248   5.553
   90PMPE  H16X 6586   2.060   5.261   5.656
   90PMPE  H16Y 6587   2.054   5.327   5.496
   90PMPE  H16Z 6588   2.212   5.254   5.542
   91PMPE     N 6589   2.963   1.943   3.476
   91PMPE   HN1 6590   2.999   1.844   3.477
   91PMPE   HN2 6591   2.862   1.946   3.504
   91PMPE   HN3 6592   2.967   1.977   3.378
   91PMPE   C12 6593   3.044   2.036   3.564
   91PMPE  H12A 6594   3.145   2.045   3.519
   91PMPE  H12B 6595   3.054   1.988   3.664
   91PMPE   C11 6596   2.981   2.176   3.579
   91PMPE  H11A 6597   2.962   2.220   3.478
   91PMPE  H11B 6598   3.054   2.244   3.630
   91PMPE     P 6599   2.725   2.232   3.622
   91PMPE   O13 6600   2.723   2.215   3.476
   91PMPE   O14 6601   2.707   2.365   3.682
   91PMPE   O11 6602   2.624   2.133   3.690
   91PMPE   O12 6603   2.866   2.172   3.662
   91PMPE    C1 6604   2.616   1.996   3.658
   91PMPE    HA 6605   2.700   1.961   3.592
   91PMPE    HB 6606   2.522   1.979   3.601
   91PMPE    C2 6607   2.621   1.909   3.786
   91PMPE    HS 6608   2.584   1.809   3.756
   91PMPE   O21 6609   2.542   1.962   3.896
   91PMPE   C21 6610   2.412   1.980   3.879
   91PMPE   O22 6611   2.346   1.941   3.784
   91PMPE   C22 6612   2.353   2.054   4.004
   91PMPE   H2R 6613   2.243   2.055   3.991
   91PMPE   H2S 6614   2.395   2.155   4.003
   91PMPE    C3 6615   2.769   1.895   3.837
   91PMPE    HX 6616   2.832   1.863   3.752
   91PMPE    HY 6617   2.778   1.815   3.914
   91PMPE   O31 6618   2.825   2.018   3.883
   91PMPE   C31 6619   2.806   2.059   4.006
   91PMPE   O32 6620   2.763   1.993   4.099
   91PMPE   C32 6621   2.855   2.203   4.009
   91PMPE   H2X 6622   2.821   2.250   3.914
   91PMPE   H2Y 6623   2.965   2.200   4.012
   91PMPE   C23 6624   2.384   1.992   4.143
   91PMPE   H3R 6625   2.496   1.977   4.145
   91PMPE   H3S 6626   2.325   1.898   4.153
   91PMPE   C24 6627   2.356   2.067   4.272
   91PMPE   H4R 6628   2.246   2.075   4.279
   91PMPE   H4S 6629   2.405   2.165   4.261
   91PMPE   C25 6630   2.416   2.000   4.400
   91PMPE   H5R 6631   2.523   1.978   4.379
   91PMPE   H5S 6632   2.367   1.902   4.420
   91PMPE   C26 6633   2.418   2.091   4.525
   91PMPE   H6R 6634   2.326   2.139   4.547
   91PMPE   H6S 6635   2.475   2.183   4.506
   91PMPE   C27 6636   2.449   2.024   4.660
   91PMPE   H7R 6637   2.554   1.990   4.652
   91PMPE   H7S 6638   2.382   1.935   4.674
   91PMPE   C28 6639   2.435   2.117   4.783
   91PMPE   H8R 6640   2.524   2.181   4.797
   91PMPE   H8S 6641   2.424   2.054   4.875
   91PMPE   C29 6642   2.306   2.196   4.769
   91PMPE   H9R 6643   2.245   2.156   4.848
   91PMPE  C217 6644   2.311   2.336   4.704
   91PMPE  H17R 6645   2.228   2.366   4.654
   91PMPE  H17S 6646   2.410   2.363   4.672
   91PMPE  C210 6647   2.268   2.318   4.846
   91PMPE  H10R 6648   2.165   2.344   4.877
   91PMPE  C211 6649   2.361   2.357   4.936
   91PMPE  H11R 6650   2.325   2.457   4.950
   91PMPE  H11S 6651   2.442   2.365   4.864
   91PMPE  C212 6652   2.404   2.272   5.054
   91PMPE  H12R 6653   2.495   2.302   5.106
   91PMPE  H12S 6654   2.460   2.181   5.032
   91PMPE  C213 6655   2.339   2.319   5.176
   91PMPE  H13R 6656   2.241   2.271   5.157
   91PMPE  H13S 6657   2.321   2.427   5.186
   91PMPE  C214 6658   2.433   2.280   5.294
   91PMPE  H14R 6659   2.523   2.341   5.313
   91PMPE  H14S 6660   2.460   2.172   5.276
   91PMPE  C215 6661   2.373   2.297   5.422
   91PMPE  H15R 6662   2.298   2.249   5.359
   91PMPE  H15S 6663   2.296   2.372   5.454
   91PMPE  C216 6664   2.422   2.199   5.530
   91PMPE  H16R 6665   2.396   2.091   5.510
   91PMPE  H16S 6666   2.528   2.202   5.554
   91PMPE  H16T 6667   2.366   2.230   5.621
   91PMPE   C33 6668   2.803   2.284   4.128
   91PMPE   H3X 6669   2.695   2.264   4.145
   91PMPE   H3Y 6670   2.814   2.392   4.101
   91PMPE   C34 6671   2.881   2.255   4.257
   91PMPE   H4X 6672   2.977   2.310   4.259
   91PMPE   H4Y 6673   2.903   2.146   4.264
   91PMPE   C35 6674   2.797   2.293   4.377
   91PMPE   H5X 6675   2.704   2.231   4.378
   91PMPE   H5Y 6676   2.766   2.399   4.372
   91PMPE   C36 6677   2.870   2.267   4.508
   91PMPE   H6X 6678   2.958   2.334   4.519
   91PMPE   H6Y 6679   2.904   2.161   4.512
   91PMPE   C37 6680   2.772   2.290   4.619
   91PMPE   H7X 6681   2.683   2.225   4.604
   91PMPE   H7Y 6682   2.738   2.397   4.619
   91PMPE   C38 6683   2.831   2.253   4.753
   91PMPE   H8X 6684   2.753   2.291   4.810
   91PMPE   H8Y 6685   2.918   2.315   4.779
   91PMPE   C39 6686   2.821   2.105   4.796
   91PMPE   H9X 6687   2.906   2.060   4.744
   91PMPE   H9Y 6688   2.724   2.069   4.757
   91PMPE  C310 6689   2.825   2.056   4.947
   91PMPE  H10X 6690   2.818   1.948   4.950
   91PMPE  H10Y 6691   2.730   2.092   4.995
   91PMPE  C311 6692   2.961   2.086   5.024
   91PMPE  H11X 6693   2.959   2.173   4.959
   91PMPE  H11Y 6694   3.065   2.093   4.998
   91PMPE  C312 6695   2.973   2.104   5.179
   91PMPE  H12X 6696   2.962   2.008   5.232
   91PMPE  H12Y 6697   2.859   2.110   5.192
   91PMPE  C313 6698   3.090   2.230   5.255
   91PMPE  H13X 6699   3.179   2.199   5.208
   91PMPE  H13Y 6700   3.084   2.172   5.348
   91PMPE  C314 6701   3.066   2.428   5.297
   91PMPE  H14X 6702   3.000   2.496   5.253
   91PMPE  H14Y 6703   3.144   2.486   5.257
   91PMPE  C315 6704   2.899   2.515   5.339
   91PMPE  H15X 6705   2.841   2.480   5.427
   91PMPE  H15Y 6706   2.786   2.492   5.319
   91PMPE  C316 6707   2.900   2.641   5.362
   91PMPE  H16X 6708   2.833   2.663   5.280
   91PMPE  H16Y 6709   3.000   2.670   5.352
   91PMPE  H16Z 6710   2.860   2.655   5.461
   92PMPE     N 6711   5.236   2.088   3.340
   92PMPE   HN1 6712   5.236   1.997   3.289
   92PMPE   HN2 6713   5.171   2.157   3.297
   92PMPE   HN3 6714   5.331   2.130   3.335
   92PMPE   C12 6715   5.209   2.069   3.486
   92PMPE  H12A 6716   5.144   1.979   3.497
   92PMPE  H12B 6717   5.158   2.159   3.526
   92PMPE   C11 6718   5.340   2.052   3.562
   92PMPE  H11A 6719   5.402   1.971   3.516
   92PMPE  H11B 6720   5.313   2.023   3.666
   92PMPE     P 6721   5.511   2.223   3.671
   92PMPE   O13 6722   5.530   2.369   3.663
   92PMPE   O14 6723   5.629   2.138   3.657
   92PMPE   O11 6724   5.428   2.183   3.802
   92PMPE   O12 6725   5.409   2.177   3.557
   92PMPE    C1 6726   5.406   2.282   3.902
   92PMPE    HA 6727   5.323   2.252   3.971
   92PMPE    HB 6728   5.379   2.382   3.861
   92PMPE    C2 6729   5.527   2.299   3.991
   92PMPE    HS 6730   5.614   2.326   3.924
   92PMPE   O21 6731   5.542   2.178   4.074
   92PMPE   C21 6732   5.671   2.143   4.077
   92PMPE   O22 6733   5.759   2.213   4.044
   92PMPE   C22 6734   5.712   2.006   4.114
   92PMPE   H2R 6735   5.824   2.001   4.102
   92PMPE   H2S 6736   5.663   1.942   4.039
   92PMPE    C3 6737   5.506   2.422   4.080
   92PMPE    HX 6738   5.515   2.519   4.027
   92PMPE    HY 6739   5.591   2.404   4.146
   92PMPE   O31 6740   5.380   2.413   4.146
   92PMPE   C31 6741   5.386   2.403   4.277
   92PMPE   O32 6742   5.483   2.418   4.348
   92PMPE   C32 6743   5.246   2.370   4.323
   92PMPE   H2X 6744   5.195   2.312   4.243
   92PMPE   H2Y 6745   5.191   2.465   4.336
   92PMPE   C23 6746   5.682   1.979   4.257
   92PMPE   H3R 6747   5.706   1.872   4.274
   92PMPE   H3S 6748   5.574   2.000   4.274
   92PMPE   C24 6749   5.768   2.052   4.359
   92PMPE   H4R 6750   5.790   2.158   4.330
   92PMPE   H4S 6751   5.868   2.003   4.367
   92PMPE   C25 6752   5.687   2.043   4.488
   92PMPE   H5R 6753   5.680   1.941   4.523
   92PMPE   H5S 6754   5.587   2.091   4.472
   92PMPE   C26 6755   5.747   2.113   4.603
   92PMPE   H6R 6756   5.741   2.211   4.548
   92PMPE   H6S 6757   5.852   2.078   4.613
   92PMPE   C27 6758   5.671   2.108   4.741
   92PMPE   H7R 6759   5.679   2.002   4.772
   92PMPE   H7S 6760   5.570   2.144   4.719
   92PMPE   C28 6761   5.705   2.186   4.871
   92PMPE   H8R 6762   5.641   2.184   4.959
   92PMPE   H8S 6763   5.682   2.291   4.850
   92PMPE   C29 6764   5.847   2.157   4.913
   92PMPE   H9R 6765   5.922   2.208   4.863
   92PMPE  C217 6766   5.890   2.021   4.943
   92PMPE  H17R 6767   5.971   1.998   4.875
   92PMPE  H17S 6768   5.814   1.953   4.970
   92PMPE  C210 6769   5.900   2.133   5.050
   92PMPE  H10R 6770   5.993   2.190   5.071
   92PMPE  C211 6771   5.797   2.138   5.160
   92PMPE  H11R 6772   5.845   2.094   5.250
   92PMPE  H11S 6773   5.706   2.092   5.126
   92PMPE  C212 6774   5.762   2.277   5.190
   92PMPE  H12R 6775   5.748   2.331   5.094
   92PMPE  H12S 6776   5.855   2.276   5.252
   92PMPE  C213 6777   5.671   2.349   5.282
   92PMPE  H13R 6778   5.684   2.462   5.282
   92PMPE  H13S 6779   5.703   2.317   5.381
   92PMPE  C214 6780   5.541   2.319   5.217
   92PMPE  H14R 6781   5.528   2.211   5.233
   92PMPE  H14S 6782   5.545   2.341   5.108
   92PMPE  C215 6783   5.433   2.402   5.276
   92PMPE  H15R 6784   5.454   2.511   5.265
   92PMPE  H15S 6785   5.443   2.371   5.379
   92PMPE  C216 6786   5.295   2.366   5.227
   92PMPE  H16R 6787   5.219   2.422   5.286
   92PMPE  H16S 6788   5.288   2.394   5.120
   92PMPE  H16T 6789   5.275   2.257   5.241
   92PMPE   C33 6790   5.253   2.285   4.451
   92PMPE   H3X 6791   5.149   2.283   4.491
   92PMPE   H3Y 6792   5.320   2.328   4.529
   92PMPE   C34 6793   5.291   2.141   4.415
   92PMPE   H4X 6794   5.399   2.129   4.393
   92PMPE   H4Y 6795   5.238   2.120   4.318
   92PMPE   C35 6796   5.240   2.038   4.516
   92PMPE   H5X 6797   5.258   1.936   4.474
   92PMPE   H5Y 6798   5.130   2.053   4.525
   92PMPE   C36 6799   5.303   2.042   4.656
   92PMPE   H6X 6800   5.261   2.126   4.715
   92PMPE   H6Y 6801   5.413   2.054   4.647
   92PMPE   C37 6802   5.276   1.915   4.738
   92PMPE   H7X 6803   5.310   1.826   4.681
   92PMPE   H7Y 6804   5.168   1.894   4.747
   92PMPE   C38 6805   5.343   1.917   4.876
   92PMPE   H8X 6806   5.428   1.988   4.879
   92PMPE   H8Y 6807   5.376   1.812   4.898
   92PMPE   C39 6808   5.247   1.941   4.991
   92PMPE   H9X 6809   5.199   1.843   4.997
   92PMPE   H9Y 6810   5.172   2.015   4.965
   92PMPE  C310 6811   5.307   1.969   5.129
   92PMPE  H10X 6812   5.231   1.983   5.208
   92PMPE  H10Y 6813   5.390   2.042   5.130
   92PMPE  C311 6814   5.367   1.845   5.178
   92PMPE  H11X 6815   5.445   1.827   5.103
   92PMPE  H11Y 6816   5.292   1.766   5.153
   92PMPE  C312 6817   5.423   1.851   5.324
   92PMPE  H12X 6818   5.499   1.767   5.347
   92PMPE  H12Y 6819   5.357   1.850   5.412
   92PMPE  C313 6820   5.533   1.934   5.339
   92PMPE  H13X 6821   5.516   2.037   5.322
   92PMPE  H13Y 6822   5.571   1.906   5.236
   92PMPE  C314 6823   5.611   1.900   5.473
   92PMPE  H14X 6824   5.645   1.792   5.475
   92PMPE  H14Y 6825   5.550   1.880   5.558
   92PMPE  C315 6826   5.721   2.017   5.477
   92PMPE  H15X 6827   5.675   2.099   5.426
   92PMPE  H15Y 6828   5.811   1.998   5.414
   92PMPE  C316 6829   5.811   2.069   5.583
   92PMPE  H16X 6830   5.779   2.046   5.684
   92PMPE  H16Y 6831   5.910   2.103   5.545
   92PMPE  H16Z 6832   5.889   1.996   5.593
   93PMPE     N 6833   6.639   4.368   3.551
   93PMPE   HN1 6834   6.630   4.438   3.627
   93PMPE   HN2 6835   6.633   4.274   3.595
   93PMPE   HN3 6836   6.729   4.382   3.502
   93PMPE   C12 6837   6.523   4.374   3.454
   93PMPE  H12A 6838   6.545   4.303   3.371
   93PMPE  H12B 6839   6.517   4.477   3.416
   93PMPE   C11 6840   6.391   4.337   3.520
   93PMPE  H11A 6841   6.311   4.335   3.442
   93PMPE  H11B 6842   6.363   4.415   3.596
   93PMPE     P 6843   6.274   4.142   3.645
   93PMPE   O13 6844   6.182   4.097   3.540
   93PMPE   O14 6845   6.227   4.238   3.747
   93PMPE   O11 6846   6.329   4.019   3.717
   93PMPE   O12 6847   6.405   4.208   3.580
   93PMPE    C1 6848   6.418   3.929   3.655
   93PMPE    HA 6849   6.455   3.956   3.553
   93PMPE    HB 6850   6.374   3.826   3.653
   93PMPE    C2 6851   6.538   3.924   3.742
   93PMPE    HS 6852   6.590   3.839   3.696
   93PMPE   O21 6853   6.482   3.907   3.884
   93PMPE   C21 6854   6.521   3.862   4.011
   93PMPE   O22 6855   6.622   3.879   4.069
   93PMPE   C22 6856   6.449   3.758   4.094
   93PMPE   H2R 6857   6.423   3.678   4.022
   93PMPE   H2S 6858   6.362   3.806   4.138
   93PMPE    C3 6859   6.625   4.056   3.706
   93PMPE    HX 6860   6.642   4.078   3.600
   93PMPE    HY 6861   6.735   4.034   3.710
   93PMPE   O31 6862   6.578   4.168   3.783
   93PMPE   C31 6863   6.641   4.219   3.887
   93PMPE   O32 6864   6.761   4.232   3.901
   93PMPE   C32 6865   6.548   4.295   3.974
   93PMPE   H2X 6866   6.481   4.233   4.037
   93PMPE   H2Y 6867   6.494   4.362   3.904
   93PMPE   C23 6868   6.550   3.708   4.210
   93PMPE   H3R 6869   6.649   3.688   4.172
   93PMPE   H3S 6870   6.538   3.604   4.245
   93PMPE   C24 6871   6.600   3.811   4.313
   93PMPE   H4R 6872   6.560   3.909   4.278
   93PMPE   H4S 6873   6.712   3.823   4.314
   93PMPE   C25 6874   6.538   3.766   4.438
   93PMPE   H5R 6875   6.601   3.684   4.481
   93PMPE   H5S 6876   6.437   3.730   4.413
   93PMPE   C26 6877   6.514   3.874   4.533
   93PMPE   H6R 6878   6.435   3.847   4.605
   93PMPE   H6S 6879   6.487   3.972   4.485
   93PMPE   C27 6880   6.641   3.880   4.610
   93PMPE   H7R 6881   6.621   3.979   4.625
   93PMPE   H7S 6882   6.734   3.887   4.551
   93PMPE   C28 6883   6.637   3.836   4.756
   93PMPE   H8R 6884   6.552   3.888   4.805
   93PMPE   H8S 6885   6.727   3.854   4.818
   93PMPE   C29 6886   6.634   3.693   4.765
   93PMPE   H9R 6887   6.709   3.639   4.707
   93PMPE  C217 6888   6.495   3.641   4.768
   93PMPE  H17R 6889   6.485   3.548   4.718
   93PMPE  H17S 6890   6.422   3.722   4.774
   93PMPE  C210 6891   6.581   3.633   4.892
   93PMPE  H10R 6892   6.647   3.548   4.914
   93PMPE  C211 6893   6.542   3.733   4.999
   93PMPE  H11R 6894   6.459   3.801   4.969
   93PMPE  H11S 6895   6.636   3.784   5.021
   93PMPE  C212 6896   6.498   3.674   5.131
   93PMPE  H12R 6897   6.589   3.622   5.170
   93PMPE  H12S 6898   6.416   3.611   5.092
   93PMPE  C213 6899   6.426   3.751   5.247
   93PMPE  H13R 6900   6.353   3.824   5.210
   93PMPE  H13S 6901   6.521   3.787   5.279
   93PMPE  C214 6902   6.414   3.721   5.400
   93PMPE  H14R 6903   6.501   3.661   5.432
   93PMPE  H14S 6904   6.339   3.650   5.426
   93PMPE  C215 6905   6.375   3.837   5.495
   93PMPE  H15R 6906   6.288   3.893   5.454
   93PMPE  H15S 6907   6.456   3.910   5.514
   93PMPE  C216 6908   6.336   3.775   5.629
   93PMPE  H16R 6909   6.311   3.849   5.706
   93PMPE  H16S 6910   6.247   3.715   5.610
   93PMPE  H16T 6911   6.413   3.703   5.664
   93PMPE   C33 6912   6.632   4.378   4.069
   93PMPE   H3X 6913   6.721   4.425   4.020
   93PMPE   H3Y 6914   6.676   4.312   4.142
   93PMPE   C34 6915   6.537   4.477   4.136
   93PMPE   H4X 6916   6.494   4.544   4.059
   93PMPE   H4Y 6917   6.596   4.542   4.197
   93PMPE   C35 6918   6.456   4.437   4.255
   93PMPE   H5X 6919   6.406   4.344   4.224
   93PMPE   H5Y 6920   6.388   4.521   4.279
   93PMPE   C36 6921   6.534   4.408   4.383
   93PMPE   H6X 6922   6.605   4.476   4.424
   93PMPE   H6Y 6923   6.602   4.331   4.351
   93PMPE   C37 6924   6.431   4.386   4.493
   93PMPE   H7X 6925   6.375   4.297   4.456
   93PMPE   H7Y 6926   6.370   4.477   4.502
   93PMPE   C38 6927   6.471   4.352   4.635
   93PMPE   H8X 6928   6.515   4.420   4.710
   93PMPE   H8Y 6929   6.552   4.295   4.612
   93PMPE   C39 6930   6.392   4.245   4.700
   93PMPE   H9X 6931   6.396   4.151   4.638
   93PMPE   H9Y 6932   6.290   4.285   4.712
   93PMPE  C310 6933   6.443   4.215   4.837
   93PMPE  H10X 6934   6.457   4.301   4.905
   93PMPE  H10Y 6935   6.542   4.178   4.835
   93PMPE  C311 6936   6.358   4.105   4.892
   93PMPE  H11X 6937   6.428   4.061   4.958
   93PMPE  H11Y 6938   6.349   4.013   4.833
   93PMPE  C312 6939   6.234   4.171   4.950
   93PMPE  H12X 6940   6.167   4.191   4.863
   93PMPE  H12Y 6941   6.258   4.272   4.991
   93PMPE  C313 6942   6.162   4.093   5.060
   93PMPE  H13X 6943   6.080   4.163   5.092
   93PMPE  H13Y 6944   6.224   4.078   5.150
   93PMPE  C314 6945   6.113   3.957   5.009
   93PMPE  H14X 6946   6.194   3.886   4.987
   93PMPE  H14Y 6947   6.068   3.978   4.910
   93PMPE  C315 6948   6.009   3.887   5.098
   93PMPE  H15X 6949   5.943   3.816   5.042
   93PMPE  H15Y 6950   5.948   3.970   5.126
   93PMPE  C316 6951   6.057   3.819   5.223
   93PMPE  H16X 6952   5.975   3.799   5.295
   93PMPE  H16Y 6953   6.141   3.872   5.271
   93PMPE  H16Z 6954   6.099   3.725   5.187
   94PMPE     N 6955   5.209   5.908   3.373
   94PMPE   HN1 6956   5.135   5.839   3.353
   94PMPE   HN2 6957   5.281   5.908   3.297
   94PMPE   HN3 6958   5.255   5.880   3.462
   94PMPE   C12 6959   5.151   6.047   3.385
   94PMPE  H12A 6960   5.139   6.086   3.282
   94PMPE  H12B 6961   5.225   6.109   3.439
   94PMPE   C11 6962   5.012   6.054   3.453
   94PMPE  H11A 6963   4.933   6.023   3.381
   94PMPE  H11B 6964   4.992   6.162   3.477
   94PMPE     P 6965   5.041   6.025   3.711
   94PMPE   O13 6966   4.921   6.068   3.787
   94PMPE   O14 6967   5.153   6.120   3.692
   94PMPE   O11 6968   5.102   5.897   3.778
   94PMPE   O12 6969   5.002   5.971   3.567
   94PMPE    C1 6970   5.180   5.795   3.715
   94PMPE    HA 6971   5.247   5.836   3.636
   94PMPE    HB 6972   5.115   5.717   3.671
   94PMPE    C2 6973   5.271   5.728   3.818
   94PMPE    HS 6974   5.294   5.621   3.794
   94PMPE   O21 6975   5.234   5.739   3.956
   94PMPE   C21 6976   5.113   5.701   3.986
   94PMPE   O22 6977   5.043   5.628   3.918
   94PMPE   C22 6978   5.077   5.758   4.123
   94PMPE   H2R 6979   4.972   5.731   4.144
   94PMPE   H2S 6980   5.086   5.869   4.117
   94PMPE    C3 6981   5.402   5.797   3.804
   94PMPE    HX 6982   5.453   5.764   3.711
   94PMPE    HY 6983   5.453   5.754   3.888
   94PMPE   O31 6984   5.409   5.939   3.817
   94PMPE   C31 6985   5.410   5.981   3.942
   94PMPE   O32 6986   5.426   5.913   4.043
   94PMPE   C32 6987   5.388   6.125   3.944
   94PMPE   H2X 6988   5.292   6.158   3.898
   94PMPE   H2Y 6989   5.473   6.181   3.897
   94PMPE   C23 6990   5.168   5.708   4.237
   94PMPE   H3R 6991   5.266   5.760   4.232
   94PMPE   H3S 6992   5.189   5.599   4.224
   94PMPE   C24 6993   5.106   5.722   4.376
   94PMPE   H4R 6994   5.004   5.766   4.371
   94PMPE   H4S 6995   5.168   5.792   4.437
   94PMPE   C25 6996   5.092   5.587   4.446
   94PMPE   H5R 6997   5.181   5.524   4.437
   94PMPE   H5S 6998   5.018   5.526   4.390
   94PMPE   C26 6999   5.049   5.605   4.592
   94PMPE   H6R 7000   5.021   5.507   4.635
   94PMPE   H6S 7001   4.960   5.671   4.591
   94PMPE   C27 7002   5.152   5.667   4.687
   94PMPE   H7R 7003   5.100   5.716   4.771
   94PMPE   H7S 7004   5.214   5.745   4.638
   94PMPE   C28 7005   5.238   5.557   4.750
   94PMPE   H8R 7006   5.279   5.499   4.666
   94PMPE   H8S 7007   5.182   5.478   4.800
   94PMPE   C29 7008   5.341   5.623   4.843
   94PMPE   H9R 7009   5.391   5.711   4.803
   94PMPE  C217 7010   5.400   5.546   4.964
   94PMPE  H17R 7011   5.495   5.579   5.007
   94PMPE  H17S 7012   5.365   5.445   4.966
   94PMPE  C210 7013   5.304   5.659   4.978
   94PMPE  H10R 7014   5.352   5.750   5.023
   94PMPE  C211 7015   5.171   5.606   5.021
   94PMPE  H11R 7016   5.149   5.506   4.984
   94PMPE  H11S 7017   5.094   5.682   4.992
   94PMPE  C212 7018   5.176   5.597   5.167
   94PMPE  H12R 7019   5.076   5.605   5.213
   94PMPE  H12S 7020   5.218   5.695   5.159
   94PMPE  C213 7021   5.262   5.498   5.250
   94PMPE  H13R 7022   5.369   5.509   5.230
   94PMPE  H13S 7023   5.229   5.406   5.200
   94PMPE  C214 7024   5.216   5.494   5.401
   94PMPE  H14R 7025   5.106   5.508   5.403
   94PMPE  H14S 7026   5.256   5.573   5.465
   94PMPE  C215 7027   5.251   5.394   5.505
   94PMPE  H15R 7028   5.273   5.294   5.470
   94PMPE  H15S 7029   5.183   5.407   5.593
   94PMPE  C216 7030   5.377   5.411   5.558
   94PMPE  H16R 7031   5.392   5.348   5.644
   94PMPE  H16S 7032   5.454   5.430   5.477
   94PMPE  H16T 7033   5.373   5.486   5.633
   94PMPE   C33 7034   5.375   6.146   4.092
   94PMPE   H3X 7035   5.357   6.250   4.082
   94PMPE   H3Y 7036   5.467   6.125   4.151
   94PMPE   C34 7037   5.244   6.145   4.166
   94PMPE   H4X 7038   5.201   6.047   4.139
   94PMPE   H4Y 7039   5.175   6.227   4.133
   94PMPE   C35 7040   5.267   6.156   4.316
   94PMPE   H5X 7041   5.307   6.255   4.351
   94PMPE   H5Y 7042   5.341   6.078   4.346
   94PMPE   C36 7043   5.136   6.132   4.385
   94PMPE   H6X 7044   5.092   6.033   4.356
   94PMPE   H6Y 7045   5.061   6.210   4.356
   94PMPE   C37 7046   5.155   6.134   4.534
   94PMPE   H7X 7047   5.203   6.230   4.566
   94PMPE   H7Y 7048   5.220   6.051   4.570
   94PMPE   C38 7049   5.016   6.118   4.587
   94PMPE   H8X 7050   4.962   6.030   4.548
   94PMPE   H8Y 7051   4.955   6.209   4.557
   94PMPE   C39 7052   5.023   6.104   4.735
   94PMPE   H9X 7053   5.012   6.211   4.728
   94PMPE   H9Y 7054   5.121   6.081   4.784
   94PMPE  C310 7055   4.905   6.034   4.797
   94PMPE  H10X 7056   4.911   5.933   4.754
   94PMPE  H10Y 7057   4.808   6.082   4.769
   94PMPE  C311 7058   4.914   6.004   4.943
   94PMPE  H11X 7059   4.881   6.074   5.014
   94PMPE  H11Y 7060   5.016   5.985   4.983
   94PMPE  C312 7061   4.794   5.937   4.998
   94PMPE  H12X 7062   4.776   5.845   4.941
   94PMPE  H12Y 7063   4.699   5.999   4.998
   94PMPE  C313 7064   4.835   5.923   5.141
   94PMPE  H13X 7065   4.826   6.011   5.209
   94PMPE  H13Y 7066   4.935   5.882   5.142
   94PMPE  C314 7067   4.743   5.836   5.192
   94PMPE  H14X 7068   4.799   5.785   5.275
   94PMPE  H14Y 7069   4.756   5.741   5.132
   94PMPE  C315 7070   4.603   5.924   5.226
   94PMPE  H15X 7071   4.614   6.031   5.209
   94PMPE  H15Y 7072   4.591   5.929   5.333
   94PMPE  C316 7073   4.448   5.904   5.191
   94PMPE  H16X 7074   4.468   5.905   5.083
   94PMPE  H16Y 7075   4.356   5.842   5.208
   94PMPE  H16Z 7076   4.419   5.808   5.228
   95PMPE     N 7077   4.847   1.874   3.749
   95PMPE   HN1 7078   4.902   1.805   3.805
   95PMPE   HN2 7079   4.907   1.957   3.726
   95PMPE   HN3 7080   4.765   1.908   3.803
   95PMPE   C12 7081   4.791   1.813   3.624
   95PMPE  H12A 7082   4.741   1.718   3.650
   95PMPE  H12B 7083   4.875   1.788   3.555
   95PMPE   C11 7084   4.689   1.909   3.563
   95PMPE  H11A 7085   4.679   1.886   3.455
   95PMPE  H11B 7086   4.724   2.015   3.570
   95PMPE     P 7087   4.458   1.791   3.560
   95PMPE   O13 7088   4.543   1.690   3.488
   95PMPE   O14 7089   4.349   1.860   3.489
   95PMPE   O11 7090   4.404   1.715   3.686
   95PMPE   O12 7091   4.562   1.896   3.626
   95PMPE    C1 7092   4.394   1.782   3.811
   95PMPE    HA 7093   4.306   1.751   3.868
   95PMPE    HB 7094   4.377   1.892   3.802
   95PMPE    C2 7095   4.512   1.747   3.901
   95PMPE    HS 7096   4.599   1.796   3.856
   95PMPE   O21 7097   4.532   1.606   3.912
   95PMPE   C21 7098   4.652   1.581   3.959
   95PMPE   O22 7099   4.745   1.660   3.964
   95PMPE   C22 7100   4.660   1.438   3.985
   95PMPE   H2R 7101   4.758   1.393   3.989
   95PMPE   H2S 7102   4.629   1.391   3.889
   95PMPE    C3 7103   4.483   1.801   4.040
   95PMPE    HX 7104   4.466   1.910   4.018
   95PMPE    HY 7105   4.570   1.792   4.108
   95PMPE   O31 7106   4.368   1.726   4.093
   95PMPE   C31 7107   4.320   1.800   4.190
   95PMPE   O32 7108   4.365   1.908   4.215
   95PMPE   C32 7109   4.217   1.732   4.276
   95PMPE   H2X 7110   4.273   1.645   4.317
   95PMPE   H2Y 7111   4.130   1.702   4.215
   95PMPE   C23 7112   4.664   1.395   4.129
   95PMPE   H3R 7113   4.758   1.424   4.180
   95PMPE   H3S 7114   4.672   1.286   4.139
   95PMPE   C24 7115   4.543   1.429   4.204
   95PMPE   H4R 7116   4.454   1.409   4.140
   95PMPE   H4S 7117   4.529   1.536   4.223
   95PMPE   C25 7118   4.546   1.336   4.323
   95PMPE   H5R 7119   4.559   1.233   4.283
   95PMPE   H5S 7120   4.454   1.359   4.381
   95PMPE   C26 7121   4.645   1.325   4.426
   95PMPE   H6R 7122   4.736   1.283   4.380
   95PMPE   H6S 7123   4.605   1.252   4.501
   95PMPE   C27 7124   4.636   1.466   4.467
   95PMPE   H7R 7125   4.532   1.496   4.497
   95PMPE   H7S 7126   4.670   1.533   4.386
   95PMPE   C28 7127   4.718   1.476   4.584
   95PMPE   H8R 7128   4.819   1.437   4.555
   95PMPE   H8S 7129   4.674   1.404   4.658
   95PMPE   C29 7130   4.712   1.624   4.622
   95PMPE   H9R 7131   4.621   1.682   4.613
   95PMPE  C217 7132   4.844   1.696   4.611
   95PMPE  H17R 7133   4.843   1.802   4.595
   95PMPE  H17S 7134   4.920   1.634   4.573
   95PMPE  C210 7135   4.784   1.652   4.745
   95PMPE  H10R 7136   4.762   1.739   4.809
   95PMPE  C211 7137   4.823   1.518   4.799
   95PMPE  H11R 7138   4.909   1.549   4.838
   95PMPE  H11S 7139   4.881   1.450   4.736
   95PMPE  C212 7140   4.749   1.453   4.915
   95PMPE  H12R 7141   4.817   1.387   4.975
   95PMPE  H12S 7142   4.688   1.380   4.864
   95PMPE  C213 7143   4.667   1.551   5.002
   95PMPE  H13R 7144   4.632   1.640   4.949
   95PMPE  H13S 7145   4.707   1.627   5.069
   95PMPE  C214 7146   4.592   1.477   5.108
   95PMPE  H14R 7147   4.496   1.454   5.059
   95PMPE  H14S 7148   4.581   1.536   5.203
   95PMPE  C215 7149   4.651   1.346   5.151
   95PMPE  H15R 7150   4.753   1.336   5.181
   95PMPE  H15S 7151   4.653   1.273   5.069
   95PMPE  C216 7152   4.571   1.299   5.266
   95PMPE  H16R 7153   4.568   1.349   5.363
   95PMPE  H16S 7154   4.465   1.293   5.235
   95PMPE  H16T 7155   4.623   1.201   5.286
   95PMPE   C33 7156   4.168   1.814   4.396
   95PMPE   H3X 7157   4.092   1.754   4.451
   95PMPE   H3Y 7158   4.116   1.909   4.368
   95PMPE   C34 7159   4.275   1.846   4.501
   95PMPE   H4X 7160   4.217   1.891   4.581
   95PMPE   H4Y 7161   4.359   1.907   4.467
   95PMPE   C35 7162   4.373   1.746   4.551
   95PMPE   H5X 7163   4.443   1.798   4.622
   95PMPE   H5Y 7164   4.433   1.710   4.465
   95PMPE   C36 7165   4.303   1.631   4.613
   95PMPE   H6X 7166   4.384   1.569   4.657
   95PMPE   H6Y 7167   4.242   1.582   4.535
   95PMPE   C37 7168   4.211   1.661   4.727
   95PMPE   H7X 7169   4.166   1.561   4.749
   95PMPE   H7Y 7170   4.128   1.732   4.701
   95PMPE   C38 7171   4.299   1.682   4.849
   95PMPE   H8X 7172   4.333   1.776   4.861
   95PMPE   H8Y 7173   4.386   1.618   4.859
   95PMPE   C39 7174   4.229   1.689   4.975
   95PMPE   H9X 7175   4.219   1.585   5.013
   95PMPE   H9Y 7176   4.137   1.730   4.925
   95PMPE  C310 7177   4.256   1.783   5.092
   95PMPE  H10X 7178   4.226   1.723   5.178
   95PMPE  H10Y 7179   4.190   1.872   5.096
   95PMPE  C311 7180   4.396   1.799   5.145
   95PMPE  H11X 7181   4.460   1.847   5.073
   95PMPE  H11Y 7182   4.438   1.698   5.157
   95PMPE  C312 7183   4.395   1.884   5.272
   95PMPE  H12X 7184   4.325   1.970   5.259
   95PMPE  H12Y 7185   4.498   1.924   5.285
   95PMPE  C313 7186   4.354   1.813   5.400
   95PMPE  H13X 7187   4.244   1.800   5.399
   95PMPE  H13Y 7188   4.374   1.880   5.487
   95PMPE  C314 7189   4.431   1.683   5.422
   95PMPE  H14X 7190   4.539   1.707   5.428
   95PMPE  H14Y 7191   4.418   1.609   5.340
   95PMPE  C315 7192   4.390   1.622   5.554
   95PMPE  H15X 7193   4.289   1.634   5.568
   95PMPE  H15Y 7194   4.431   1.677   5.641
   95PMPE  C316 7195   4.403   1.476   5.565
   95PMPE  H16X 7196   4.502   1.459   5.525
   95PMPE  H16Y 7197   4.339   1.408   5.504
   95PMPE  H16Z 7198   4.402   1.444   5.671
   96PMPE     N 7199   1.235   3.760   3.795
   96PMPE   HN1 7200   1.305   3.824   3.834
   96PMPE   HN2 7201   1.141   3.807   3.806
   96PMPE   HN3 7202   1.232   3.672   3.853
   96PMPE   C12 7203   1.260   3.725   3.651
   96PMPE  H12A 7204   1.203   3.635   3.625
   96PMPE  H12B 7205   1.363   3.688   3.643
   96PMPE   C11 7206   1.236   3.845   3.556
   96PMPE  H11A 7207   1.231   3.815   3.449
   96PMPE  H11B 7208   1.330   3.905   3.568
   96PMPE     P 7209   1.121   4.077   3.546
   96PMPE   O13 7210   1.009   4.107   3.454
   96PMPE   O14 7211   1.256   4.106   3.497
   96PMPE   O11 7212   1.100   4.149   3.686
   96PMPE   O12 7213   1.120   3.922   3.590
   96PMPE    C1 7214   1.203   4.146   3.785
   96PMPE    HA 7215   1.289   4.211   3.758
   96PMPE    HB 7216   1.243   4.043   3.800
   96PMPE    C2 7217   1.150   4.194   3.922
   96PMPE    HS 7218   1.212   4.151   4.004
   96PMPE   O21 7219   1.012   4.159   3.941
   96PMPE   C21 7220   0.991   4.029   3.943
   96PMPE   O22 7221   1.077   3.943   3.959
   96PMPE   C22 7222   0.840   4.008   3.945
   96PMPE   H2R 7223   0.785   4.044   3.858
   96PMPE   H2S 7224   0.825   4.071   4.036
   96PMPE    C3 7225   1.168   4.348   3.932
   96PMPE    HX 7226   1.118   4.400   3.848
   96PMPE    HY 7227   1.275   4.375   3.935
   96PMPE   O31 7228   1.111   4.398   4.048
   96PMPE   C31 7229   1.136   4.338   4.159
   96PMPE   O32 7230   1.246   4.301   4.198
   96PMPE   C32 7231   1.009   4.374   4.239
   96PMPE   H2X 7232   0.917   4.323   4.249
   96PMPE   H2Y 7233   0.995   4.479   4.230
   96PMPE   C23 7234   0.779   3.880   3.985
   96PMPE   H3R 7235   0.802   3.803   3.911
   96PMPE   H3S 7236   0.669   3.857   3.989
   96PMPE   C24 7237   0.838   3.879   4.125
   96PMPE   H4R 7238   0.943   3.855   4.154
   96PMPE   H4S 7239   0.810   3.783   4.113
   96PMPE   C25 7240   0.752   3.933   4.233
   96PMPE   H5R 7241   0.650   3.882   4.223
   96PMPE   H5S 7242   0.748   4.041   4.235
   96PMPE   C26 7243   0.810   3.910   4.366
   96PMPE   H6R 7244   0.856   3.812   4.338
   96PMPE   H6S 7245   0.724   3.912   4.437
   96PMPE   C27 7246   0.946   3.936   4.429
   96PMPE   H7R 7247   0.931   4.044   4.427
   96PMPE   H7S 7248   1.024   3.899   4.359
   96PMPE   C28 7249   0.981   3.886   4.574
   96PMPE   H8R 7250   0.970   3.779   4.603
   96PMPE   H8S 7251   0.913   3.938   4.643
   96PMPE   C29 7252   1.128   3.919   4.591
   96PMPE   H9R 7253   1.159   4.018   4.553
   96PMPE  C217 7254   1.200   3.804   4.516
   96PMPE  H17R 7255   1.254   3.850   4.434
   96PMPE  H17S 7256   1.136   3.719   4.500
   96PMPE  C210 7257   1.236   3.840   4.659
   96PMPE  H10R 7258   1.336   3.886   4.667
   96PMPE  C211 7259   1.194   3.748   4.771
   96PMPE  H11R 7260   1.290   3.706   4.810
   96PMPE  H11S 7261   1.128   3.668   4.729
   96PMPE  C212 7262   1.130   3.807   4.896
   96PMPE  H12R 7263   1.094   3.724   4.960
   96PMPE  H12S 7264   1.037   3.856   4.867
   96PMPE  C213 7265   1.232   3.893   4.973
   96PMPE  H13R 7266   1.260   3.977   4.906
   96PMPE  H13S 7267   1.326   3.837   4.994
   96PMPE  C214 7268   1.180   3.953   5.104
   96PMPE  H14R 7269   1.159   3.869   5.172
   96PMPE  H14S 7270   1.088   4.009   5.082
   96PMPE  C215 7271   1.279   4.050   5.171
   96PMPE  H15R 7272   1.292   4.138   5.103
   96PMPE  H15S 7273   1.375   3.995   5.174
   96PMPE  C216 7274   1.243   4.103   5.311
   96PMPE  H16R 7275   1.140   4.145   5.317
   96PMPE  H16S 7276   1.252   4.024   5.389
   96PMPE  H16T 7277   1.313   4.185   5.338
   96PMPE   C33 7278   1.016   4.361   4.378
   96PMPE   H3X 7279   1.103   4.432   4.360
   96PMPE   H3Y 7280   1.058   4.261   4.394
   96PMPE   C34 7281   0.901   4.398   4.485
   96PMPE   H4X 7282   0.804   4.371   4.447
   96PMPE   H4Y 7283   0.881   4.501   4.519
   96PMPE   C35 7284   0.919   4.364   4.634
   96PMPE   H5X 7285   0.848   4.399   4.708
   96PMPE   H5Y 7286   0.993   4.440   4.667
   96PMPE   C36 7287   0.951   4.216   4.657
   96PMPE   H6X 7288   1.056   4.185   4.646
   96PMPE   H6Y 7289   0.899   4.169   4.573
   96PMPE   C37 7290   0.913   4.155   4.791
   96PMPE   H7X 7291   0.972   4.167   4.880
   96PMPE   H7Y 7292   0.946   4.051   4.791
   96PMPE   C38 7293   0.772   4.194   4.825
   96PMPE   H8X 7294   0.718   4.157   4.736
   96PMPE   H8Y 7295   0.752   4.303   4.835
   96PMPE   C39 7296   0.728   4.128   4.951
   96PMPE   H9X 7297   0.777   4.028   4.954
   96PMPE   H9Y 7298   0.619   4.116   4.935
   96PMPE  C310 7299   0.750   4.212   5.077
   96PMPE  H10X 7300   0.686   4.302   5.075
   96PMPE  H10Y 7301   0.854   4.240   5.098
   96PMPE  C311 7302   0.738   4.136   5.205
   96PMPE  H11X 7303   0.630   4.118   5.221
   96PMPE  H11Y 7304   0.768   4.199   5.286
   96PMPE  C312 7305   0.848   4.029   5.225
   96PMPE  H12X 7306   0.924   4.046   5.150
   96PMPE  H12Y 7307   0.832   3.925   5.199
   96PMPE  C313 7308   0.882   4.003   5.370
   96PMPE  H13X 7309   0.789   4.011   5.430
   96PMPE  H13Y 7310   0.937   4.091   5.405
   96PMPE  C314 7311   0.970   3.875   5.385
   96PMPE  H14X 7312   1.010   3.878   5.487
   96PMPE  H14Y 7313   1.047   3.872   5.311
   96PMPE  C315 7314   0.922   3.735   5.346
   96PMPE  H15X 7315   0.898   3.698   5.247
   96PMPE  H15Y 7316   0.824   3.768   5.369
   96PMPE  C316 7317   0.966   3.606   5.414
   96PMPE  H16X 7318   1.031   3.544   5.351
   96PMPE  H16Y 7319   0.867   3.562   5.417
   96PMPE  H16Z 7320   0.989   3.597   5.522
   97PMPE     N 7321   6.171   2.731   3.434
   97PMPE   HN1 7322   6.085   2.741   3.377
   97PMPE   HN2 7323   6.252   2.779   3.390
   97PMPE   HN3 7324   6.201   2.630   3.440
   97PMPE   C12 7325   6.151   2.770   3.579
   97PMPE  H12A 7326   6.049   2.808   3.594
   97PMPE  H12B 7327   6.224   2.849   3.604
   97PMPE   C11 7328   6.175   2.644   3.663
   97PMPE  H11A 7329   6.096   2.569   3.635
   97PMPE  H11B 7330   6.162   2.663   3.772
   97PMPE     P 7331   6.328   2.442   3.603
   97PMPE   O13 7332   6.472   2.412   3.613
   97PMPE   O14 7333   6.258   2.437   3.473
   97PMPE   O11 7334   6.248   2.378   3.723
   97PMPE   O12 7335   6.307   2.596   3.640
   97PMPE    C1 7336   6.286   2.409   3.858
   97PMPE    HA 7337   6.272   2.517   3.883
   97PMPE    HB 7338   6.392   2.381   3.879
   97PMPE    C2 7339   6.191   2.341   3.956
   97PMPE    HS 7340   6.174   2.239   3.916
   97PMPE   O21 7341   6.069   2.417   3.949
   97PMPE   C21 7342   5.974   2.362   4.020
   97PMPE   O22 7343   5.990   2.267   4.094
   97PMPE   C22 7344   5.856   2.459   4.017
   97PMPE   H2R 7345   5.757   2.416   4.025
   97PMPE   H2S 7346   5.846   2.506   3.919
   97PMPE    C3 7347   6.253   2.336   4.100
   97PMPE    HX 7348   6.358   2.298   4.097
   97PMPE    HY 7349   6.199   2.266   4.164
   97PMPE   O31 7350   6.253   2.458   4.165
   97PMPE   C31 7351   6.210   2.461   4.289
   97PMPE   O32 7352   6.161   2.372   4.356
   97PMPE   C32 7353   6.244   2.597   4.336
   97PMPE   H2X 7354   6.148   2.650   4.350
   97PMPE   H2Y 7355   6.304   2.645   4.255
   97PMPE   C23 7356   5.861   2.537   4.149
   97PMPE   H3R 7357   5.938   2.613   4.136
   97PMPE   H3S 7358   5.888   2.465   4.231
   97PMPE   C24 7359   5.728   2.595   4.191
   97PMPE   H4R 7360   5.672   2.521   4.251
   97PMPE   H4S 7361   5.669   2.634   4.104
   97PMPE   C25 7362   5.726   2.696   4.301
   97PMPE   H5R 7363   5.616   2.707   4.317
   97PMPE   H5S 7364   5.774   2.783   4.262
   97PMPE   C26 7365   5.788   2.667   4.434
   97PMPE   H6R 7366   5.768   2.756   4.499
   97PMPE   H6S 7367   5.898   2.657   4.424
   97PMPE   C27 7368   5.727   2.547   4.505
   97PMPE   H7R 7369   5.758   2.453   4.454
   97PMPE   H7S 7370   5.616   2.549   4.505
   97PMPE   C28 7371   5.766   2.554   4.650
   97PMPE   H8R 7372   5.689   2.506   4.716
   97PMPE   H8S 7373   5.791   2.653   4.691
   97PMPE   C29 7374   5.896   2.487   4.654
   97PMPE   H9R 7375   5.967   2.497   4.571
   97PMPE  C217 7376   5.860   2.348   4.684
   97PMPE  H17R 7377   5.908   2.269   4.636
   97PMPE  H17S 7378   5.756   2.338   4.690
   97PMPE  C210 7379   5.936   2.427   4.779
   97PMPE  H10R 7380   6.034   2.400   4.807
   97PMPE  C211 7381   5.876   2.434   4.900
   97PMPE  H11R 7382   5.918   2.352   4.963
   97PMPE  H11S 7383   5.767   2.443   4.908
   97PMPE  C212 7384   5.961   2.533   4.951
   97PMPE  H12R 7385   5.935   2.622   4.884
   97PMPE  H12S 7386   6.070   2.508   4.969
   97PMPE  C213 7387   5.895   2.506   5.074
   97PMPE  H13R 7388   5.783   2.522   5.073
   97PMPE  H13S 7389   5.946   2.595   5.058
   97PMPE  C214 7390   5.958   2.459   5.207
   97PMPE  H14R 7391   5.954   2.373   5.145
   97PMPE  H14S 7392   5.891   2.461   5.298
   97PMPE  C215 7393   6.099   2.446   5.242
   97PMPE  H15R 7394   6.142   2.548   5.252
   97PMPE  H15S 7395   6.138   2.390   5.154
   97PMPE  C216 7396   6.117   2.367   5.370
   97PMPE  H16R 7397   6.226   2.345   5.372
   97PMPE  H16S 7398   6.088   2.424   5.461
   97PMPE  H16T 7399   6.060   2.271   5.372
   97PMPE   C33 7400   6.337   2.594   4.456
   97PMPE   H3X 7401   6.387   2.692   4.466
   97PMPE   H3Y 7402   6.415   2.514   4.444
   97PMPE   C34 7403   6.260   2.572   4.582
   97PMPE   H4X 7404   6.272   2.463   4.583
   97PMPE   H4Y 7405   6.155   2.607   4.586
   97PMPE   C35 7406   6.328   2.614   4.707
   97PMPE   H5X 7407   6.370   2.717   4.697
   97PMPE   H5Y 7408   6.407   2.537   4.713
   97PMPE   C36 7409   6.237   2.594   4.828
   97PMPE   H6X 7410   6.216   2.490   4.853
   97PMPE   H6Y 7411   6.147   2.658   4.813
   97PMPE   C37 7412   6.298   2.646   4.951
   97PMPE   H7X 7413   6.244   2.666   5.046
   97PMPE   H7Y 7414   6.338   2.729   4.892
   97PMPE   C38 7415   6.395   2.574   5.021
   97PMPE   H8X 7416   6.455   2.528   4.942
   97PMPE   H8Y 7417   6.363   2.490   5.086
   97PMPE   C39 7418   6.469   2.668   5.112
   97PMPE   H9X 7419   6.511   2.759   5.058
   97PMPE   H9Y 7420   6.533   2.575   5.139
   97PMPE  C310 7421   6.483   2.820   5.195
   97PMPE  H10X 7422   6.421   2.733   5.189
   97PMPE  H10Y 7423   6.410   2.876   5.211
   97PMPE  C311 7424   6.523   2.881   5.355
   97PMPE  H11X 7425   6.596   2.940   5.306
   97PMPE  H11Y 7426   6.580   2.826   5.433
   97PMPE  C312 7427   6.451   2.889   5.500
   97PMPE  H12X 7428   6.517   2.934   5.579
   97PMPE  H12Y 7429   6.438   2.791   5.558
   97PMPE  C313 7430   6.312   2.940   5.479
   97PMPE  H13X 7431   6.243   2.906   5.398
   97PMPE  H13Y 7432   6.324   3.039   5.453
   97PMPE  C314 7433   6.234   2.924   5.596
   97PMPE  H14X 7434   6.155   3.002   5.593
   97PMPE  H14Y 7435   6.296   2.925   5.687
   97PMPE  C315 7436   6.187   2.786   5.589
   97PMPE  H15X 7437   6.242   2.696   5.555
   97PMPE  H15Y 7438   6.111   2.785   5.513
   97PMPE  C316 7439   6.133   2.773   5.724
   97PMPE  H16X 7440   6.054   2.847   5.752
   97PMPE  H16Y 7441   6.184   2.739   5.812
   97PMPE  H16Z 7442   6.095   2.682   5.682
   98PMPE     N 7443   2.469   6.221   3.571
   98PMPE   HN1 7444   2.567   6.252   3.575
   98PMPE   HN2 7445   2.460   6.131   3.519
   98PMPE   HN3 7446   2.412   6.292   3.522
   98PMPE   C12 7447   2.406   6.208   3.707
   98PMPE  H12A 7448   2.426   6.303   3.760
   98PMPE  H12B 7449   2.452   6.123   3.760
   98PMPE   C11 7450   2.255   6.186   3.688
   98PMPE  H11A 7451   2.216   6.275   3.633
   98PMPE  H11B 7452   2.203   6.182   3.787
   98PMPE     P 7453   2.093   6.029   3.551
   98PMPE   O13 7454   2.102   5.915   3.458
   98PMPE   O14 7455   2.043   6.155   3.493
   98PMPE   O11 7456   2.000   5.990   3.672
   98PMPE   O12 7457   2.233   6.065   3.615
   98PMPE    C1 7458   1.882   5.911   3.643
   98PMPE    HA 7459   1.899   5.827   3.573
   98PMPE    HB 7460   1.803   5.977   3.598
   98PMPE    C2 7461   1.832   5.837   3.771
   98PMPE    HS 7462   1.732   5.790   3.748
   98PMPE   O21 7463   1.814   5.918   3.879
   98PMPE   C21 7464   1.729   5.992   3.854
   98PMPE   O22 7465   1.638   5.992   3.771
   98PMPE   C22 7466   1.792   6.105   3.918
   98PMPE   H2R 7467   1.690   6.125   3.896
   98PMPE   H2S 7468   1.840   6.155   3.841
   98PMPE    C3 7469   1.922   5.736   3.835
   98PMPE    HX 7470   1.926   5.657   3.760
   98PMPE    HY 7471   1.874   5.700   3.930
   98PMPE   O31 7472   2.052   5.793   3.858
   98PMPE   C31 7473   2.075   5.847   3.976
   98PMPE   O32 7474   2.004   5.837   4.075
   98PMPE   C32 7475   2.217   5.903   3.977
   98PMPE   H2X 7476   2.237   5.970   3.893
   98PMPE   H2Y 7477   2.270   5.808   3.958
   98PMPE   C23 7478   1.886   6.127   4.048
   98PMPE   H3R 7479   1.978   6.132   3.988
   98PMPE   H3S 7480   1.883   6.040   4.114
   98PMPE   C24 7481   1.908   6.253   4.149
   98PMPE   H4R 7482   1.821   6.290   4.207
   98PMPE   H4S 7483   1.935   6.349   4.101
   98PMPE   C25 7484   2.035   6.243   4.222
   98PMPE   H5R 7485   2.110   6.242   4.140
   98PMPE   H5S 7486   2.020   6.148   4.273
   98PMPE   C26 7487   2.074   6.358   4.315
   98PMPE   H6R 7488   2.094   6.447   4.257
   98PMPE   H6S 7489   2.164   6.334   4.373
   98PMPE   C27 7490   1.970   6.386   4.413
   98PMPE   H7R 7491   1.895   6.445   4.353
   98PMPE   H7S 7492   1.998   6.455   4.495
   98PMPE   C28 7493   1.908   6.256   4.470
   98PMPE   H8R 7494   1.828   6.216   4.402
   98PMPE   H8S 7495   1.863   6.291   4.561
   98PMPE   C29 7496   1.991   6.146   4.525
   98PMPE   H9R 7497   2.066   6.104   4.461
   98PMPE  C217 7498   1.903   6.040   4.591
   98PMPE  H17R 7499   1.933   5.938   4.575
   98PMPE  H17S 7500   1.798   6.066   4.604
   98PMPE  C210 7501   2.010   6.121   4.672
   98PMPE  H10R 7502   2.097   6.063   4.701
   98PMPE  C211 7503   1.955   6.206   4.785
   98PMPE  H11R 7504   1.949   6.147   4.879
   98PMPE  H11S 7505   1.859   6.218   4.736
   98PMPE  C212 7506   2.013   6.337   4.832
   98PMPE  H12R 7507   1.997   6.414   4.754
   98PMPE  H12S 7508   2.118   6.307   4.840
   98PMPE  C213 7509   1.960   6.378   4.972
   98PMPE  H13R 7510   1.981   6.303   5.049
   98PMPE  H13S 7511   1.857   6.400   4.983
   98PMPE  C214 7512   1.986   6.518   5.018
   98PMPE  H14R 7513   1.941   6.593   4.947
   98PMPE  H14S 7514   2.094   6.519   5.024
   98PMPE  C215 7515   1.944   6.543   5.161
   98PMPE  H15R 7516   1.992   6.634   5.185
   98PMPE  H15S 7517   1.993   6.477   5.234
   98PMPE  C216 7518   1.799   6.579   5.184
   98PMPE  H16R 7519   1.768   6.656   5.109
   98PMPE  H16S 7520   1.740   6.486   5.172
   98PMPE  H16T 7521   1.786   6.622   5.286
   98PMPE   C33 7522   2.245   5.975   4.112
   98PMPE   H3X 7523   2.250   5.892   4.185
   98PMPE   H3Y 7524   2.154   6.024   4.149
   98PMPE   C34 7525   2.344   6.095   4.115
   98PMPE   H4X 7526   2.325   6.163   4.030
   98PMPE   H4Y 7527   2.446   6.073   4.103
   98PMPE   C35 7528   2.367   6.173   4.246
   98PMPE   H5X 7529   2.276   6.225   4.271
   98PMPE   H5Y 7530   2.444   6.252   4.228
   98PMPE   C36 7531   2.407   6.090   4.367
   98PMPE   H6X 7532   2.501   6.035   4.348
   98PMPE   H6Y 7533   2.327   6.015   4.388
   98PMPE   C37 7534   2.433   6.175   4.490
   98PMPE   H7X 7535   2.342   6.235   4.510
   98PMPE   H7Y 7536   2.518   6.244   4.473
   98PMPE   C38 7537   2.461   6.083   4.608
   98PMPE   H8X 7538   2.547   6.016   4.585
   98PMPE   H8Y 7539   2.370   6.021   4.621
   98PMPE   C39 7540   2.491   6.163   4.735
   98PMPE   H9X 7541   2.410   6.237   4.752
   98PMPE   H9Y 7542   2.586   6.219   4.716
   98PMPE  C310 7543   2.511   6.077   4.860
   98PMPE  H10X 7544   2.543   6.143   4.943
   98PMPE  H10Y 7545   2.595   6.006   4.842
   98PMPE  C311 7546   2.387   5.999   4.903
   98PMPE  H11X 7547   2.420   5.913   4.966
   98PMPE  H11Y 7548   2.328   5.955   4.819
   98PMPE  C312 7549   2.289   6.085   4.981
   98PMPE  H12X 7550   2.194   6.099   4.925
   98PMPE  H12Y 7551   2.332   6.187   4.995
   98PMPE  C313 7552   2.251   6.019   5.111
   98PMPE  H13X 7553   2.339   5.994   5.174
   98PMPE  H13Y 7554   2.194   5.925   5.093
   98PMPE  C314 7555   2.155   6.109   5.181
   98PMPE  H14X 7556   2.068   6.139   5.120
   98PMPE  H14Y 7557   2.211   6.203   5.210
   98PMPE  C315 7558   2.100   6.045   5.305
   98PMPE  H15X 7559   2.018   6.119   5.329
   98PMPE  H15Y 7560   2.191   6.040   5.371
   98PMPE  C316 7561   2.036   5.915   5.337
   98PMPE  H16X 7562   2.104   5.837   5.299
   98PMPE  H16Y 7563   1.934   5.918   5.294
   98PMPE  H16Z 7564   2.029   5.908   5.449
   99PMPE     N 7565   1.653   5.461   3.616
   99PMPE   HN1 7566   1.679   5.362   3.638
   99PMPE   HN2 7567   1.722   5.501   3.548
   99PMPE   HN3 7568   1.656   5.521   3.701
   99PMPE   C12 7569   1.510   5.471   3.568
   99PMPE  H12A 7570   1.444   5.464   3.656
   99PMPE  H12B 7571   1.492   5.384   3.501
   99PMPE   C11 7572   1.480   5.603   3.494
   99PMPE  H11A 7573   1.373   5.601   3.461
   99PMPE  H11B 7574   1.544   5.603   3.403
   99PMPE     P 7575   1.410   5.839   3.609
   99PMPE   O13 7576   1.276   5.813   3.550
   99PMPE   O14 7577   1.472   5.967   3.575
   99PMPE   O11 7578   1.403   5.815   3.765
   99PMPE   O12 7579   1.511   5.718   3.573
   99PMPE    C1 7580   1.333   5.708   3.830
   99PMPE    HA 7581   1.400   5.664   3.907
   99PMPE    HB 7582   1.302   5.627   3.760
   99PMPE    C2 7583   1.209   5.760   3.907
   99PMPE    HS 7584   1.137   5.803   3.835
   99PMPE   O21 7585   1.255   5.863   3.992
   99PMPE   C21 7586   1.161   5.916   4.065
   99PMPE   O22 7587   1.042   5.921   4.041
   99PMPE   C22 7588   1.226   5.972   4.183
   99PMPE   H2R 7589   1.220   6.080   4.158
   99PMPE   H2S 7590   1.328   5.931   4.181
   99PMPE    C3 7591   1.144   5.646   3.992
   99PMPE    HX 7592   1.123   5.561   3.925
   99PMPE    HY 7593   1.045   5.682   4.031
   99PMPE   O31 7594   1.237   5.606   4.094
   99PMPE   C31 7595   1.185   5.557   4.205
   99PMPE   O32 7596   1.067   5.536   4.228
   99PMPE   C32 7597   1.298   5.533   4.305
   99PMPE   H2X 7598   1.378   5.607   4.285
   99PMPE   H2Y 7599   1.340   5.432   4.290
   99PMPE   C23 7600   1.170   5.932   4.324
   99PMPE   H3R 7601   1.177   5.825   4.342
   99PMPE   H3S 7602   1.070   5.977   4.320
   99PMPE   C24 7603   1.221   5.993   4.456
   99PMPE   H4R 7604   1.150   6.041   4.526
   99PMPE   H4S 7605   1.228   6.075   4.394
   99PMPE   C25 7606   1.364   5.968   4.507
   99PMPE   H5R 7607   1.453   6.037   4.493
   99PMPE   H5S 7608   1.404   5.884   4.450
   99PMPE   C26 7609   1.362   5.982   4.654
   99PMPE   H6R 7610   1.264   5.944   4.689
   99PMPE   H6S 7611   1.369   6.089   4.685
   99PMPE   C27 7612   1.481   5.903   4.703
   99PMPE   H7R 7613   1.569   5.910   4.635
   99PMPE   H7S 7614   1.442   5.800   4.712
   99PMPE   C28 7615   1.517   5.952   4.839
   99PMPE   H8R 7616   1.537   5.874   4.913
   99PMPE   H8S 7617   1.420   6.002   4.864
   99PMPE   C29 7618   1.632   6.048   4.845
   99PMPE   H9R 7619   1.629   6.116   4.756
   99PMPE  C217 7620   1.765   5.989   4.876
   99PMPE  H17R 7621   1.812   6.035   4.798
   99PMPE  H17S 7622   1.762   5.885   4.891
   99PMPE  C210 7623   1.713   6.081   4.982
   99PMPE  H10R 7624   1.766   6.176   5.000
   99PMPE  C211 7625   1.679   6.038   5.128
   99PMPE  H11R 7626   1.778   6.042   5.176
   99PMPE  H11S 7627   1.634   5.938   5.115
   99PMPE  C212 7628   1.600   6.133   5.229
   99PMPE  H12R 7629   1.498   6.131   5.207
   99PMPE  H12S 7630   1.585   6.243   5.228
   99PMPE  C213 7631   1.570   6.092   5.364
   99PMPE  H13R 7632   1.638   6.159   5.420
   99PMPE  H13S 7633   1.592   5.982   5.373
   99PMPE  C214 7634   1.426   6.126   5.401
   99PMPE  H14R 7635   1.346   6.083   5.337
   99PMPE  H14S 7636   1.393   6.230   5.418
   99PMPE  C215 7637   1.400   6.047   5.516
   99PMPE  H15R 7638   1.436   5.942   5.492
   99PMPE  H15S 7639   1.294   6.068   5.531
   99PMPE  C216 7640   1.471   6.064   5.635
   99PMPE  H16R 7641   1.496   5.978   5.700
   99PMPE  H16S 7642   1.566   6.052   5.586
   99PMPE  H16T 7643   1.455   6.156   5.695
   99PMPE   C33 7644   1.242   5.546   4.449
   99PMPE   H3X 7645   1.176   5.458   4.466
   99PMPE   H3Y 7646   1.181   5.639   4.457
   99PMPE   C34 7647   1.347   5.548   4.561
   99PMPE   H4X 7648   1.410   5.639   4.553
   99PMPE   H4Y 7649   1.418   5.467   4.538
   99PMPE   C35 7650   1.286   5.529   4.703
   99PMPE   H5X 7651   1.180   5.554   4.714
   99PMPE   H5Y 7652   1.345   5.591   4.775
   99PMPE   C36 7653   1.304   5.385   4.750
   99PMPE   H6X 7654   1.414   5.406   4.761
   99PMPE   H6Y 7655   1.280   5.310   4.670
   99PMPE   C37 7656   1.277   5.331   4.891
   99PMPE   H7X 7657   1.311   5.227   4.909
   99PMPE   H7Y 7658   1.170   5.327   4.913
   99PMPE   C38 7659   1.348   5.405   5.001
   99PMPE   H8X 7660   1.319   5.510   4.997
   99PMPE   H8Y 7661   1.454   5.419   4.986
   99PMPE   C39 7662   1.323   5.331   5.133
   99PMPE   H9X 7663   1.354   5.223   5.130
   99PMPE   H9Y 7664   1.213   5.334   5.143
   99PMPE  C310 7665   1.377   5.404   5.255
   99PMPE  H10X 7666   1.368   5.353   5.353
   99PMPE  H10Y 7667   1.335   5.506   5.257
   99PMPE  C311 7668   1.521   5.427   5.252
   99PMPE  H11X 7669   1.542   5.426   5.146
   99PMPE  H11Y 7670   1.574   5.333   5.270
   99PMPE  C312 7671   1.562   5.559   5.327
   99PMPE  H12X 7672   1.550   5.651   5.267
   99PMPE  H12Y 7673   1.670   5.575   5.347
   99PMPE  C313 7674   1.503   5.563   5.464
   99PMPE  H13X 7675   1.522   5.464   5.512
   99PMPE  H13Y 7676   1.397   5.580   5.449
   99PMPE  C314 7677   1.558   5.678   5.543
   99PMPE  H14X 7678   1.487   5.708   5.623
   99PMPE  H14Y 7679   1.584   5.766   5.480
   99PMPE  C315 7680   1.678   5.635   5.614
   99PMPE  H15X 7681   1.702   5.727   5.672
   99PMPE  H15Y 7682   1.764   5.615   5.546
   99PMPE  C316 7683   1.655   5.517   5.707
   99PMPE  H16X 7684   1.753   5.523   5.751
   99PMPE  H16Y 7685   1.663   5.411   5.684
   99PMPE  H16Z 7686   1.578   5.538   5.785
  100PMPE     N 7687   4.976   6.776   3.454
  100PMPE   HN1 7688   4.948   6.737   3.546
  100PMPE   HN2 7689   4.913   6.737   3.381
  100PMPE   HN3 7690   5.077   6.750   3.439
  100PMPE   C12 7691   4.972   6.926   3.459
  100PMPE  H12A 7692   4.867   6.956   3.470
  100PMPE  H12B 7693   5.018   6.966   3.366
  100PMPE   C11 7694   5.049   6.978   3.579
  100PMPE  H11A 7695   5.016   6.925   3.673
  100PMPE  H11B 7696   5.029   7.086   3.594
  100PMPE     P 7697   5.273   6.871   3.638
  100PMPE   O13 7698   5.414   6.902   3.607
  100PMPE   O14 7699   5.219   6.735   3.615
  100PMPE   O11 7700   5.226   6.926   3.781
  100PMPE   O12 7701   5.187   6.964   3.549
  100PMPE    C1 7702   5.305   6.886   3.891
  100PMPE    HA 7703   5.400   6.945   3.893
  100PMPE    HB 7704   5.316   6.777   3.883
  100PMPE    C2 7705   5.245   6.878   4.031
  100PMPE    HS 7706   5.313   6.825   4.103
  100PMPE   O21 7707   5.116   6.815   4.026
  100PMPE   C21 7708   5.115   6.684   4.002
  100PMPE   O22 7709   5.208   6.609   4.000
  100PMPE   C22 7710   4.980   6.625   3.981
  100PMPE   H2R 7711   4.999   6.524   3.938
  100PMPE   H2S 7712   4.922   6.689   3.914
  100PMPE    C3 7713   5.238   7.022   4.075
  100PMPE    HX 7714   5.176   7.077   4.001
  100PMPE    HY 7715   5.339   7.068   4.079
  100PMPE   O31 7716   5.188   7.027   4.205
  100PMPE   C31 7717   5.066   7.066   4.209
  100PMPE   O32 7718   4.985   7.090   4.122
  100PMPE   C32 7719   5.037   7.076   4.349
  100PMPE   H2X 7720   5.085   6.981   4.387
  100PMPE   H2Y 7721   4.927   7.084   4.347
  100PMPE   C23 7722   4.918   6.593   4.112
  100PMPE   H3R 7723   4.972   6.514   4.171
  100PMPE   H3S 7724   4.811   6.561   4.099
  100PMPE   C24 7725   4.923   6.706   4.203
  100PMPE   H4R 7726   4.872   6.793   4.155
  100PMPE   H4S 7727   5.020   6.751   4.232
  100PMPE   C25 7728   4.851   6.632   4.315
  100PMPE   H5R 7729   4.747   6.594   4.316
  100PMPE   H5S 7730   4.832   6.729   4.332
  100PMPE   C26 7731   4.921   6.578   4.432
  100PMPE   H6R 7732   4.961   6.481   4.401
  100PMPE   H6S 7733   4.847   6.570   4.517
  100PMPE   C27 7734   5.041   6.661   4.462
  100PMPE   H7R 7735   5.015   6.763   4.479
  100PMPE   H7S 7736   5.121   6.682   4.393
  100PMPE   C28 7737   5.103   6.599   4.577
  100PMPE   H8R 7738   5.104   6.491   4.589
  100PMPE   H8S 7739   5.012   6.596   4.640
  100PMPE   C29 7740   5.228   6.684   4.627
  100PMPE   H9R 7741   5.227   6.797   4.636
  100PMPE  C217 7742   5.350   6.653   4.565
  100PMPE  H17R 7743   5.383   6.753   4.533
  100PMPE  H17S 7744   5.313   6.571   4.506
  100PMPE  C210 7745   5.347   6.630   4.719
  100PMPE  H10R 7746   5.400   6.711   4.773
  100PMPE  C211 7747   5.351   6.484   4.796
  100PMPE  H11R 7748   5.448   6.438   4.802
  100PMPE  H11S 7749   5.300   6.421   4.721
  100PMPE  C212 7750   5.313   6.448   4.956
  100PMPE  H12R 7751   5.374   6.506   5.024
  100PMPE  H12S 7752   5.321   6.337   4.965
  100PMPE  C213 7753   5.176   6.459   5.027
  100PMPE  H13R 7754   5.160   6.419   4.934
  100PMPE  H13S 7755   5.102   6.537   5.034
  100PMPE  C214 7756   5.085   6.433   5.136
  100PMPE  H14R 7757   5.080   6.328   5.142
  100PMPE  H14S 7758   4.977   6.458   5.101
  100PMPE  C215 7759   5.144   6.514   5.243
  100PMPE  H15R 7760   5.178   6.615   5.212
  100PMPE  H15S 7761   5.232   6.445   5.250
  100PMPE  C216 7762   5.053   6.532   5.358
  100PMPE  H16R 7763   4.955   6.579   5.344
  100PMPE  H16S 7764   5.017   6.436   5.371
  100PMPE  H16T 7765   5.093   6.548   5.456
  100PMPE   C33 7766   5.076   7.197   4.429
  100PMPE   H3X 7767   5.038   7.283   4.369
  100PMPE   H3Y 7768   5.188   7.198   4.433
  100PMPE   C34 7769   5.026   7.209   4.576
  100PMPE   H4X 7770   5.061   7.314   4.581
  100PMPE   H4Y 7771   5.086   7.153   4.648
  100PMPE   C35 7772   4.876   7.212   4.622
  100PMPE   H5X 7773   4.813   7.240   4.532
  100PMPE   H5Y 7774   4.860   7.287   4.697
  100PMPE   C36 7775   4.798   7.123   4.732
  100PMPE   H6X 7776   4.775   7.087   4.638
  100PMPE   H6Y 7777   4.708   7.059   4.710
  100PMPE   C37 7778   4.850   7.045   4.859
  100PMPE   H7X 7779   4.885   7.122   4.926
  100PMPE   H7Y 7780   4.953   7.024   4.846
  100PMPE   C38 7781   4.776   6.907   4.903
  100PMPE   H8X 7782   4.774   6.817   4.834
  100PMPE   H8Y 7783   4.668   6.918   4.907
  100PMPE   C39 7784   4.840   6.818   5.011
  100PMPE   H9X 7785   4.949   6.837   5.022
  100PMPE   H9Y 7786   4.824   6.709   4.998
  100PMPE  C310 7787   4.842   6.867   5.136
  100PMPE  H10X 7788   4.740   6.825   5.153
  100PMPE  H10Y 7789   4.855   6.975   5.103
  100PMPE  C311 7790   4.935   6.817   5.239
  100PMPE  H11X 7791   4.930   6.710   5.222
  100PMPE  H11Y 7792   4.879   6.846   5.331
  100PMPE  C312 7793   5.078   6.876   5.239
  100PMPE  H12X 7794   5.149   6.834   5.171
  100PMPE  H12Y 7795   5.121   6.852   5.338
  100PMPE  C313 7796   5.101   7.020   5.190
  100PMPE  H13X 7797   5.076   7.044   5.086
  100PMPE  H13Y 7798   5.199   7.060   5.224
  100PMPE  C314 7799   5.008   7.098   5.258
  100PMPE  H14X 7800   4.911   7.048   5.249
  100PMPE  H14Y 7801   4.997   7.206   5.230
  100PMPE  C315 7802   5.050   7.075   5.391
  100PMPE  H15X 7803   5.096   7.164   5.430
  100PMPE  H15Y 7804   5.042   6.983   5.455
  100PMPE  C316 7805   4.942   7.130   5.427
  100PMPE  H16X 7806   4.844   7.110   5.391
  100PMPE  H16Y 7807   4.939   7.244   5.399
  100PMPE  H16Z 7808   4.924   7.095   5.533
  101PMPE     N 7809   7.271   3.702   3.575
  101PMPE   HN1 7810   7.203   3.671   3.502
  101PMPE   HN2 7811   7.343   3.760   3.530
  101PMPE   HN3 7812   7.314   3.618   3.618
  101PMPE   C12 7813   7.193   3.782   3.677
  101PMPE  H12A 7814   7.154   3.872   3.625
  101PMPE  H12B 7815   7.260   3.811   3.760
  101PMPE   C11 7816   7.070   3.708   3.732
  101PMPE  H11A 7817   7.015   3.782   3.795
  101PMPE  H11B 7818   7.098   3.626   3.803
  101PMPE     P 7819   6.887   3.737   3.540
  101PMPE   O13 7820   6.816   3.647   3.446
  101PMPE   O14 7821   6.948   3.862   3.492
  101PMPE   O11 7822   6.788   3.769   3.652
  101PMPE   O12 7823   6.994   3.654   3.624
  101PMPE    C1 7824   6.740   3.654   3.724
  101PMPE    HA 7825   6.814   3.575   3.750
  101PMPE    HB 7826   6.643   3.617   3.680
  101PMPE    C2 7827   6.710   3.702   3.861
  101PMPE    HS 7828   6.612   3.744   3.850
  101PMPE   O21 7829   6.830   3.772   3.918
  101PMPE   C21 7830   6.827   3.909   3.932
  101PMPE   O22 7831   6.740   3.978   3.901
  101PMPE   C22 7832   6.913   3.999   4.009
  101PMPE   H2R 7833   6.934   4.091   3.945
  101PMPE   H2S 7834   7.004   3.947   4.031
  101PMPE    C3 7835   6.661   3.584   3.946
  101PMPE    HX 7836   6.573   3.535   3.895
  101PMPE    HY 7837   6.596   3.594   4.027
  101PMPE   O31 7838   6.763   3.509   4.000
  101PMPE   C31 7839   6.835   3.542   4.105
  101PMPE   O32 7840   6.851   3.644   4.169
  101PMPE   C32 7841   6.902   3.417   4.134
  101PMPE   H2X 7842   6.995   3.434   4.076
  101PMPE   H2Y 7843   6.839   3.333   4.096
  101PMPE   C23 7844   6.825   4.053   4.129
  101PMPE   H3R 7845   6.793   3.965   4.188
  101PMPE   H3S 7846   6.726   4.103   4.110
  101PMPE   C24 7847   6.914   4.146   4.206
  101PMPE   H4R 7848   6.956   4.218   4.131
  101PMPE   H4S 7849   6.991   4.080   4.249
  101PMPE   C25 7850   6.857   4.230   4.318
  101PMPE   H5R 7851   6.767   4.279   4.289
  101PMPE   H5S 7852   6.926   4.314   4.340
  101PMPE   C26 7853   6.830   4.152   4.443
  101PMPE   H6R 7854   6.923   4.133   4.498
  101PMPE   H6S 7855   6.768   4.060   4.423
  101PMPE   C27 7856   6.745   4.230   4.533
  101PMPE   H7R 7857   6.647   4.211   4.483
  101PMPE   H7S 7858   6.759   4.341   4.535
  101PMPE   C28 7859   6.734   4.173   4.673
  101PMPE   H8R 7860   6.638   4.131   4.686
  101PMPE   H8S 7861   6.684   4.243   4.737
  101PMPE   C29 7862   6.858   4.142   4.753
  101PMPE   H9R 7863   6.949   4.200   4.733
  101PMPE  C217 7864   6.899   3.999   4.766
  101PMPE  H17R 7865   7.002   3.993   4.741
  101PMPE  H17S 7866   6.835   3.955   4.697
  101PMPE  C210 7867   6.849   4.079   4.889
  101PMPE  H10R 7868   6.933   4.095   4.956
  101PMPE  C211 7869   6.714   4.043   4.959
  101PMPE  H11R 7870   6.726   3.944   5.001
  101PMPE  H11S 7871   6.633   4.034   4.889
  101PMPE  C212 7872   6.663   4.141   5.066
  101PMPE  H12R 7873   6.633   4.235   5.017
  101PMPE  H12S 7874   6.747   4.150   5.140
  101PMPE  C213 7875   6.544   4.118   5.155
  101PMPE  H13R 7876   6.443   4.096   5.125
  101PMPE  H13S 7877   6.524   4.198   5.227
  101PMPE  C214 7878   6.561   3.990   5.212
  101PMPE  H14R 7879   6.571   3.915   5.135
  101PMPE  H14S 7880   6.471   3.977   5.277
  101PMPE  C215 7881   6.676   3.973   5.291
  101PMPE  H15R 7882   6.777   3.962   5.247
  101PMPE  H15S 7883   6.663   3.873   5.335
  101PMPE  C216 7884   6.667   4.083   5.391
  101PMPE  H16R 7885   6.594   4.068   5.473
  101PMPE  H16S 7886   6.770   4.064   5.415
  101PMPE  H16T 7887   6.676   4.188   5.365
  101PMPE   C33 7888   6.927   3.408   4.283
  101PMPE   H3X 7889   6.936   3.299   4.302
  101PMPE   H3Y 7890   6.841   3.445   4.344
  101PMPE   C34 7891   7.057   3.480   4.322
  101PMPE   H4X 7892   7.043   3.589   4.333
  101PMPE   H4Y 7893   7.140   3.458   4.252
  101PMPE   C35 7894   7.102   3.435   4.457
  101PMPE   H5X 7895   7.199   3.475   4.492
  101PMPE   H5Y 7896   7.122   3.327   4.444
  101PMPE   C36 7897   6.995   3.467   4.560
  101PMPE   H6X 7898   7.051   3.473   4.656
  101PMPE   H6Y 7899   6.913   3.391   4.563
  101PMPE   C37 7900   6.945   3.605   4.585
  101PMPE   H7X 7901   6.894   3.594   4.685
  101PMPE   H7Y 7902   6.873   3.626   4.505
  101PMPE   C38 7903   7.059   3.706   4.597
  101PMPE   H8X 7904   7.005   3.802   4.606
  101PMPE   H8Y 7905   7.120   3.705   4.504
  101PMPE   C39 7906   7.156   3.689   4.717
  101PMPE   H9X 7907   7.213   3.594   4.710
  101PMPE   H9Y 7908   7.092   3.684   4.808
  101PMPE  C310 7909   7.257   3.802   4.743
  101PMPE  H10X 7910   7.203   3.897   4.764
  101PMPE  H10Y 7911   7.321   3.821   4.654
  101PMPE  C311 7912   7.344   3.763   4.865
  101PMPE  H11X 7913   7.433   3.830   4.873
  101PMPE  H11Y 7914   7.383   3.661   4.845
  101PMPE  C312 7915   7.271   3.764   5.001
  101PMPE  H12X 7916   7.341   3.723   5.077
  101PMPE  H12Y 7917   7.184   3.696   4.999
  101PMPE  C313 7918   7.230   3.905   5.047
  101PMPE  H13X 7919   7.136   3.937   4.996
  101PMPE  H13Y 7920   7.309   3.975   5.013
  101PMPE  C314 7921   7.220   3.924   5.200
  101PMPE  H14X 7922   7.191   4.030   5.219
  101PMPE  H14Y 7923   7.322   3.910   5.242
  101PMPE  C315 7924   7.121   3.835   5.278
  101PMPE  H15X 7925   7.137   3.728   5.255
  101PMPE  H15Y 7926   7.018   3.861   5.246
  101PMPE  C316 7927   7.136   3.856   5.429
  101PMPE  H16X 7928   7.238   3.828   5.462
  101PMPE  H16Y 7929   7.069   3.792   5.489
  101PMPE  H16Z 7930   7.118   3.963   5.455
  102PMPE     N 7931   3.784   7.252   3.502
  102PMPE   HN1 7932   3.753   7.275   3.599
  102PMPE   HN2 7933   3.836   7.332   3.461
  102PMPE   HN3 7934   3.702   7.232   3.442
  102PMPE   C12 7935   3.880   7.136   3.509
  102PMPE  H12A 7936   3.950   7.155   3.592
  102PMPE  H12B 7937   3.931   7.132   3.412
  102PMPE   C11 7938   3.817   7.000   3.538
  102PMPE  H11A 7939   3.896   6.930   3.577
  102PMPE  H11B 7940   3.784   6.960   3.439
  102PMPE     P 7941   3.600   6.902   3.628
  102PMPE   O13 7942   3.636   6.816   3.514
  102PMPE   O14 7943   3.468   6.968   3.630
  102PMPE   O11 7944   3.630   6.836   3.768
  102PMPE   O12 7945   3.711   7.015   3.633
  102PMPE    C1 7946   3.640   6.902   3.893
  102PMPE    HA 7947   3.577   6.849   3.968
  102PMPE    HB 7948   3.599   7.005   3.885
  102PMPE    C2 7949   3.786   6.904   3.951
  102PMPE    HS 7950   3.852   6.950   3.875
  102PMPE   O21 7951   3.828   6.771   3.989
  102PMPE   C21 7952   3.917   6.701   3.923
  102PMPE   O22 7953   3.978   6.734   3.823
  102PMPE   C22 7954   3.942   6.571   4.008
  102PMPE   H2R 7955   4.002   6.592   4.092
  102PMPE   H2S 7956   3.991   6.488   3.952
  102PMPE    C3 7957   3.772   6.995   4.079
  102PMPE    HX 7958   3.675   6.972   4.124
  102PMPE    HY 7959   3.768   7.101   4.046
  102PMPE   O31 7960   3.859   6.972   4.190
  102PMPE   C31 7961   3.944   7.069   4.203
  102PMPE   O32 7962   3.955   7.168   4.136
  102PMPE   C32 7963   4.038   7.030   4.301
  102PMPE   H2X 7964   4.055   6.925   4.284
  102PMPE   H2Y 7965   4.011   6.937   4.356
  102PMPE   C23 7966   3.903   6.556   4.161
  102PMPE   H3R 7967   3.901   6.445   4.174
  102PMPE   H3S 7968   3.806   6.607   4.154
  102PMPE   C24 7969   3.933   6.640   4.288
  102PMPE   H4R 7970   3.940   6.743   4.250
  102PMPE   H4S 7971   4.018   6.589   4.336
  102PMPE   C25 7972   3.819   6.643   4.392
  102PMPE   H5R 7973   3.830   6.537   4.424
  102PMPE   H5S 7974   3.720   6.667   4.345
  102PMPE   C26 7975   3.829   6.682   4.536
  102PMPE   H6R 7976   3.864   6.784   4.516
  102PMPE   H6S 7977   3.908   6.616   4.581
  102PMPE   C27 7978   3.694   6.672   4.614
  102PMPE   H7R 7979   3.715   6.673   4.721
  102PMPE   H7S 7980   3.636   6.579   4.617
  102PMPE   C28 7981   3.584   6.766   4.560
  102PMPE   H8R 7982   3.600   6.788   4.452
  102PMPE   H8S 7983   3.593   6.860   4.618
  102PMPE   C29 7984   3.444   6.705   4.570
  102PMPE   H9R 7985   3.415   6.618   4.509
  102PMPE  C217 7986   3.330   6.806   4.571
  102PMPE  H17R 7987   3.241   6.773   4.520
  102PMPE  H17S 7988   3.367   6.908   4.575
  102PMPE  C210 7989   3.363   6.722   4.695
  102PMPE  H10R 7990   3.296   6.637   4.715
  102PMPE  C211 7991   3.402   6.812   4.811
  102PMPE  H11R 7992   3.308   6.824   4.870
  102PMPE  H11S 7993   3.432   6.914   4.778
  102PMPE  C212 7994   3.514   6.754   4.899
  102PMPE  H12R 7995   3.613   6.771   4.853
  102PMPE  H12S 7996   3.498   6.645   4.914
  102PMPE  C213 7997   3.518   6.822   5.035
  102PMPE  H13R 7998   3.426   6.795   5.091
  102PMPE  H13S 7999   3.518   6.929   5.010
  102PMPE  C214 8000   3.642   6.792   5.119
  102PMPE  H14R 8001   3.730   6.851   5.083
  102PMPE  H14S 8002   3.664   6.685   5.104
  102PMPE  C215 8003   3.625   6.817   5.269
  102PMPE  H15R 8004   3.565   6.909   5.288
  102PMPE  H15S 8005   3.725   6.835   5.314
  102PMPE  C216 8006   3.563   6.701   5.344
  102PMPE  H16R 8007   3.610   6.604   5.321
  102PMPE  H16S 8008   3.569   6.719   5.453
  102PMPE  H16T 8009   3.457   6.689   5.321
  102PMPE   C33 8010   4.162   7.127   4.307
  102PMPE   H3X 8011   4.213   7.176   4.227
  102PMPE   H3Y 8012   4.271   7.095   4.305
  102PMPE   C34 8013   4.111   7.205   4.422
  102PMPE   H4X 8014   4.023   7.253   4.378
  102PMPE   H4Y 8015   4.190   7.267   4.467
  102PMPE   C35 8016   4.027   7.134   4.530
  102PMPE   H5X 8017   4.108   7.082   4.554
  102PMPE   H5Y 8018   3.969   7.040   4.528
  102PMPE   C36 8019   4.014   7.209   4.658
  102PMPE   H6X 8020   3.964   7.298   4.618
  102PMPE   H6Y 8021   4.112   7.241   4.703
  102PMPE   C37 8022   3.930   7.125   4.753
  102PMPE   H7X 8023   3.980   7.039   4.792
  102PMPE   H7Y 8024   3.856   7.059   4.707
  102PMPE   C38 8025   3.883   7.218   4.861
  102PMPE   H8X 8026   3.816   7.290   4.812
  102PMPE   H8Y 8027   3.971   7.280   4.886
  102PMPE   C39 8028   3.813   7.147   4.977
  102PMPE   H9X 8029   3.882   7.083   5.038
  102PMPE   H9Y 8030   3.742   7.077   4.928
  102PMPE  C310 8031   3.741   7.247   5.071
  102PMPE  H10X 8032   3.642   7.271   5.027
  102PMPE  H10Y 8033   3.802   7.340   5.067
  102PMPE  C311 8034   3.731   7.197   5.217
  102PMPE  H11X 8035   3.834   7.169   5.248
  102PMPE  H11Y 8036   3.675   7.101   5.214
  102PMPE  C312 8037   3.682   7.294   5.329
  102PMPE  H12X 8038   3.578   7.329   5.334
  102PMPE  H12Y 8039   3.731   7.392   5.321
  102PMPE  C313 8040   3.691   7.229   5.468
  102PMPE  H13X 8041   3.795   7.239   5.503
  102PMPE  H13Y 8042   3.658   7.122   5.461
  102PMPE  C314 8043   3.602   7.296   5.572
  102PMPE  H14X 8044   3.503   7.286   5.525
  102PMPE  H14Y 8045   3.613   7.405   5.576
  102PMPE  C315 8046   3.617   7.237   5.716
  102PMPE  H15X 8047   3.558   7.297   5.791
  102PMPE  H15Y 8048   3.722   7.252   5.748
  102PMPE  C316 8049   3.582   7.088   5.734
  102PMPE  H16X 8050   3.638   7.024   5.665
  102PMPE  H16Y 8051   3.477   7.067   5.713
  102PMPE  H16Z 8052   3.589   7.055   5.840
  103PMPE     N 8053   7.234   3.028   3.781
  103PMPE   HN1 8054   7.213   3.129   3.794
  103PMPE   HN2 8055   7.274   2.987   3.868
  103PMPE   HN3 8056   7.304   3.016   3.704
  103PMPE   C12 8057   7.107   2.954   3.749
  103PMPE  H12A 8058   7.033   2.977   3.829
  103PMPE  H12B 8059   7.130   2.846   3.752
  103PMPE   C11 8060   7.056   2.993   3.610
  103PMPE  H11A 8061   7.132   2.966   3.533
  103PMPE  H11B 8062   7.043   3.104   3.605
  103PMPE     P 8063   6.908   2.791   3.517
  103PMPE   O13 8064   6.984   2.784   3.390
  103PMPE   O14 8065   6.763   2.763   3.511
  103PMPE   O11 8066   6.977   2.691   3.621
  103PMPE   O12 8067   6.929   2.932   3.587
  103PMPE    C1 8068   6.903   2.591   3.692
  103PMPE    HA 8069   6.946   2.492   3.666
  103PMPE    HB 8070   6.796   2.587   3.663
  103PMPE    C2 8071   6.910   2.613   3.846
  103PMPE    HS 8072   6.848   2.534   3.896
  103PMPE   O21 8073   6.863   2.747   3.873
  103PMPE   C21 8074   6.763   2.756   3.960
  103PMPE   O22 8075   6.727   2.668   4.036
  103PMPE   C22 8076   6.699   2.896   3.954
  103PMPE   H2R 8077   6.591   2.882   3.975
  103PMPE   H2S 8078   6.707   2.937   3.851
  103PMPE    C3 8079   7.055   2.595   3.898
  103PMPE    HX 8080   7.120   2.651   3.827
  103PMPE    HY 8081   7.085   2.489   3.891
  103PMPE   O31 8082   7.066   2.636   4.036
  103PMPE   C31 8083   7.156   2.729   4.061
  103PMPE   O32 8084   7.231   2.779   3.978
  103PMPE   C32 8085   7.163   2.758   4.212
  103PMPE   H2X 8086   7.212   2.676   4.266
  103PMPE   H2Y 8087   7.066   2.764   4.260
  103PMPE   C23 8088   6.760   2.996   4.056
  103PMPE   H3R 8089   6.696   3.087   4.055
  103PMPE   H3S 8090   6.863   3.025   4.025
  103PMPE   C24 8091   6.769   2.946   4.201
  103PMPE   H4R 8092   6.806   3.029   4.265
  103PMPE   H4S 8093   6.840   2.861   4.211
  103PMPE   C25 8094   6.632   2.904   4.254
  103PMPE   H5R 8095   6.589   2.822   4.192
  103PMPE   H5S 8096   6.567   2.993   4.245
  103PMPE   C26 8097   6.633   2.862   4.400
  103PMPE   H6R 8098   6.529   2.850   4.437
  103PMPE   H6S 8099   6.680   2.943   4.461
  103PMPE   C27 8100   6.708   2.733   4.427
  103PMPE   H7R 8101   6.813   2.735   4.393
  103PMPE   H7S 8102   6.659   2.647   4.376
  103PMPE   C28 8103   6.713   2.718   4.576
  103PMPE   H8R 8104   6.609   2.713   4.615
  103PMPE   H8S 8105   6.771   2.796   4.629
  103PMPE   C29 8106   6.790   2.597   4.596
  103PMPE   H9R 8107   6.899   2.584   4.581
  103PMPE  C217 8108   6.704   2.484   4.557
  103PMPE  H17R 8109   6.774   2.408   4.527
  103PMPE  H17S 8110   6.595   2.479   4.557
  103PMPE  C210 8111   6.744   2.510   4.696
  103PMPE  H10R 8112   6.836   2.453   4.724
  103PMPE  C211 8113   6.658   2.575   4.796
  103PMPE  H11R 8114   6.613   2.499   4.858
  103PMPE  H11S 8115   6.561   2.613   4.771
  103PMPE  C212 8116   6.760   2.660   4.876
  103PMPE  H12R 8117   6.777   2.758   4.830
  103PMPE  H12S 8118   6.834   2.614   4.944
  103PMPE  C213 8119   6.689   2.691   4.991
  103PMPE  H13R 8120   6.651   2.590   5.008
  103PMPE  H13S 8121   6.604   2.737   4.925
  103PMPE  C214 8122   6.720   2.715   5.156
  103PMPE  H14R 8123   6.724   2.828   5.142
  103PMPE  H14S 8124   6.822   2.681   5.162
  103PMPE  C215 8125   6.624   2.653   5.311
  103PMPE  H15R 8126   6.696   2.725   5.358
  103PMPE  H15S 8127   6.651   2.559   5.337
  103PMPE  C216 8128   6.433   2.640   5.371
  103PMPE  H16R 8129   6.362   2.738   5.362
  103PMPE  H16S 8130   6.332   2.647   5.307
  103PMPE  H16T 8131   6.420   2.609   5.467
  103PMPE   C33 8132   7.241   2.887   4.236
  103PMPE   H3X 8133   7.192   2.971   4.184
  103PMPE   H3Y 8134   7.337   2.871   4.185
  103PMPE   C34 8135   7.261   2.917   4.385
  103PMPE   H4X 8136   7.342   2.992   4.391
  103PMPE   H4Y 8137   7.296   2.825   4.437
  103PMPE   C35 8138   7.135   2.975   4.452
  103PMPE   H5X 8139   7.062   2.896   4.480
  103PMPE   H5Y 8140   7.085   3.041   4.377
  103PMPE   C36 8141   7.162   3.058   4.578
  103PMPE   H6X 8142   7.255   3.118   4.564
  103PMPE   H6Y 8143   7.177   2.994   4.668
  103PMPE   C37 8144   7.047   3.152   4.609
  103PMPE   H7X 8145   6.956   3.106   4.652
  103PMPE   H7Y 8146   7.009   3.193   4.513
  103PMPE   C38 8147   7.094   3.258   4.708
  103PMPE   H8X 8148   7.001   3.312   4.737
  103PMPE   H8Y 8149   7.173   3.321   4.659
  103PMPE   C39 8150   7.147   3.218   4.841
  103PMPE   H9X 8151   7.257   3.206   4.826
  103PMPE   H9Y 8152   7.096   3.121   4.857
  103PMPE  C310 8153   7.115   3.312   4.959
  103PMPE  H10X 8154   7.135   3.420   4.936
  103PMPE  H10Y 8155   7.184   3.283   5.040
  103PMPE  C311 8156   6.970   3.301   5.011
  103PMPE  H11X 8157   6.904   3.338   4.930
  103PMPE  H11Y 8158   6.956   3.369   5.098
  103PMPE  C312 8159   6.918   3.159   5.042
  103PMPE  H12X 8160   6.905   3.108   4.945
  103PMPE  H12Y 8161   6.816   3.172   5.087
  103PMPE  C313 8162   7.000   3.064   5.130
  103PMPE  H13X 8163   7.102   3.046   5.091
  103PMPE  H13Y 8164   6.947   2.965   5.132
  103PMPE  C314 8165   7.008   3.105   5.274
  103PMPE  H14X 8166   7.012   3.215   5.290
  103PMPE  H14Y 8167   7.095   3.060   5.330
  103PMPE  C315 8168   6.888   3.046   5.339
  103PMPE  H15X 8169   6.915   2.940   5.363
  103PMPE  H15Y 8170   6.787   3.048   5.296
  103PMPE  C316 8171   6.877   3.130   5.457
  103PMPE  H16X 8172   6.800   3.073   5.510
  103PMPE  H16Y 8173   6.815   3.214   5.464
  103PMPE  H16Z 8174   6.975   3.132   5.509
  104PMPE     N 8175   6.240   1.547   3.774
  104PMPE   HN1 8176   6.185   1.467   3.737
  104PMPE   HN2 8177   6.307   1.514   3.847
  104PMPE   HN3 8178   6.173   1.615   3.816
  104PMPE   C12 8179   6.314   1.617   3.663
  104PMPE  H12A 8180   6.389   1.547   3.621
  104PMPE  H12B 8181   6.367   1.704   3.709
  104PMPE   C11 8182   6.218   1.675   3.557
  104PMPE  H11A 8183   6.156   1.594   3.513
  104PMPE  H11B 8184   6.281   1.719   3.475
  104PMPE     P 8185   6.004   1.831   3.544
  104PMPE   O13 8186   6.001   1.775   3.406
  104PMPE   O14 8187   5.987   1.978   3.560
  104PMPE   O11 8188   5.902   1.750   3.636
  104PMPE   O12 8189   6.138   1.779   3.616
  104PMPE    C1 8190   5.822   1.822   3.730
  104PMPE    HA 8191   5.723   1.773   3.733
  104PMPE    HB 8192   5.798   1.928   3.699
  104PMPE    C2 8193   5.879   1.823   3.876
  104PMPE    HS 8194   5.818   1.901   3.926
  104PMPE   O21 8195   6.019   1.849   3.890
  104PMPE   C21 8196   6.053   1.977   3.903
  104PMPE   O22 8197   5.980   2.073   3.891
  104PMPE   C22 8198   6.202   1.980   3.943
  104PMPE   H2R 8199   6.253   2.038   3.862
  104PMPE   H2S 8200   6.246   1.881   3.957
  104PMPE    C3 8201   5.856   1.688   3.948
  104PMPE    HX 8202   5.924   1.617   3.896
  104PMPE    HY 8203   5.752   1.653   3.933
  104PMPE   O31 8204   5.885   1.698   4.090
  104PMPE   C31 8205   5.937   1.591   4.149
  104PMPE   O32 8206   5.951   1.482   4.097
  104PMPE   C32 8207   5.972   1.622   4.295
  104PMPE   H2X 8208   5.901   1.568   4.361
  104PMPE   H2Y 8209   5.962   1.732   4.312
  104PMPE   C23 8210   6.231   2.053   4.074
  104PMPE   H3R 8211   6.140   2.112   4.090
  104PMPE   H3S 8212   6.324   2.111   4.058
  104PMPE   C24 8213   6.248   1.979   4.204
  104PMPE   H4R 8214   6.325   1.902   4.186
  104PMPE   H4S 8215   6.149   1.935   4.227
  104PMPE   C25 8216   6.295   2.064   4.324
  104PMPE   H5R 8217   6.245   2.162   4.333
  104PMPE   H5S 8218   6.402   2.087   4.316
  104PMPE   C26 8219   6.273   1.981   4.450
  104PMPE   H6R 8220   6.320   1.882   4.438
  104PMPE   H6S 8221   6.163   1.965   4.458
  104PMPE   C27 8222   6.333   2.042   4.577
  104PMPE   H7R 8223   6.440   2.035   4.578
  104PMPE   H7S 8224   6.294   1.987   4.667
  104PMPE   C28 8225   6.299   2.185   4.592
  104PMPE   H8R 8226   6.313   2.257   4.509
  104PMPE   H8S 8227   6.341   2.232   4.683
  104PMPE   C29 8228   6.160   2.162   4.614
  104PMPE   H9R 8229   6.085   2.130   4.537
  104PMPE  C217 8230   6.129   2.299   4.638
  104PMPE  H17R 8231   6.064   2.328   4.557
  104PMPE  H17S 8232   6.176   2.371   4.700
  104PMPE  C210 8233   6.104   2.189   4.743
  104PMPE  H10R 8234   6.017   2.125   4.734
  104PMPE  C211 8235   6.173   2.217   4.882
  104PMPE  H11R 8236   6.110   2.283   4.947
  104PMPE  H11S 8237   6.255   2.287   4.874
  104PMPE  C212 8238   6.202   2.089   4.959
  104PMPE  H12R 8239   6.244   2.015   4.890
  104PMPE  H12S 8240   6.110   2.041   4.987
  104PMPE  C213 8241   6.242   2.092   5.106
  104PMPE  H13R 8242   6.169   2.148   5.169
  104PMPE  H13S 8243   6.340   2.142   5.115
  104PMPE  C214 8244   6.250   1.949   5.163
  104PMPE  H14R 8245   6.263   1.955   5.273
  104PMPE  H14S 8246   6.333   1.897   5.114
  104PMPE  C215 8247   6.141   1.851   5.135
  104PMPE  H15R 8248   6.161   1.751   5.183
  104PMPE  H15S 8249   6.115   1.835   5.029
  104PMPE  C216 8250   6.023   1.901   5.197
  104PMPE  H16R 8251   6.011   2.004   5.233
  104PMPE  H16S 8252   5.942   1.867   5.127
  104PMPE  H16T 8253   6.023   1.845   5.289
  104PMPE   C33 8254   6.115   1.577   4.331
  104PMPE   H3X 8255   6.187   1.627   4.263
  104PMPE   H3Y 8256   6.124   1.467   4.311
  104PMPE   C34 8257   6.150   1.602   4.479
  104PMPE   H4X 8258   6.094   1.531   4.544
  104PMPE   H4Y 8259   6.119   1.705   4.507
  104PMPE   C35 8260   6.301   1.585   4.503
  104PMPE   H5X 8261   6.348   1.644   4.421
  104PMPE   H5Y 8262   6.327   1.478   4.491
  104PMPE   C36 8263   6.366   1.643   4.631
  104PMPE   H6X 8264   6.337   1.749   4.639
  104PMPE   H6Y 8265   6.476   1.637   4.608
  104PMPE   C37 8266   6.345   1.575   4.768
  104PMPE   H7X 8267   6.431   1.608   4.831
  104PMPE   H7Y 8268   6.355   1.465   4.760
  104PMPE   C38 8269   6.216   1.617   4.845
  104PMPE   H8X 8270   6.129   1.615   4.777
  104PMPE   H8Y 8271   6.229   1.724   4.876
  104PMPE   C39 8272   6.187   1.530   4.970
  104PMPE   H9X 8273   6.140   1.437   4.932
  104PMPE   H9Y 8274   6.111   1.572   5.039
  104PMPE  C310 8275   6.317   1.495   5.044
  104PMPE  H10X 8276   6.376   1.588   5.057
  104PMPE  H10Y 8277   6.375   1.427   4.977
  104PMPE  C311 8278   6.308   1.425   5.181
  104PMPE  H11X 8279   6.402   1.369   5.200
  104PMPE  H11Y 8280   6.227   1.357   5.177
  104PMPE  C312 8281   6.251   1.490   5.305
  104PMPE  H12X 8282   6.234   1.409   5.381
  104PMPE  H12Y 8283   6.149   1.531   5.285
  104PMPE  C313 8284   6.347   1.594   5.356
  104PMPE  H13X 8285   6.375   1.656   5.269
  104PMPE  H13Y 8286   6.439   1.545   5.395
  104PMPE  C314 8287   6.284   1.672   5.470
  104PMPE  H14X 8288   6.262   1.602   5.553
  104PMPE  H14Y 8289   6.192   1.724   5.436
  104PMPE  C315 8290   6.376   1.776   5.527
  104PMPE  H15X 8291   6.388   1.847   5.442
  104PMPE  H15Y 8292   6.473   1.735   5.557
  104PMPE  C316 8293   6.321   1.850   5.646
  104PMPE  H16X 8294   6.237   1.905   5.605
  104PMPE  H16Y 8295   6.393   1.921   5.682
  104PMPE  H16Z 8296   6.292   1.803   5.739
  105PMPE     N 8297   0.268   4.635   3.527
  105PMPE   HN1 8298   0.359   4.675   3.495
  105PMPE   HN2 8299   0.206   4.612   3.446
  105PMPE   HN3 8300   0.218   4.703   3.589
  105PMPE   C12 8301   0.303   4.509   3.602
  105PMPE  H12A 8302   0.330   4.432   3.527
  105PMPE  H12B 8303   0.213   4.473   3.654
  105PMPE   C11 8304   0.426   4.533   3.692
  105PMPE  H11A 8305   0.432   4.451   3.767
  105PMPE  H11B 8306   0.415   4.626   3.751
  105PMPE     P 8307   0.626   4.407   3.581
  105PMPE   O13 8308   0.761   4.437   3.530
  105PMPE   O14 8309   0.534   4.324   3.502
  105PMPE   O11 8310   0.640   4.347   3.725
  105PMPE   O12 8311   0.546   4.543   3.612
  105PMPE    C1 8312   0.741   4.408   3.805
  105PMPE    HA 8313   0.720   4.515   3.827
  105PMPE    HB 8314   0.843   4.400   3.759
  105PMPE    C2 8315   0.738   4.333   3.935
  105PMPE    HS 8316   0.791   4.237   3.917
  105PMPE   O21 8317   0.606   4.321   3.986
  105PMPE   C21 8318   0.567   4.215   4.048
  105PMPE   O22 8319   0.624   4.112   4.066
  105PMPE   C22 8320   0.432   4.228   4.106
  105PMPE   H2R 8321   0.385   4.129   4.082
  105PMPE   H2S 8322   0.377   4.306   4.053
  105PMPE    C3 8323   0.814   4.413   4.031
  105PMPE    HX 8324   0.913   4.429   3.981
  105PMPE    HY 8325   0.818   4.342   4.112
  105PMPE   O31 8326   0.735   4.529   4.072
  105PMPE   C31 8327   0.821   4.623   4.105
  105PMPE   O32 8328   0.938   4.611   4.087
  105PMPE   C32 8329   0.760   4.754   4.134
  105PMPE   H2X 8330   0.758   4.798   4.035
  105PMPE   H2Y 8331   0.808   4.842   4.177
  105PMPE   C23 8332   0.448   4.250   4.259
  105PMPE   H3R 8333   0.514   4.173   4.306
  105PMPE   H3S 8334   0.348   4.240   4.306
  105PMPE   C24 8335   0.505   4.389   4.292
  105PMPE   H4R 8336   0.445   4.465   4.238
  105PMPE   H4S 8337   0.609   4.397   4.254
  105PMPE   C25 8338   0.504   4.421   4.443
  105PMPE   H5R 8339   0.609   4.437   4.477
  105PMPE   H5S 8340   0.468   4.333   4.500
  105PMPE   C26 8341   0.417   4.543   4.476
  105PMPE   H6R 8342   0.310   4.517   4.457
  105PMPE   H6S 8343   0.442   4.625   4.404
  105PMPE   C27 8344   0.438   4.606   4.614
  105PMPE   H7R 8345   0.429   4.716   4.605
  105PMPE   H7S 8346   0.540   4.582   4.652
  105PMPE   C28 8347   0.341   4.567   4.723
  105PMPE   H8R 8348   0.236   4.572   4.686
  105PMPE   H8S 8349   0.349   4.641   4.806
  105PMPE   C29 8350   0.384   4.428   4.770
  105PMPE   H9R 8351   0.485   4.390   4.755
  105PMPE  C217 8352   0.279   4.322   4.747
  105PMPE  H17R 8353   0.308   4.217   4.747
  105PMPE  H17S 8354   0.190   4.366   4.707
  105PMPE  C210 8355   0.307   4.378   4.884
  105PMPE  H10R 8356   0.352   4.310   4.958
  105PMPE  C211 8357   0.212   4.482   4.927
  105PMPE  H11R 8358   0.121   4.420   4.917
  105PMPE  H11S 8359   0.150   4.544   4.859
  105PMPE  C212 8360   0.273   4.546   5.066
  105PMPE  H12R 8361   0.210   4.636   5.062
  105PMPE  H12S 8362   0.373   4.577   5.040
  105PMPE  C213 8363   0.284   4.472   5.221
  105PMPE  H13R 8364   0.349   4.538   5.276
  105PMPE  H13S 8365   0.320   4.369   5.205
  105PMPE  C214 8366   0.180   4.468   5.350
  105PMPE  H14R 8367   0.070   4.461   5.343
  105PMPE  H14S 8368   0.147   4.565   5.350
  105PMPE  C215 8369   0.154   4.371   5.461
  105PMPE  H15R 8370   0.249   4.377   5.509
  105PMPE  H15S 8371   0.146   4.262   5.437
  105PMPE  C216 8372   0.025   4.420   5.535
  105PMPE  H16R 8373  -0.076   4.392   5.493
  105PMPE  H16S 8374   0.054   4.379   5.628
  105PMPE  H16T 8375  -0.003   4.518   5.568
  105PMPE   C33 8376   0.652   4.736   4.233
  105PMPE   H3X 8377   0.638   4.637   4.280
  105PMPE   H3Y 8378   0.564   4.775   4.176
  105PMPE   C34 8379   0.674   4.820   4.356
  105PMPE   H4X 8380   0.567   4.829   4.390
  105PMPE   H4Y 8381   0.713   4.913   4.316
  105PMPE   C35 8382   0.788   4.836   4.460
  105PMPE   H5X 8383   0.787   4.928   4.525
  105PMPE   H5Y 8384   0.883   4.867   4.417
  105PMPE   C36 8385   0.760   4.745   4.572
  105PMPE   H6X 8386   0.779   4.650   4.525
  105PMPE   H6Y 8387   0.652   4.747   4.597
  105PMPE   C37 8388   0.840   4.778   4.698
  105PMPE   H7X 8389   0.808   4.868   4.752
  105PMPE   H7Y 8390   0.946   4.795   4.668
  105PMPE   C38 8391   0.839   4.654   4.783
  105PMPE   H8X 8392   0.941   4.638   4.819
  105PMPE   H8Y 8393   0.812   4.578   4.710
  105PMPE   C39 8394   0.735   4.636   4.893
  105PMPE   H9X 8395   0.728   4.526   4.915
  105PMPE   H9Y 8396   0.636   4.666   4.853
  105PMPE  C310 8397   0.778   4.711   5.018
  105PMPE  H10X 8398   0.807   4.813   4.982
  105PMPE  H10Y 8399   0.864   4.673   5.075
  105PMPE  C311 8400   0.672   4.712   5.124
  105PMPE  H11X 8401   0.591   4.724   5.055
  105PMPE  H11Y 8402   0.684   4.790   5.202
  105PMPE  C312 8403   0.584   4.598   5.162
  105PMPE  H12X 8404   0.560   4.531   5.078
  105PMPE  H12Y 8405   0.488   4.646   5.200
  105PMPE  C313 8406   0.660   4.529   5.265
  105PMPE  H13X 8407   0.678   4.617   5.329
  105PMPE  H13Y 8408   0.756   4.494   5.226
  105PMPE  C314 8409   0.577   4.417   5.320
  105PMPE  H14X 8410   0.519   4.359   5.247
  105PMPE  H14Y 8411   0.494   4.473   5.352
  105PMPE  C315 8412   0.633   4.336   5.435
  105PMPE  H15X 8413   0.657   4.386   5.531
  105PMPE  H15Y 8414   0.735   4.320   5.405
  105PMPE  C316 8415   0.545   4.218   5.471
  105PMPE  H16X 8416   0.528   4.150   5.386
  105PMPE  H16Y 8417   0.445   4.254   5.505
  105PMPE  H16Z 8418   0.594   4.161   5.553
  106PMPE     N 8419   6.966   4.375   3.420
  106PMPE   HN1 8420   6.897   4.334   3.352
  106PMPE   HN2 8421   7.060   4.332   3.408
  106PMPE   HN3 8422   6.940   4.357   3.519
  106PMPE   C12 8423   6.990   4.522   3.399
  106PMPE  H12A 8424   6.898   4.568   3.361
  106PMPE  H12B 8425   7.066   4.533   3.319
  106PMPE   C11 8426   7.032   4.594   3.528
  106PMPE  H11A 8427   6.953   4.589   3.607
  106PMPE  H11B 8428   7.040   4.700   3.497
  106PMPE     P 8429   7.236   4.649   3.680
  106PMPE   O13 8430   7.165   4.778   3.687
  106PMPE   O14 8431   7.380   4.647   3.642
  106PMPE   O11 8432   7.216   4.578   3.819
  106PMPE   O12 8433   7.156   4.547   3.581
  106PMPE    C1 8434   7.315   4.554   3.920
  106PMPE    HA 8435   7.418   4.565   3.883
  106PMPE    HB 8436   7.299   4.451   3.961
  106PMPE    C2 8437   7.309   4.641   4.047
  106PMPE    HS 8438   7.361   4.587   4.130
  106PMPE   O21 8439   7.175   4.655   4.084
  106PMPE   C21 8440   7.165   4.699   4.203
  106PMPE   O22 8441   7.228   4.668   4.303
  106PMPE   C22 8442   7.051   4.798   4.189
  106PMPE   H2R 8443   7.000   4.775   4.094
  106PMPE   H2S 8444   7.058   4.901   4.218
  106PMPE    C3 8445   7.374   4.779   4.029
  106PMPE    HX 8446   7.309   4.849   3.971
  106PMPE    HY 8447   7.466   4.760   3.971
  106PMPE   O31 8448   7.415   4.831   4.155
  106PMPE   C31 8449   7.390   4.954   4.182
  106PMPE   O32 8450   7.325   5.035   4.119
  106PMPE   C32 8451   7.461   4.977   4.312
  106PMPE   H2X 8452   7.550   5.024   4.273
  106PMPE   H2Y 8453   7.500   4.886   4.360
  106PMPE   C23 8454   6.968   4.795   4.307
  106PMPE   H3R 8455   7.040   4.757   4.389
  106PMPE   H3S 8456   6.971   4.674   4.313
  106PMPE   C24 8457   6.775   4.867   4.340
  106PMPE   H4R 8458   6.753   4.916   4.253
  106PMPE   H4S 8459   6.735   4.936   4.403
  106PMPE   C25 8460   6.634   4.758   4.469
  106PMPE   H5R 8461   6.566   4.683   4.425
  106PMPE   H5S 8462   6.589   4.835   4.499
  106PMPE   C26 8463   6.667   4.623   4.597
  106PMPE   H6R 8464   6.745   4.543   4.564
  106PMPE   H6S 8465   6.601   4.546   4.620
  106PMPE   C27 8466   6.743   4.673   4.729
  106PMPE   H7R 8467   6.707   4.773   4.737
  106PMPE   H7S 8468   6.849   4.689   4.716
  106PMPE   C28 8469   6.783   4.614   4.858
  106PMPE   H8R 8470   6.692   4.567   4.893
  106PMPE   H8S 8471   6.812   4.700   4.921
  106PMPE   C29 8472   6.900   4.522   4.839
  106PMPE   H9R 8473   6.977   4.539   4.760
  106PMPE  C217 8474   6.824   4.411   4.780
  106PMPE  H17R 8475   6.877   4.377   4.693
  106PMPE  H17S 8476   6.716   4.412   4.787
  106PMPE  C210 8477   6.890   4.396   4.914
  106PMPE  H10R 8478   6.977   4.329   4.918
  106PMPE  C211 8479   6.799   4.404   5.034
  106PMPE  H11R 8480   6.804   4.309   5.080
  106PMPE  H11S 8481   6.692   4.429   5.013
  106PMPE  C212 8482   6.845   4.475   5.157
  106PMPE  H12R 8483   6.901   4.558   5.112
  106PMPE  H12S 8484   6.922   4.419   5.214
  106PMPE  C213 8485   6.715   4.490   5.240
  106PMPE  H13R 8486   6.681   4.390   5.272
  106PMPE  H13S 8487   6.635   4.545   5.185
  106PMPE  C214 8488   6.722   4.555   5.375
  106PMPE  H14R 8489   6.805   4.511   5.429
  106PMPE  H14S 8490   6.644   4.543   5.448
  106PMPE  C215 8491   6.702   4.698   5.362
  106PMPE  H15R 8492   6.714   4.748   5.463
  106PMPE  H15S 8493   6.627   4.750   5.296
  106PMPE  C216 8494   6.756   4.756   5.268
  106PMPE  H16R 8495   6.827   4.789   5.319
  106PMPE  H16S 8496   6.837   4.683   5.247
  106PMPE  H16T 8497   6.783   4.864   5.304
  106PMPE   C33 8498   7.385   5.061   4.411
  106PMPE   H3X 8499   7.350   5.159   4.368
  106PMPE   H3Y 8500   7.443   5.087   4.504
  106PMPE   C34 8501   7.277   4.975   4.458
  106PMPE   H4X 8502   7.304   4.896   4.532
  106PMPE   H4Y 8503   7.216   4.934   4.374
  106PMPE   C35 8504   7.189   5.064   4.526
  106PMPE   H5X 8505   7.103   5.008   4.520
  106PMPE   H5Y 8506   7.144   5.139   4.458
  106PMPE   C36 8507   7.226   5.096   4.669
  106PMPE   H6X 8508   7.138   5.151   4.696
  106PMPE   H6Y 8509   7.310   5.162   4.667
  106PMPE   C37 8510   7.266   5.005   4.785
  106PMPE   H7X 8511   7.238   5.050   4.883
  106PMPE   H7Y 8512   7.370   4.977   4.769
  106PMPE   C38 8513   7.199   4.876   4.800
  106PMPE   H8X 8514   7.196   4.818   4.710
  106PMPE   H8Y 8515   7.111   4.923   4.807
  106PMPE   C39 8516   7.188   4.807   4.930
  106PMPE   H9X 8517   7.113   4.725   4.917
  106PMPE   H9Y 8518   7.163   4.875   5.017
  106PMPE  C310 8519   7.321   4.759   4.953
  106PMPE  H10X 8520   7.363   4.844   5.011
  106PMPE  H10Y 8521   7.361   4.751   4.849
  106PMPE  C311 8522   7.331   4.626   5.019
  106PMPE  H11X 8523   7.439   4.610   5.030
  106PMPE  H11Y 8524   7.283   4.546   4.958
  106PMPE  C312 8525   7.271   4.624   5.156
  106PMPE  H12X 8526   7.173   4.669   5.139
  106PMPE  H12Y 8527   7.329   4.689   5.225
  106PMPE  C313 8528   7.242   4.486   5.211
  106PMPE  H13X 8529   7.332   4.422   5.202
  106PMPE  H13Y 8530   7.156   4.437   5.158
  106PMPE  C314 8531   7.208   4.492   5.356
  106PMPE  H14X 8532   7.158   4.394   5.375
  106PMPE  H14Y 8533   7.133   4.565   5.385
  106PMPE  C315 8534   7.333   4.532   5.437
  106PMPE  H15X 8535   7.397   4.608   5.392
  106PMPE  H15Y 8536   7.394   4.438   5.445
  106PMPE  C316 8537   7.307   4.595   5.571
  106PMPE  H16X 8538   7.373   4.541   5.644
  106PMPE  H16Y 8539   7.199   4.577   5.588
  106PMPE  H16Z 8540   7.290   4.698   5.602
  107PMPE     N 8541   4.622   7.524   3.570
  107PMPE   HN1 8542   4.716   7.555   3.541
  107PMPE   HN2 8543   4.561   7.498   3.488
  107PMPE   HN3 8544   4.571   7.597   3.623
  107PMPE   C12 8545   4.638   7.406   3.660
  107PMPE  H12A 8546   4.679   7.441   3.757
  107PMPE  H12B 8547   4.709   7.335   3.613
  107PMPE   C11 8548   4.503   7.338   3.682
  107PMPE  H11A 8549   4.437   7.405   3.742
  107PMPE  H11B 8550   4.521   7.246   3.742
  107PMPE     P 8551   4.297   7.241   3.556
  107PMPE   O13 8552   4.297   7.108   3.492
  107PMPE   O14 8553   4.191   7.337   3.518
  107PMPE   O11 8554   4.280   7.218   3.707
  107PMPE   O12 8555   4.442   7.307   3.556
  107PMPE    C1 8556   4.155   7.172   3.757
  107PMPE    HA 8557   4.128   7.072   3.712
  107PMPE    HB 8558   4.074   7.245   3.745
  107PMPE    C2 8559   4.167   7.161   3.907
  107PMPE    HS 8560   4.068   7.181   3.952
  107PMPE   O21 8561   4.282   7.234   3.960
  107PMPE   C21 8562   4.251   7.315   4.055
  107PMPE   O22 8563   4.139   7.338   4.093
  107PMPE   C22 8564   4.377   7.364   4.124
  107PMPE   H2R 8565   4.429   7.427   4.051
  107PMPE   H2S 8566   4.439   7.275   4.149
  107PMPE    C3 8567   4.193   7.022   3.931
  107PMPE    HX 8568   4.276   7.026   3.860
  107PMPE    HY 8569   4.132   6.941   3.878
  107PMPE   O31 8570   4.258   7.010   4.065
  107PMPE   C31 8571   4.198   6.917   4.131
  107PMPE   O32 8572   4.089   6.878   4.084
  107PMPE   C32 8573   4.268   6.871   4.292
  107PMPE   H2X 8574   4.374   6.877   4.276
  107PMPE   H2Y 8575   4.224   6.774   4.319
  107PMPE   C23 8576   4.345   7.444   4.252
  107PMPE   H3R 8577   4.274   7.390   4.317
  107PMPE   H3S 8578   4.293   7.537   4.223
  107PMPE   C24 8579   4.468   7.485   4.335
  107PMPE   H4R 8580   4.428   7.538   4.424
  107PMPE   H4S 8581   4.530   7.558   4.278
  107PMPE   C25 8582   4.557   7.369   4.382
  107PMPE   H5R 8583   4.635   7.411   4.449
  107PMPE   H5S 8584   4.609   7.323   4.295
  107PMPE   C26 8585   4.473   7.264   4.457
  107PMPE   H6R 8586   4.428   7.196   4.382
  107PMPE   H6S 8587   4.392   7.315   4.514
  107PMPE   C27 8588   4.542   7.178   4.560
  107PMPE   H7R 8589   4.631   7.135   4.509
  107PMPE   H7S 8590   4.482   7.091   4.589
  107PMPE   C28 8591   4.578   7.254   4.689
  107PMPE   H8R 8592   4.667   7.314   4.663
  107PMPE   H8S 8593   4.591   7.182   4.774
  107PMPE   C29 8594   4.489   7.340   4.761
  107PMPE   H9R 8595   4.389   7.303   4.775
  107PMPE  C217 8596   4.518   7.485   4.732
  107PMPE  H17R 8597   4.421   7.523   4.710
  107PMPE  H17S 8598   4.610   7.502   4.677
  107PMPE  C210 8599   4.545   7.427   4.871
  107PMPE  H10R 8600   4.476   7.467   4.947
  107PMPE  C211 8601   4.691   7.428   4.909
  107PMPE  H11R 8602   4.726   7.534   4.912
  107PMPE  H11S 8603   4.754   7.370   4.839
  107PMPE  C212 8604   4.713   7.363   5.044
  107PMPE  H12R 8605   4.680   7.430   5.124
  107PMPE  H12S 8606   4.820   7.337   5.064
  107PMPE  C213 8607   4.651   7.227   5.054
  107PMPE  H13R 8608   4.694   7.163   4.976
  107PMPE  H13S 8609   4.542   7.230   5.041
  107PMPE  C214 8610   4.700   7.175   5.187
  107PMPE  H14R 8611   4.676   7.242   5.269
  107PMPE  H14S 8612   4.806   7.171   5.163
  107PMPE  C215 8613   4.662   7.039   5.224
  107PMPE  H15R 8614   4.705   6.983   5.311
  107PMPE  H15S 8615   4.667   6.990   5.123
  107PMPE  C216 8616   4.529   7.026   5.236
  107PMPE  H16R 8617   4.505   6.918   5.263
  107PMPE  H16S 8618   4.473   7.103   5.290
  107PMPE  H16T 8619   4.497   7.046   5.129
  107PMPE   C33 8620   4.253   6.930   4.448
  107PMPE   H3X 8621   4.146   6.925   4.471
  107PMPE   H3Y 8622   4.297   7.032   4.469
  107PMPE   C34 8623   4.280   6.887   4.587
  107PMPE   H4X 8624   4.386   6.864   4.571
  107PMPE   H4Y 8625   4.203   6.808   4.607
  107PMPE   C35 8626   4.257   7.007   4.682
  107PMPE   H5X 8627   4.148   7.006   4.705
  107PMPE   H5Y 8628   4.284   7.114   4.656
  107PMPE   C36 8629   4.273   6.975   4.815
  107PMPE   H6X 8630   4.383   6.987   4.823
  107PMPE   H6Y 8631   4.236   6.870   4.817
  107PMPE   C37 8632   4.184   7.053   4.913
  107PMPE   H7X 8633   4.173   6.980   4.989
  107PMPE   H7Y 8634   4.080   7.035   4.930
  107PMPE   C38 8635   4.233   7.190   4.953
  107PMPE   H8X 8636   4.227   7.258   4.867
  107PMPE   H8Y 8637   4.340   7.180   4.981
  107PMPE   C39 8638   4.155   7.252   5.069
  107PMPE   H9X 8639   4.144   7.185   5.155
  107PMPE   H9Y 8640   4.051   7.278   5.048
  107PMPE  C310 8641   4.230   7.373   5.115
  107PMPE  H10X 8642   4.229   7.456   5.039
  107PMPE  H10Y 8643   4.333   7.349   5.144
  107PMPE  C311 8644   4.171   7.423   5.239
  107PMPE  H11X 8645   4.150   7.359   5.327
  107PMPE  H11Y 8646   4.072   7.443   5.199
  107PMPE  C312 8647   4.258   7.541   5.269
  107PMPE  H12X 8648   4.208   7.565   5.358
  107PMPE  H12Y 8649   4.260   7.618   5.190
  107PMPE  C313 8650   4.389   7.547   5.335
  107PMPE  H13X 8651   4.409   7.658   5.354
  107PMPE  H13Y 8652   4.461   7.499   5.270
  107PMPE  C314 8653   4.406   7.486   5.465
  107PMPE  H14X 8654   4.405   7.374   5.470
  107PMPE  H14Y 8655   4.338   7.530   5.543
  107PMPE  C315 8656   4.529   7.544   5.505
  107PMPE  H15X 8657   4.531   7.652   5.503
  107PMPE  H15Y 8658   4.620   7.491   5.468
  107PMPE  C316 8659   4.516   7.533   5.642
  107PMPE  H16X 8660   4.455   7.582   5.719
  107PMPE  H16Y 8661   4.616   7.573   5.661
  107PMPE  H16Z 8662   4.499   7.422   5.649
  108PMPE     N 8663   0.544   5.111   3.338
  108PMPE   HN1 8664   0.598   5.033   3.295
  108PMPE   HN2 8665   0.465   5.071   3.392
  108PMPE   HN3 8666   0.508   5.176   3.264
  108PMPE   C12 8667   0.639   5.182   3.429
  108PMPE  H12A 8668   0.731   5.190   3.371
  108PMPE  H12B 8669   0.655   5.119   3.519
  108PMPE   C11 8670   0.592   5.323   3.469
  108PMPE  H11A 8671   0.492   5.316   3.518
  108PMPE  H11B 8672   0.581   5.385   3.377
  108PMPE     P 8673   0.691   5.373   3.711
  108PMPE   O13 8674   0.829   5.391   3.761
  108PMPE   O14 8675   0.627   5.243   3.740
  108PMPE   O11 8676   0.598   5.495   3.752
  108PMPE   O12 8677   0.691   5.385   3.553
  108PMPE    C1 8678   0.456   5.486   3.766
  108PMPE    HA 8679   0.411   5.395   3.720
  108PMPE    HB 8680   0.410   5.576   3.718
  108PMPE    C2 8681   0.416   5.489   3.913
  108PMPE    HS 8682   0.477   5.568   3.964
  108PMPE   O21 8683   0.433   5.357   3.969
  108PMPE   C21 8684   0.483   5.355   4.091
  108PMPE   O22 8685   0.496   5.450   4.166
  108PMPE   C22 8686   0.513   5.213   4.133
  108PMPE   H2R 8687   0.588   5.169   4.064
  108PMPE   H2S 8688   0.420   5.153   4.126
  108PMPE    C3 8689   0.273   5.538   3.930
  108PMPE    HX 8690   0.203   5.456   3.894
  108PMPE    HY 8691   0.251   5.625   3.867
  108PMPE   O31 8692   0.274   5.586   4.066
  108PMPE   C31 8693   0.199   5.508   4.133
  108PMPE   O32 8694   0.108   5.449   4.075
  108PMPE   C32 8695   0.240   5.516   4.286
  108PMPE   H2X 8696   0.166   5.584   4.334
  108PMPE   H2Y 8697   0.330   5.577   4.290
  108PMPE   C23 8698   0.561   5.212   4.278
  108PMPE   H3R 8699   0.503   5.268   4.353
  108PMPE   H3S 8700   0.669   5.243   4.285
  108PMPE   C24 8701   0.554   5.073   4.325
  108PMPE   H4R 8702   0.615   5.035   4.240
  108PMPE   H4S 8703   0.461   5.013   4.317
  108PMPE   C25 8704   0.610   5.064   4.468
  108PMPE   H5R 8705   0.707   5.111   4.489
  108PMPE   H5S 8706   0.610   4.963   4.506
  108PMPE   C26 8707   0.520   5.053   4.583
  108PMPE   H6R 8708   0.433   4.983   4.563
  108PMPE   H6S 8709   0.501   5.159   4.562
  108PMPE   C27 8710   0.587   5.017   4.719
  108PMPE   H7R 8711   0.657   5.096   4.753
  108PMPE   H7S 8712   0.628   4.916   4.721
  108PMPE   C28 8713   0.483   5.006   4.825
  108PMPE   H8R 8714   0.408   4.923   4.813
  108PMPE   H8S 8715   0.449   5.096   4.778
  108PMPE   C29 8716   0.504   5.054   4.966
  108PMPE   H9R 8717   0.587   5.121   4.994
  108PMPE  C217 8718   0.524   4.927   5.034
  108PMPE  H17R 8719   0.605   4.936   5.104
  108PMPE  H17S 8720   0.500   4.846   4.964
  108PMPE  C210 8721   0.414   5.012   5.078
  108PMPE  H10R 8722   0.438   5.048   5.180
  108PMPE  C211 8723   0.281   4.947   5.057
  108PMPE  H11R 8724   0.282   4.848   5.006
  108PMPE  H11S 8725   0.219   5.013   4.994
  108PMPE  C212 8726   0.229   4.956   5.199
  108PMPE  H12R 8727   0.135   5.010   5.200
  108PMPE  H12S 8728   0.263   5.041   5.258
  108PMPE  C213 8729   0.239   4.828   5.279
  108PMPE  H13R 8730   0.344   4.815   5.310
  108PMPE  H13S 8731   0.224   4.740   5.217
  108PMPE  C214 8732   0.138   4.836   5.400
  108PMPE  H14R 8733   0.041   4.880   5.403
  108PMPE  H14S 8734   0.202   4.908   5.440
  108PMPE  C215 8735   0.105   4.743   5.509
  108PMPE  H15R 8736   0.095   4.640   5.495
  108PMPE  H15S 8737   0.037   4.752   5.592
  108PMPE  C216 8738   0.229   4.730   5.538
  108PMPE  H16R 8739   0.274   4.682   5.449
  108PMPE  H16S 8740   0.296   4.816   5.552
  108PMPE  H16T 8741   0.228   4.662   5.623
  108PMPE   C33 8742   0.248   5.389   4.379
  108PMPE   H3X 8743   0.321   5.316   4.344
  108PMPE   H3Y 8744   0.160   5.322   4.392
  108PMPE   C34 8745   0.279   5.441   4.519
  108PMPE   H4X 8746   0.321   5.363   4.577
  108PMPE   H4Y 8747   0.197   5.485   4.578
  108PMPE   C35 8748   0.394   5.534   4.538
  108PMPE   H5X 8749   0.357   5.630   4.497
  108PMPE   H5Y 8750   0.477   5.490   4.479
  108PMPE   C36 8751   0.434   5.537   4.686
  108PMPE   H6X 8752   0.348   5.572   4.747
  108PMPE   H6Y 8753   0.514   5.612   4.695
  108PMPE   C37 8754   0.490   5.403   4.738
  108PMPE   H7X 8755   0.549   5.353   4.659
  108PMPE   H7Y 8756   0.408   5.335   4.762
  108PMPE   C38 8757   0.574   5.414   4.864
  108PMPE   H8X 8758   0.654   5.489   4.854
  108PMPE   H8Y 8759   0.619   5.314   4.887
  108PMPE   C39 8760   0.491   5.446   4.985
  108PMPE   H9X 8761   0.441   5.349   5.003
  108PMPE   H9Y 8762   0.414   5.526   4.970
  108PMPE  C310 8763   0.572   5.443   5.112
  108PMPE  H10X 8764   0.616   5.541   5.139
  108PMPE  H10Y 8765   0.636   5.354   5.117
  108PMPE  C311 8766   0.475   5.412   5.215
  108PMPE  H11X 8767   0.407   5.327   5.191
  108PMPE  H11Y 8768   0.439   5.517   5.212
  108PMPE  C312 8769   0.498   5.390   5.358
  108PMPE  H12X 8770   0.590   5.331   5.353
  108PMPE  H12Y 8771   0.408   5.332   5.391
  108PMPE  C313 8772   0.487   5.513   5.448
  108PMPE  H13X 8773   0.397   5.574   5.455
  108PMPE  H13Y 8774   0.551   5.564   5.379
  108PMPE  C314 8775   0.530   5.493   5.593
  108PMPE  H14X 8776   0.636   5.499   5.588
  108PMPE  H14Y 8777   0.496   5.398   5.626
  108PMPE  C315 8778   0.521   5.584   5.717
  108PMPE  H15X 8779   0.457   5.672   5.722
  108PMPE  H15Y 8780   0.573   5.657   5.663
  108PMPE  C316 8781   0.570   5.521   5.858
  108PMPE  H16X 8782   0.525   5.424   5.877
  108PMPE  H16Y 8783   0.560   5.586   5.943
  108PMPE  H16Z 8784   0.671   5.493   5.884
  109PMPE     N 8785   0.408   3.642   3.308
  109PMPE   HN1 8786   0.482   3.661   3.379
  109PMPE   HN2 8787   0.450   3.593   3.226
  109PMPE   HN3 8788   0.368   3.734   3.280
  109PMPE   C12 8789   0.305   3.555   3.375
  109PMPE  H12A 8790   0.322   3.451   3.341
  109PMPE  H12B 8791   0.204   3.590   3.343
  109PMPE   C11 8792   0.308   3.565   3.528
  109PMPE  H11A 8793   0.249   3.482   3.573
  109PMPE  H11B 8794   0.262   3.662   3.557
  109PMPE     P 8795   0.479   3.509   3.718
  109PMPE   O13 8796   0.459   3.363   3.719
  109PMPE   O14 8797   0.413   3.593   3.820
  109PMPE   O11 8798   0.633   3.542   3.710
  109PMPE   O12 8799   0.442   3.564   3.572
  109PMPE    C1 8800   0.699   3.528   3.584
  109PMPE    HA 8801   0.682   3.618   3.521
  109PMPE    HB 8802   0.663   3.436   3.530
  109PMPE    C2 8803   0.852   3.512   3.600
  109PMPE    HS 8804   0.897   3.484   3.502
  109PMPE   O21 8805   0.879   3.413   3.699
  109PMPE   C21 8806   0.841   3.294   3.662
  109PMPE   O22 8807   0.827   3.259   3.544
  109PMPE   C22 8808   0.818   3.211   3.787
  109PMPE   H2R 8809   0.908   3.217   3.854
  109PMPE   H2S 8810   0.804   3.106   3.755
  109PMPE    C3 8811   0.918   3.643   3.644
  109PMPE    HX 8812   0.880   3.728   3.583
  109PMPE    HY 8813   1.022   3.636   3.619
  109PMPE   O31 8814   0.900   3.665   3.785
  109PMPE   C31 8815   0.980   3.596   3.872
  109PMPE   O32 8816   1.082   3.540   3.841
  109PMPE   C32 8817   0.956   3.638   4.016
  109PMPE   H2X 8818   0.963   3.744   3.989
  109PMPE   H2Y 8819   1.046   3.644   4.078
  109PMPE   C23 8820   0.739   3.254   3.899
  109PMPE   H3R 8821   0.641   3.259   3.847
  109PMPE   H3S 8822   0.784   3.351   3.930
  109PMPE   C24 8823   0.759   3.152   4.011
  109PMPE   H4R 8824   0.856   3.098   4.020
  109PMPE   H4S 8825   0.698   3.070   3.988
  109PMPE   C25 8826   0.697   3.193   4.139
  109PMPE   H5R 8827   0.766   3.267   4.181
  109PMPE   H5S 8828   0.684   3.100   4.201
  109PMPE   C26 8829   0.560   3.256   4.122
  109PMPE   H6R 8830   0.484   3.176   4.123
  109PMPE   H6S 8831   0.549   3.316   4.029
  109PMPE   C27 8832   0.522   3.345   4.236
  109PMPE   H7R 8833   0.423   3.391   4.210
  109PMPE   H7S 8834   0.598   3.423   4.238
  109PMPE   C28 8835   0.527   3.275   4.371
  109PMPE   H8R 8836   0.556   3.350   4.448
  109PMPE   H8S 8837   0.596   3.189   4.373
  109PMPE   C29 8838   0.395   3.221   4.405
  109PMPE   H9R 8839   0.350   3.142   4.341
  109PMPE  C217 8840   0.301   3.332   4.449
  109PMPE  H17R 8841   0.234   3.312   4.377
  109PMPE  H17S 8842   0.335   3.433   4.455
  109PMPE  C210 8843   0.341   3.222   4.544
  109PMPE  H10R 8844   0.278   3.134   4.558
  109PMPE  C211 8845   0.420   3.269   4.661
  109PMPE  H11R 8846   0.430   3.380   4.655
  109PMPE  H11S 8847   0.518   3.217   4.653
  109PMPE  C212 8848   0.351   3.226   4.791
  109PMPE  H12R 8849   0.343   3.115   4.784
  109PMPE  H12S 8850   0.253   3.277   4.800
  109PMPE  C213 8851   0.432   3.251   4.917
  109PMPE  H13R 8852   0.469   3.354   4.902
  109PMPE  H13S 8853   0.512   3.173   4.927
  109PMPE  C214 8854   0.370   3.273   5.051
  109PMPE  H14R 8855   0.322   3.373   5.047
  109PMPE  H14S 8856   0.453   3.280   5.125
  109PMPE  C215 8857   0.286   3.157   5.096
  109PMPE  H15R 8858   0.355   3.070   5.107
  109PMPE  H15S 8859   0.213   3.132   5.017
  109PMPE  C216 8860   0.213   3.189   5.224
  109PMPE  H16R 8861   0.145   3.103   5.245
  109PMPE  H16S 8862   0.280   3.205   5.310
  109PMPE  H16T 8863   0.152   3.281   5.209
  109PMPE   C33 8864   0.831   3.565   4.085
  109PMPE   H3X 8865   0.868   3.462   4.098
  109PMPE   H3Y 8866   0.749   3.573   4.008
  109PMPE   C34 8867   0.744   3.604   4.214
  109PMPE   H4X 8868   0.637   3.620   4.195
  109PMPE   H4Y 8869   0.736   3.703   4.245
  109PMPE   C35 8870   0.798   3.594   4.354
  109PMPE   H5X 8871   0.909   3.613   4.349
  109PMPE   H5Y 8872   0.767   3.489   4.367
  109PMPE   C36 8873   0.739   3.679   4.471
  109PMPE   H6X 8874   0.792   3.761   4.516
  109PMPE   H6Y 8875   0.789   3.681   4.566
  109PMPE   C37 8876   0.596   3.689   4.494
  109PMPE   H7X 8877   0.555   3.597   4.448
  109PMPE   H7Y 8878   0.561   3.782   4.446
  109PMPE   C38 8879   0.575   3.708   4.642
  109PMPE   H8X 8880   0.644   3.777   4.695
  109PMPE   H8Y 8881   0.598   3.619   4.690
  109PMPE   C39 8882   0.430   3.704   4.675
  109PMPE   H9X 8883   0.386   3.612   4.630
  109PMPE   H9Y 8884   0.395   3.796   4.626
  109PMPE  C310 8885   0.404   3.699   4.825
  109PMPE  H10X 8886   0.426   3.600   4.872
  109PMPE  H10Y 8887   0.296   3.719   4.836
  109PMPE  C311 8888   0.483   3.806   4.898
  109PMPE  H11X 8889   0.478   3.902   4.843
  109PMPE  H11Y 8890   0.590   3.773   4.903
  109PMPE  C312 8891   0.420   3.827   5.034
  109PMPE  H12X 8892   0.418   3.729   5.088
  109PMPE  H12Y 8893   0.320   3.871   5.026
  109PMPE  C313 8894   0.496   3.925   5.114
  109PMPE  H13X 8895   0.454   3.946   5.215
  109PMPE  H13Y 8896   0.514   4.023   5.066
  109PMPE  C314 8897   0.624   3.858   5.134
  109PMPE  H14X 8898   0.649   3.933   5.205
  109PMPE  H14Y 8899   0.703   3.857   5.055
  109PMPE  C315 8900   0.625   3.753   5.239
  109PMPE  H15X 8901   0.726   3.725   5.210
  109PMPE  H15Y 8902   0.589   3.654   5.219
  109PMPE  C316 8903   0.590   3.808   5.382
  109PMPE  H16X 8904   0.667   3.873   5.424
  109PMPE  H16Y 8905   0.580   3.728   5.457
  109PMPE  H16Z 8906   0.494   3.856   5.399
  110PMPE     N 8907   2.046   6.804   3.424
  110PMPE   HN1 8908   2.028   6.885   3.360
  110PMPE   HN2 8909   1.992   6.721   3.392
  110PMPE   HN3 8910   2.018   6.833   3.520
  110PMPE   C12 8911   2.190   6.760   3.428
  110PMPE  H12A 8912   2.222   6.740   3.323
  110PMPE  H12B 8913   2.192   6.664   3.483
  110PMPE   C11 8914   2.283   6.863   3.495
  110PMPE  H11A 8915   2.283   6.954   3.431
  110PMPE  H11B 8916   2.388   6.822   3.495
  110PMPE     P 8917   2.293   7.036   3.688
  110PMPE   O13 8918   2.384   7.100   3.593
  110PMPE   O14 8919   2.334   7.017   3.828
  110PMPE   O11 8920   2.157   7.114   3.679
  110PMPE   O12 8921   2.241   6.896   3.627
  110PMPE    C1 8922   2.037   7.055   3.726
  110PMPE    HA 8923   2.053   6.953   3.771
  110PMPE    HB 8924   1.964   7.045   3.643
  110PMPE    C2 8925   1.976   7.141   3.836
  110PMPE    HS 8926   1.967   7.248   3.805
  110PMPE   O21 8927   2.054   7.121   3.956
  110PMPE   C21 8928   2.022   7.197   4.057
  110PMPE   O22 8929   1.939   7.287   4.052
  110PMPE   C22 8930   2.099   7.148   4.182
  110PMPE   H2R 8931   2.200   7.188   4.191
  110PMPE   H2S 8932   2.109   7.040   4.177
  110PMPE    C3 8933   1.836   7.090   3.858
  110PMPE    HX 8934   1.771   7.096   3.768
  110PMPE    HY 8935   1.793   7.144   3.942
  110PMPE   O31 8936   1.847   6.955   3.887
  110PMPE   C31 8937   1.865   6.921   4.014
  110PMPE   O32 8938   1.821   6.964   4.115
  110PMPE   C32 8939   1.906   6.790   4.015
  110PMPE   H2X 8940   1.847   6.762   3.925
  110PMPE   H2Y 8941   1.871   6.754   4.117
  110PMPE   C23 8942   2.035   7.182   4.315
  110PMPE   H3R 8943   1.961   7.107   4.319
  110PMPE   H3S 8944   1.986   7.278   4.306
  110PMPE   C24 8945   2.098   7.132   4.447
  110PMPE   H4R 8946   2.205   7.148   4.427
  110PMPE   H4S 8947   2.067   7.028   4.462
  110PMPE   C25 8948   2.057   7.202   4.576
  110PMPE   H5R 8949   2.093   7.186   4.678
  110PMPE   H5S 8950   1.983   7.149   4.634
  110PMPE   C26 8951   2.039   7.345   4.539
  110PMPE   H6R 8952   1.997   7.400   4.617
  110PMPE   H6S 8953   1.975   7.402   4.467
  110PMPE   C27 8954   2.170   7.371   4.517
  110PMPE   H7R 8955   2.135   7.480   4.510
  110PMPE   H7S 8956   2.202   7.354   4.414
  110PMPE   C28 8957   2.275   7.306   4.624
  110PMPE   H8R 8958   2.274   7.201   4.650
  110PMPE   H8S 8959   2.233   7.313   4.724
  110PMPE   C29 8960   2.423   7.355   4.622
  110PMPE   H9R 8961   2.450   7.446   4.670
  110PMPE  C217 8962   2.515   7.273   4.542
  110PMPE  H17R 8963   2.560   7.336   4.466
  110PMPE  H17S 8964   2.434   7.211   4.508
  110PMPE  C210 8965   2.549   7.312   4.688
  110PMPE  H10R 8966   2.623   7.397   4.706
  110PMPE  C211 8967   2.501   7.252   4.815
  110PMPE  H11R 8968   2.588   7.192   4.843
  110PMPE  H11S 8969   2.416   7.185   4.793
  110PMPE  C212 8970   2.468   7.343   4.937
  110PMPE  H12R 8971   2.370   7.395   4.940
  110PMPE  H12S 8972   2.545   7.422   4.952
  110PMPE  C213 8973   2.460   7.244   5.052
  110PMPE  H13R 8974   2.543   7.171   5.036
  110PMPE  H13S 8975   2.365   7.187   5.043
  110PMPE  C214 8976   2.480   7.301   5.191
  110PMPE  H14R 8977   2.381   7.310   5.243
  110PMPE  H14S 8978   2.527   7.402   5.183
  110PMPE  C215 8979   2.563   7.203   5.273
  110PMPE  H15R 8980   2.671   7.215   5.247
  110PMPE  H15S 8981   2.532   7.100   5.245
  110PMPE  C216 8982   2.541   7.213   5.422
  110PMPE  H16R 8983   2.577   7.309   5.460
  110PMPE  H16S 8984   2.433   7.209   5.449
  110PMPE  H16T 8985   2.595   7.129   5.470
  110PMPE   C33 8986   2.034   6.731   3.973
  110PMPE   H3X 8987   2.047   6.768   3.870
  110PMPE   H3Y 8988   2.037   6.619   3.967
  110PMPE   C34 8989   2.125   6.776   4.080
  110PMPE   H4X 8990   2.109   6.884   4.083
  110PMPE   H4Y 8991   2.224   6.747   4.042
  110PMPE   C35 8992   2.101   6.722   4.222
  110PMPE   H5X 8993   2.082   6.617   4.205
  110PMPE   H5Y 8994   2.009   6.760   4.273
  110PMPE   C36 8995   2.225   6.750   4.307
  110PMPE   H6X 8996   2.232   6.860   4.314
  110PMPE   H6Y 8997   2.315   6.714   4.252
  110PMPE   C37 8998   2.223   6.684   4.446
  110PMPE   H7X 8999   2.313   6.716   4.503
  110PMPE   H7Y 9000   2.231   6.573   4.433
  110PMPE   C38 9001   2.097   6.720   4.525
  110PMPE   H8X 9002   2.008   6.682   4.472
  110PMPE   H8Y 9003   2.092   6.831   4.535
  110PMPE   C39 9004   2.093   6.663   4.667
  110PMPE   H9X 9005   2.095   6.552   4.659
  110PMPE   H9Y 9006   1.996   6.693   4.714
  110PMPE  C310 9007   2.212   6.712   4.749
  110PMPE  H10X 9008   2.234   6.818   4.726
  110PMPE  H10Y 9009   2.300   6.650   4.718
  110PMPE  C311 9010   2.190   6.695   4.898
  110PMPE  H11X 9011   2.213   6.587   4.909
  110PMPE  H11Y 9012   2.087   6.725   4.927
  110PMPE  C312 9013   2.282   6.767   4.995
  110PMPE  H12X 9014   2.274   6.876   4.977
  110PMPE  H12Y 9015   2.384   6.730   4.969
  110PMPE  C313 9016   2.264   6.734   5.145
  110PMPE  H13X 9017   2.358   6.770   5.194
  110PMPE  H13Y 9018   2.256   6.624   5.160
  110PMPE  C314 9019   2.150   6.797   5.225
  110PMPE  H14X 9020   2.140   6.748   5.325
  110PMPE  H14Y 9021   2.052   6.795   5.175
  110PMPE  C315 9022   2.149   6.946   5.230
  110PMPE  H15X 9023   2.131   6.982   5.125
  110PMPE  H15Y 9024   2.247   6.983   5.265
  110PMPE  C316 9025   2.031   6.989   5.315
  110PMPE  H16X 9026   1.936   6.964   5.263
  110PMPE  H16Y 9027   2.038   7.099   5.329
  110PMPE  H16Z 9028   2.029   6.937   5.414
  111PMPE     N 9029   7.183   2.090   3.742
  111PMPE   HN1 9030   7.232   2.033   3.670
  111PMPE   HN2 9031   7.249   2.127   3.814
  111PMPE   HN3 9032   7.114   2.024   3.785
  111PMPE   C12 9033   7.103   2.197   3.672
  111PMPE  H12A 9034   7.169   2.266   3.617
  111PMPE  H12B 9035   7.047   2.255   3.748
  111PMPE   C11 9036   7.014   2.123   3.574
  111PMPE  H11A 9037   7.066   2.036   3.529
  111PMPE  H11B 9038   6.988   2.189   3.490
  111PMPE     P 9039   6.790   1.999   3.553
  111PMPE   O13 9040   6.815   2.029   3.409
  111PMPE   O14 9041   6.655   2.023   3.606
  111PMPE   O11 9042   6.826   1.847   3.576
  111PMPE   O12 9043   6.896   2.082   3.641
  111PMPE    C1 9044   6.908   1.799   3.680
  111PMPE    HA 9045   6.992   1.868   3.702
  111PMPE    HB 9046   6.957   1.704   3.647
  111PMPE    C2 9047   6.833   1.769   3.813
  111PMPE    HS 9048   6.765   1.683   3.796
  111PMPE   O21 9049   6.758   1.882   3.858
  111PMPE   C21 9050   6.666   1.865   3.951
  111PMPE   O22 9051   6.621   1.760   3.992
  111PMPE   C22 9052   6.625   2.004   4.002
  111PMPE   H2R 9053   6.528   1.997   4.055
  111PMPE   H2S 9054   6.614   2.072   3.915
  111PMPE    C3 9055   6.944   1.741   3.916
  111PMPE    HX 9056   7.005   1.651   3.888
  111PMPE    HY 9057   6.892   1.721   4.008
  111PMPE   O31 9058   7.019   1.862   3.946
  111PMPE   C31 9059   7.123   1.841   4.025
  111PMPE   O32 9060   7.180   1.736   4.044
  111PMPE   C32 9061   7.183   1.972   4.071
  111PMPE   H2X 9062   7.116   2.058   4.053
  111PMPE   H2Y 9063   7.273   1.975   4.006
  111PMPE   C23 9064   6.735   2.062   4.093
  111PMPE   H3R 9065   6.827   2.074   4.031
  111PMPE   H3S 9066   6.758   1.989   4.174
  111PMPE   C24 9067   6.698   2.198   4.153
  111PMPE   H4R 9068   6.635   2.255   4.082
  111PMPE   H4S 9069   6.791   2.257   4.171
  111PMPE   C25 9070   6.621   2.184   4.284
  111PMPE   H5R 9071   6.597   2.079   4.308
  111PMPE   H5S 9072   6.528   2.247   4.281
  111PMPE   C26 9073   6.701   2.234   4.400
  111PMPE   H6R 9074   6.704   2.342   4.370
  111PMPE   H6S 9075   6.806   2.200   4.403
  111PMPE   C27 9076   6.632   2.198   4.533
  111PMPE   H7R 9077   6.611   2.090   4.530
  111PMPE   H7S 9078   6.538   2.258   4.539
  111PMPE   C28 9079   6.710   2.208   4.665
  111PMPE   H8R 9080   6.741   2.300   4.688
  111PMPE   H8S 9081   6.815   2.175   4.658
  111PMPE   C29 9082   6.631   2.184   4.792
  111PMPE   H9R 9083   6.591   2.085   4.808
  111PMPE  C217 9084   6.529   2.294   4.823
  111PMPE  H17R 9085   6.440   2.264   4.872
  111PMPE  H17S 9086   6.524   2.367   4.744
  111PMPE  C210 9087   6.649   2.267   4.917
  111PMPE  H10R 9088   6.607   2.231   5.011
  111PMPE  C211 9089   6.762   2.363   4.959
  111PMPE  H11R 9090   6.730   2.427   5.043
  111PMPE  H11S 9091   6.789   2.434   4.894
  111PMPE  C212 9092   6.908   2.338   4.958
  111PMPE  H12R 9093   6.971   2.431   4.935
  111PMPE  H12S 9094   6.934   2.262   4.882
  111PMPE  C213 9095   6.916   2.310   5.103
  111PMPE  H13R 9096   6.831   2.246   5.136
  111PMPE  H13S 9097   6.900   2.407   5.157
  111PMPE  C214 9098   7.044   2.238   5.116
  111PMPE  H14R 9099   7.119   2.285   5.047
  111PMPE  H14S 9100   7.024   2.134   5.082
  111PMPE  C215 9101   7.089   2.235   5.258
  111PMPE  H15R 9102   7.195   2.198   5.253
  111PMPE  H15S 9103   7.026   2.170   5.321
  111PMPE  C216 9104   7.083   2.369   5.321
  111PMPE  H16R 9105   7.088   2.442   5.237
  111PMPE  H16S 9106   6.996   2.410   5.374
  111PMPE  H16T 9107   7.172   2.367   5.389
  111PMPE   C33 9108   7.230   1.970   4.218
  111PMPE   H3X 9109   7.296   2.056   4.237
  111PMPE   H3Y 9110   7.293   1.879   4.230
  111PMPE   C34 9111   7.118   1.992   4.322
  111PMPE   H4X 9112   7.047   1.916   4.330
  111PMPE   H4Y 9113   7.042   2.064   4.291
  111PMPE   C35 9114   7.165   2.008   4.466
  111PMPE   H5X 9115   7.239   2.090   4.459
  111PMPE   H5Y 9116   7.222   1.920   4.500
  111PMPE   C36 9117   7.051   2.048   4.564
  111PMPE   H6X 9118   6.974   2.103   4.508
  111PMPE   H6Y 9119   7.102   2.104   4.645
  111PMPE   C37 9120   6.980   1.942   4.645
  111PMPE   H7X 9121   7.067   1.891   4.692
  111PMPE   H7Y 9122   6.915   1.879   4.586
  111PMPE   C38 9123   6.851   1.954   4.729
  111PMPE   H8X 9124   6.773   1.991   4.659
  111PMPE   H8Y 9125   6.874   2.018   4.815
  111PMPE   C39 9126   6.769   1.825   4.761
  111PMPE   H9X 9127   6.820   1.765   4.832
  111PMPE   H9Y 9128   6.755   1.757   4.676
  111PMPE  C310 9129   6.654   1.833   4.852
  111PMPE  H10X 9130   6.627   1.728   4.885
  111PMPE  H10Y 9131   6.577   1.882   4.792
  111PMPE  C311 9132   6.688   1.912   4.973
  111PMPE  H11X 9133   6.728   2.014   4.959
  111PMPE  H11Y 9134   6.764   1.872   5.032
  111PMPE  C312 9135   6.590   1.892   5.077
  111PMPE  H12X 9136   6.579   1.786   5.112
  111PMPE  H12Y 9137   6.495   1.930   5.039
  111PMPE  C313 9138   6.645   1.972   5.186
  111PMPE  H13X 9139   6.653   2.080   5.162
  111PMPE  H13Y 9140   6.741   1.936   5.232
  111PMPE  C314 9141   6.552   1.957   5.289
  111PMPE  H14X 9142   6.541   1.848   5.319
  111PMPE  H14Y 9143   6.452   1.995   5.269
  111PMPE  C315 9144   6.626   2.043   5.384
  111PMPE  H15X 9145   6.716   2.008   5.434
  111PMPE  H15Y 9146   6.549   1.989   5.438
  111PMPE  C316 9147   6.634   2.200   5.378
  111PMPE  H16X 9148   6.718   2.225   5.314
  111PMPE  H16Y 9149   6.672   2.250   5.470
  111PMPE  H16Z 9150   6.537   2.253   5.367
  112PMPE     N 9151   3.771   0.646   3.619
  112PMPE   HN1 9152   3.676   0.626   3.581
  112PMPE   HN2 9153   3.802   0.561   3.671
  112PMPE   HN3 9154   3.769   0.726   3.684
  112PMPE   C12 9155   3.866   0.669   3.507
  112PMPE  H12A 9156   3.954   0.726   3.544
  112PMPE  H12B 9157   3.814   0.726   3.426
  112PMPE   C11 9158   3.910   0.533   3.456
  112PMPE  H11A 9159   3.964   0.550   3.364
  112PMPE  H11B 9160   3.831   0.464   3.423
  112PMPE     P 9161   3.956   0.347   3.637
  112PMPE   O13 9162   4.047   0.233   3.612
  112PMPE   O14 9163   3.809   0.336   3.624
  112PMPE   O11 9164   3.986   0.420   3.774
  112PMPE   O12 9165   3.996   0.469   3.545
  112PMPE    C1 9166   4.107   0.497   3.779
  112PMPE    HA 9167   4.104   0.582   3.707
  112PMPE    HB 9168   4.195   0.434   3.755
  112PMPE    C2 9169   4.138   0.560   3.918
  112PMPE    HS 9170   4.244   0.594   3.920
  112PMPE   O21 9171   4.107   0.474   4.029
  112PMPE   C21 9172   4.175   0.364   4.030
  112PMPE   O22 9173   4.278   0.341   3.970
  112PMPE   C22 9174   4.111   0.273   4.134
  112PMPE   H2R 9175   4.005   0.254   4.106
  112PMPE   H2S 9176   4.117   0.321   4.234
  112PMPE    C3 9177   4.053   0.681   3.938
  112PMPE    HX 9178   4.064   0.765   3.867
  112PMPE    HY 9179   4.087   0.718   4.039
  112PMPE   O31 9180   3.922   0.621   3.928
  112PMPE   C31 9181   3.855   0.671   4.023
  112PMPE   O32 9182   3.884   0.786   4.062
  112PMPE   C32 9183   3.725   0.572   4.034
  112PMPE   H2X 9184   3.660   0.557   3.947
  112PMPE   H2Y 9185   3.628   0.606   4.069
  112PMPE   C23 9186   4.177   0.136   4.138
  112PMPE   H3R 9187   4.280   0.166   4.166
  112PMPE   H3S 9188   4.191   0.085   4.042
  112PMPE   C24 9189   4.088   0.042   4.222
  112PMPE   H4R 9190   4.039  -0.035   4.162
  112PMPE   H4S 9191   4.017   0.105   4.284
  112PMPE   C25 9192   4.161  -0.047   4.314
  112PMPE   H5R 9193   4.179   0.042   4.369
  112PMPE   H5S 9194   4.248  -0.098   4.267
  112PMPE   C26 9195   4.100  -0.126   4.423
  112PMPE   H6R 9196   4.175  -0.191   4.477
  112PMPE   H6S 9197   4.060  -0.184   4.340
  112PMPE   C27 9198   3.979  -0.072   4.503
  112PMPE   H7R 9199   3.922  -0.159   4.541
  112PMPE   H7S 9200   3.926   0.002   4.443
  112PMPE   C28 9201   3.984  -0.006   4.636
  112PMPE   H8R 9202   3.900   0.025   4.697
  112PMPE   H8S 9203   4.020   0.096   4.633
  112PMPE   C29 9204   4.039  -0.106   4.720
  112PMPE   H9R 9205   4.123  -0.175   4.685
  112PMPE  C217 9206   3.967  -0.137   4.852
  112PMPE  H17R 9207   4.013  -0.218   4.907
  112PMPE  H17S 9208   3.882  -0.086   4.888
  112PMPE  C210 9209   4.064  -0.033   4.844
  112PMPE  H10R 9210   4.142  -0.098   4.856
  112PMPE  C211 9211   4.044   0.119   4.908
  112PMPE  H11R 9212   3.939   0.134   4.899
  112PMPE  H11S 9213   4.100   0.199   4.854
  112PMPE  C212 9214   4.085   0.179   5.052
  112PMPE  H12R 9215   4.075   0.290   5.055
  112PMPE  H12S 9216   4.194   0.184   5.065
  112PMPE  C213 9217   4.010   0.125   5.179
  112PMPE  H13R 9218   3.901   0.128   5.163
  112PMPE  H13S 9219   4.041   0.188   5.262
  112PMPE  C214 9220   4.031  -0.007   5.252
  112PMPE  H14R 9221   4.086   0.005   5.345
  112PMPE  H14S 9222   4.091  -0.094   5.234
  112PMPE  C215 9223   3.924  -0.088   5.221
  112PMPE  H15R 9224   3.957  -0.191   5.184
  112PMPE  H15S 9225   3.878  -0.079   5.123
  112PMPE  C216 9226   3.870  -0.037   5.356
  112PMPE  H16R 9227   3.940  -0.039   5.445
  112PMPE  H16S 9228   3.765  -0.017   5.347
  112PMPE  H16T 9229   3.825  -0.095   5.434
  112PMPE   C33 9230   3.742   0.446   4.091
  112PMPE   H3X 9231   3.806   0.472   4.178
  112PMPE   H3Y 9232   3.790   0.403   4.000
  112PMPE   C34 9233   3.605   0.387   4.124
  112PMPE   H4X 9234   3.553   0.361   4.028
  112PMPE   H4Y 9235   3.532   0.453   4.177
  112PMPE   C35 9236   3.645   0.263   4.201
  112PMPE   H5X 9237   3.712   0.211   4.129
  112PMPE   H5Y 9238   3.559   0.201   4.229
  112PMPE   C36 9239   3.733   0.288   4.325
  112PMPE   H6X 9240   3.835   0.320   4.295
  112PMPE   H6Y 9241   3.743   0.194   4.382
  112PMPE   C37 9242   3.672   0.392   4.417
  112PMPE   H7X 9243   3.575   0.355   4.456
  112PMPE   H7Y 9244   3.647   0.479   4.353
  112PMPE   C38 9245   3.767   0.444   4.527
  112PMPE   H8X 9246   3.704   0.512   4.588
  112PMPE   H8Y 9247   3.854   0.499   4.486
  112PMPE   C39 9248   3.810   0.362   4.642
  112PMPE   H9X 9249   3.858   0.272   4.599
  112PMPE   H9Y 9250   3.712   0.339   4.684
  112PMPE  C310 9251   3.885   0.438   4.755
  112PMPE  H10X 9252   3.988   0.462   4.720
  112PMPE  H10Y 9253   3.898   0.366   4.838
  112PMPE  C311 9254   3.821   0.567   4.812
  112PMPE  H11X 9255   3.722   0.546   4.859
  112PMPE  H11Y 9256   3.802   0.640   4.731
  112PMPE  C312 9257   3.907   0.640   4.917
  112PMPE  H12X 9258   3.862   0.740   4.938
  112PMPE  H12Y 9259   4.011   0.658   4.879
  112PMPE  C313 9260   3.921   0.567   5.050
  112PMPE  H13X 9261   3.981   0.476   5.036
  112PMPE  H13Y 9262   3.819   0.538   5.085
  112PMPE  C314 9263   3.982   0.659   5.156
  112PMPE  H14X 9264   3.897   0.718   5.197
  112PMPE  H14Y 9265   4.057   0.728   5.113
  112PMPE  C315 9266   4.060   0.590   5.266
  112PMPE  H15X 9267   4.101   0.663   5.340
  112PMPE  H15Y 9268   4.141   0.526   5.224
  112PMPE  C316 9269   3.967   0.505   5.340
  112PMPE  H16X 9270   3.935   0.426   5.267
  112PMPE  H16Y 9271   3.880   0.565   5.375
  112PMPE  H16Z 9272   4.009   0.458   5.430
  113PMPE     N 9273   3.170   7.343   3.359
  113PMPE   HN1 9274   3.208   7.321   3.454
  113PMPE   HN2 9275   3.234   7.305   3.286
  113PMPE   HN3 9276   3.168   7.447   3.348
  113PMPE   C12 9277   3.030   7.289   3.353
  113PMPE  H12A 9278   3.034   7.190   3.304
  113PMPE  H12B 9279   2.969   7.360   3.294
  113PMPE   C11 9280   2.967   7.275   3.493
  113PMPE  H11A 9281   3.000   7.179   3.540
  113PMPE  H11B 9282   2.856   7.269   3.480
  113PMPE     P 9283   2.925   7.413   3.707
  113PMPE   O13 9284   3.016   7.364   3.811
  113PMPE   O14 9285   2.786   7.367   3.697
  113PMPE   O11 9286   2.915   7.572   3.699
  113PMPE   O12 9287   3.003   7.387   3.571
  113PMPE    C1 9288   3.025   7.657   3.686
  113PMPE    HA 9289   3.008   7.721   3.595
  113PMPE    HB 9290   3.104   7.602   3.632
  113PMPE    C2 9291   3.055   7.750   3.829
  113PMPE    HS 9292   3.140   7.804   3.768
  113PMPE   O21 9293   3.075   7.745   3.981
  113PMPE   C21 9294   3.173   7.735   4.107
  113PMPE   O22 9295   3.216   7.842   4.137
  113PMPE   C22 9296   3.212   7.572   4.196
  113PMPE   H2R 9297   3.249   7.481   4.146
  113PMPE   H2S 9298   3.140   7.491   4.226
  113PMPE    C3 9299   2.973   7.841   3.880
  113PMPE    HX 9300   2.986   7.857   3.791
  113PMPE    HY 9301   3.012   7.942   3.915
  113PMPE   O31 9302   2.843   7.784   3.872
  113PMPE   C31 9303   2.796   7.820   3.982
  113PMPE   O32 9304   2.822   7.932   4.030
  113PMPE   C32 9305   2.696   7.705   4.028
  113PMPE   H2X 9306   2.653   7.684   3.928
  113PMPE   H2Y 9307   2.629   7.759   4.093
  113PMPE   C23 9308   3.306   7.584   4.289
  113PMPE   H3R 9309   3.332   7.674   4.245
  113PMPE   H3S 9310   3.392   7.515   4.281
  113PMPE   C24 9311   3.221   7.622   4.400
  113PMPE   H4R 9312   3.157   7.537   4.425
  113PMPE   H4S 9313   3.162   7.712   4.367
  113PMPE   C25 9314   3.321   7.654   4.498
  113PMPE   H5R 9315   3.390   7.719   4.445
  113PMPE   H5S 9316   3.381   7.562   4.515
  113PMPE   C26 9317   3.259   7.714   4.619
  113PMPE   H6R 9318   3.197   7.635   4.665
  113PMPE   H6S 9319   3.195   7.802   4.596
  113PMPE   C27 9320   3.374   7.750   4.708
  113PMPE   H7R 9321   3.425   7.836   4.661
  113PMPE   H7S 9322   3.443   7.663   4.709
  113PMPE   C28 9323   3.331   7.784   4.849
  113PMPE   H8R 9324   3.294   7.693   4.900
  113PMPE   H8S 9325   3.246   7.855   4.842
  113PMPE   C29 9326   3.447   7.845   4.925
  113PMPE   H9R 9327   3.508   7.922   4.873
  113PMPE  C217 9328   3.543   7.735   4.962
  113PMPE  H17R 9329   3.641   7.771   4.959
  113PMPE  H17S 9330   3.505   7.634   4.946
  113PMPE  C210 9331   3.478   7.812   5.070
  113PMPE  H10R 9332   3.537   7.892   5.119
  113PMPE  C211 9333   3.408   7.705   5.154
  113PMPE  H11R 9334   3.465   7.675   5.244
  113PMPE  H11S 9335   3.363   7.625   5.094
  113PMPE  C212 9336   3.291   7.778   5.195
  113PMPE  H12R 9337   3.240   7.808   5.099
  113PMPE  H12S 9338   3.350   7.858   5.247
  113PMPE  C213 9339   3.178   7.734   5.283
  113PMPE  H13R 9340   3.098   7.739   5.212
  113PMPE  H13S 9341   3.108   7.795   5.344
  113PMPE  C214 9342   3.221   7.628   5.367
  113PMPE  H14R 9343   3.305   7.668   5.429
  113PMPE  H14S 9344   3.250   7.546   5.299
  113PMPE  C215 9345   3.108   7.596   5.454
  113PMPE  H15R 9346   3.024   7.550   5.398
  113PMPE  H15S 9347   3.066   7.683   5.510
  113PMPE  C216 9348   3.157   7.495   5.547
  113PMPE  H16R 9349   3.265   7.493   5.565
  113PMPE  H16S 9350   3.116   7.515   5.648
  113PMPE  H16T 9351   3.114   7.398   5.510
  113PMPE   C33 9352   2.705   7.550   4.080
  113PMPE   H3X 9353   2.781   7.509   4.009
  113PMPE   H3Y 9354   2.615   7.493   4.061
  113PMPE   C34 9355   2.747   7.509   4.226
  113PMPE   H4X 9356   2.792   7.600   4.269
  113PMPE   H4Y 9357   2.825   7.430   4.238
  113PMPE   C35 9358   2.684   7.540   4.351
  113PMPE   H5X 9359   2.588   7.508   4.314
  113PMPE   H5Y 9360   2.642   7.634   4.370
  113PMPE   C36 9361   2.771   7.509   4.478
  113PMPE   H6X 9362   2.797   7.404   4.467
  113PMPE   H6Y 9363   2.703   7.523   4.562
  113PMPE   C37 9364   2.897   7.583   4.532
  113PMPE   H7X 9365   2.880   7.692   4.544
  113PMPE   H7Y 9366   2.987   7.576   4.474
  113PMPE   C38 9367   2.929   7.562   4.676
  113PMPE   H8X 9368   2.829   7.545   4.724
  113PMPE   H8Y 9369   2.984   7.651   4.716
  113PMPE   C39 9370   2.991   7.435   4.704
  113PMPE   H9X 9371   3.088   7.449   4.653
  113PMPE   H9Y 9372   2.919   7.367   4.652
  113PMPE  C310 9373   2.992   7.407   4.852
  113PMPE  H10X 9374   2.891   7.385   4.893
  113PMPE  H10Y 9375   3.031   7.497   4.905
  113PMPE  C311 9376   3.086   7.300   4.886
  113PMPE  H11X 9377   3.068   7.221   4.811
  113PMPE  H11Y 9378   3.061   7.264   4.989
  113PMPE  C312 9379   3.224   7.362   4.877
  113PMPE  H12X 9380   3.222   7.471   4.904
  113PMPE  H12Y 9381   3.259   7.353   4.773
  113PMPE  C313 9382   3.316   7.294   4.971
  113PMPE  H13X 9383   3.424   7.308   4.947
  113PMPE  H13Y 9384   3.289   7.186   4.973
  113PMPE  C314 9385   3.301   7.344   5.108
  113PMPE  H14X 9386   3.196   7.356   5.144
  113PMPE  H14Y 9387   3.347   7.444   5.127
  113PMPE  C315 9388   3.385   7.249   5.188
  113PMPE  H15X 9389   3.344   7.299   5.274
  113PMPE  H15Y 9390   3.486   7.278   5.194
  113PMPE  C316 9391   3.394   7.092   5.180
  113PMPE  H16X 9392   3.448   7.066   5.093
  113PMPE  H16Y 9393   3.303   7.032   5.160
  113PMPE  H16Z 9394   3.429   7.047   5.276
  114PMPE     N 9395   6.181   7.287   3.475
  114PMPE   HN1 9396   6.187   7.252   3.573
  114PMPE   HN2 9397   6.270   7.268   3.423
  114PMPE   HN3 9398   6.172   7.390   3.483
  114PMPE   C12 9399   6.067   7.224   3.397
  114PMPE  H12A 9400   6.107   7.134   3.349
  114PMPE  H12B 9401   6.039   7.297   3.318
  114PMPE   C11 9402   5.944   7.181   3.478
  114PMPE  H11A 9403   5.972   7.099   3.549
  114PMPE  H11B 9404   5.865   7.138   3.412
  114PMPE     P 9405   5.823   7.294   3.684
  114PMPE   O13 9406   5.685   7.343   3.679
  114PMPE   O14 9407   5.924   7.355   3.771
  114PMPE   O11 9408   5.822   7.141   3.711
  114PMPE   O12 9409   5.886   7.296   3.538
  114PMPE    C1 9410   5.720   7.093   3.798
  114PMPE    HA 9411   5.677   7.011   3.742
  114PMPE    HB 9412   5.632   7.158   3.818
  114PMPE    C2 9413   5.789   7.065   3.930
  114PMPE    HS 9414   5.722   6.995   3.990
  114PMPE   O21 9415   5.818   7.175   4.009
  114PMPE   C21 9416   5.736   7.226   4.084
  114PMPE   O22 9417   5.618   7.199   4.100
  114PMPE   C22 9418   5.824   7.326   4.157
  114PMPE   H2R 9419   5.867   7.396   4.083
  114PMPE   H2S 9420   5.908   7.274   4.208
  114PMPE    C3 9421   5.926   7.008   3.907
  114PMPE    HX 9422   5.979   6.994   3.811
  114PMPE    HY 9423   5.871   6.920   3.917
  114PMPE   O31 9424   6.002   7.015   4.025
  114PMPE   C31 9425   6.105   7.080   4.060
  114PMPE   O32 9426   6.162   7.161   3.990
  114PMPE   C32 9427   6.159   7.036   4.202
  114PMPE   H2X 9428   6.263   7.002   4.190
  114PMPE   H2Y 9429   6.107   6.956   4.247
  114PMPE   C23 9430   5.735   7.399   4.253
  114PMPE   H3R 9431   5.696   7.328   4.330
  114PMPE   H3S 9432   5.651   7.441   4.193
  114PMPE   C24 9433   5.809   7.510   4.324
  114PMPE   H4R 9434   5.745   7.579   4.380
  114PMPE   H4S 9435   5.851   7.574   4.245
  114PMPE   C25 9436   5.913   7.451   4.417
  114PMPE   H5R 9437   5.988   7.397   4.354
  114PMPE   H5S 9438   5.873   7.386   4.498
  114PMPE   C26 9439   5.991   7.556   4.486
  114PMPE   H6R 9440   5.937   7.615   4.563
  114PMPE   H6S 9441   5.998   7.622   4.397
  114PMPE   C27 9442   6.129   7.504   4.533
  114PMPE   H7R 9443   6.215   7.572   4.542
  114PMPE   H7S 9444   6.175   7.441   4.457
  114PMPE   C28 9445   6.128   7.465   4.678
  114PMPE   H8R 9446   6.060   7.379   4.683
  114PMPE   H8S 9447   6.093   7.544   4.748
  114PMPE   C29 9448   6.269   7.430   4.711
  114PMPE   H9R 9449   6.353   7.498   4.689
  114PMPE  C217 9450   6.290   7.285   4.672
  114PMPE  H17R 9451   6.383   7.270   4.626
  114PMPE  H17S 9452   6.204   7.234   4.636
  114PMPE  C210 9453   6.289   7.328   4.818
  114PMPE  H10R 9454   6.380   7.357   4.869
  114PMPE  C211 9455   6.171   7.284   4.902
  114PMPE  H11R 9456   6.194   7.187   4.951
  114PMPE  H11S 9457   6.084   7.263   4.837
  114PMPE  C212 9458   6.126   7.390   5.004
  114PMPE  H12R 9459   6.041   7.348   5.061
  114PMPE  H12S 9460   6.097   7.484   4.953
  114PMPE  C213 9461   6.224   7.422   5.112
  114PMPE  H13R 9462   6.180   7.488   5.190
  114PMPE  H13S 9463   6.311   7.481   5.071
  114PMPE  C214 9464   6.255   7.294   5.188
  114PMPE  H14R 9465   6.198   7.202   5.170
  114PMPE  H14S 9466   6.273   7.311   5.297
  114PMPE  C215 9467   6.373   7.232   5.133
  114PMPE  H15R 9468   6.422   7.333   5.132
  114PMPE  H15S 9469   6.390   7.228   5.027
  114PMPE  C216 9470   6.413   7.106   5.227
  114PMPE  H16R 9471   6.404   7.124   5.336
  114PMPE  H16S 9472   6.462   7.019   5.181
  114PMPE  H16T 9473   6.516   7.103   5.260
  114PMPE   C33 9474   6.118   7.095   4.341
  114PMPE   H3X 9475   6.127   7.202   4.330
  114PMPE   H3Y 9476   6.195   7.051   4.411
  114PMPE   C34 9477   5.976   7.058   4.398
  114PMPE   H4X 9478   5.947   6.956   4.388
  114PMPE   H4Y 9479   5.896   7.106   4.339
  114PMPE   C35 9480   5.956   7.068   4.551
  114PMPE   H5X 9481   5.995   7.167   4.581
  114PMPE   H5Y 9482   6.013   6.989   4.606
  114PMPE   C36 9483   5.806   7.052   4.587
  114PMPE   H6X 9484   5.771   6.949   4.563
  114PMPE   H6Y 9485   5.750   7.124   4.523
  114PMPE   C37 9486   5.765   7.085   4.731
  114PMPE   H7X 9487   5.654   7.085   4.733
  114PMPE   H7Y 9488   5.798   7.187   4.758
  114PMPE   C38 9489   5.818   6.983   4.832
  114PMPE   H8X 9490   5.858   6.894   4.779
  114PMPE   H8Y 9491   5.732   6.947   4.894
  114PMPE   C39 9492   5.930   7.045   4.916
  114PMPE   H9X 9493   5.901   7.147   4.950
  114PMPE   H9Y 9494   6.019   7.054   4.851
  114PMPE  C310 9495   5.971   6.966   5.039
  114PMPE  H10X 9496   6.060   7.003   5.093
  114PMPE  H10Y 9497   6.004   6.870   4.994
  114PMPE  C311 9498   5.855   6.966   5.139
  114PMPE  H11X 9499   5.861   6.891   5.218
  114PMPE  H11Y 9500   5.756   6.946   5.094
  114PMPE  C312 9501   5.855   7.090   5.223
  114PMPE  H12X 9502   5.951   7.112   5.276
  114PMPE  H12Y 9503   5.775   7.064   5.294
  114PMPE  C313 9504   5.787   7.209   5.165
  114PMPE  H13X 9505   5.706   7.170   5.098
  114PMPE  H13Y 9506   5.857   7.272   5.111
  114PMPE  C314 9507   5.724   7.287   5.276
  114PMPE  H14X 9508   5.654   7.217   5.326
  114PMPE  H14Y 9509   5.665   7.367   5.230
  114PMPE  C315 9510   5.821   7.352   5.378
  114PMPE  H15X 9511   5.872   7.428   5.316
  114PMPE  H15Y 9512   5.891   7.274   5.415
  114PMPE  C316 9513   5.768   7.421   5.504
  114PMPE  H16X 9514   5.720   7.520   5.484
  114PMPE  H16Y 9515   5.834   7.421   5.592
  114PMPE  H16Z 9516   5.689   7.360   5.547
  115PMPE     N 9517   0.978   5.981   3.449
  115PMPE   HN1 9518   1.055   6.023   3.393
  115PMPE   HN2 9519   1.020   5.954   3.541
  115PMPE   HN3 9520   0.937   5.896   3.404
  115PMPE   C12 9521   0.861   6.076   3.467
  115PMPE  H12A 9522   0.805   6.074   3.373
  115PMPE  H12B 9523   0.898   6.179   3.484
  115PMPE   C11 9524   0.772   6.033   3.584
  115PMPE  H11A 9525   0.830   6.055   3.677
  115PMPE  H11B 9526   0.751   5.923   3.578
  115PMPE     P 9527   0.611   6.239   3.649
  115PMPE   O13 9528   0.469   6.269   3.623
  115PMPE   O14 9529   0.714   6.336   3.607
  115PMPE   O11 9530   0.635   6.208   3.802
  115PMPE   O12 9531   0.647   6.099   3.582
  115PMPE    C1 9532   0.575   6.090   3.856
  115PMPE    HA 9533   0.640   6.003   3.835
  115PMPE    HB 9534   0.476   6.070   3.809
  115PMPE    C2 9535   0.557   6.099   4.009
  115PMPE    HS 9536   0.489   6.017   4.044
  115PMPE   O21 9537   0.512   6.229   4.054
  115PMPE   C21 9538   0.383   6.236   4.077
  115PMPE   O22 9539   0.303   6.146   4.063
  115PMPE   C22 9540   0.350   6.370   4.141
  115PMPE   H2R 9541   0.310   6.440   4.065
  115PMPE   H2S 9542   0.438   6.416   4.190
  115PMPE    C3 9543   0.691   6.066   4.078
  115PMPE    HX 9544   0.769   6.134   4.036
  115PMPE    HY 9545   0.718   5.961   4.053
  115PMPE   O31 9546   0.669   6.085   4.220
  115PMPE   C31 9547   0.767   6.046   4.298
  115PMPE   O32 9548   0.872   6.001   4.259
  115PMPE   C32 9549   0.727   6.059   4.444
  115PMPE   H2X 9550   0.649   5.984   4.465
  115PMPE   H2Y 9551   0.686   6.161   4.460
  115PMPE   C23 9552   0.238   6.354   4.244
  115PMPE   H3R 9553   0.143   6.325   4.196
  115PMPE   H3S 9554   0.234   6.460   4.266
  115PMPE   C24 9555   0.264   6.269   4.370
  115PMPE   H4R 9556   0.365   6.291   4.408
  115PMPE   H4S 9557   0.257   6.164   4.334
  115PMPE   C25 9558   0.164   6.279   4.488
  115PMPE   H5R 9559   0.062   6.251   4.453
  115PMPE   H5S 9560   0.149   6.376   4.533
  115PMPE   C26 9561   0.213   6.216   4.620
  115PMPE   H6R 9562   0.237   6.111   4.595
  115PMPE   H6S 9563   0.127   6.223   4.691
  115PMPE   C27 9564   0.339   6.279   4.687
  115PMPE   H7R 9565   0.331   6.387   4.706
  115PMPE   H7S 9566   0.424   6.273   4.617
  115PMPE   C28 9567   0.372   6.224   4.828
  115PMPE   H8R 9568   0.287   6.250   4.894
  115PMPE   H8S 9569   0.459   6.277   4.869
  115PMPE   C29 9570   0.402   6.074   4.833
  115PMPE   H9R 9571   0.468   6.031   4.756
  115PMPE  C217 9572   0.288   5.986   4.879
  115PMPE  H17R 9573   0.287   5.886   4.839
  115PMPE  H17S 9574   0.200   6.043   4.907
  115PMPE  C210 9575   0.410   6.005   4.969
  115PMPE  H10R 9576   0.468   5.912   4.974
  115PMPE  C211 9577   0.368   6.072   5.100
  115PMPE  H11R 9578   0.259   6.058   5.115
  115PMPE  H11S 9579   0.388   6.181   5.089
  115PMPE  C212 9580   0.437   6.024   5.228
  115PMPE  H12R 9581   0.431   5.915   5.250
  115PMPE  H12S 9582   0.387   6.074   5.315
  115PMPE  C213 9583   0.579   6.069   5.234
  115PMPE  H13R 9584   0.593   6.169   5.199
  115PMPE  H13S 9585   0.645   6.033   5.155
  115PMPE  C214 9586   0.627   6.066   5.374
  115PMPE  H14R 9587   0.633   5.975   5.433
  115PMPE  H14S 9588   0.553   6.124   5.434
  115PMPE  C215 9589   0.756   6.134   5.378
  115PMPE  H15R 9590   0.766   6.227   5.319
  115PMPE  H15S 9591   0.854   6.078   5.374
  115PMPE  C216 9592   0.740   6.175   5.513
  115PMPE  H16R 9593   0.744   6.084   5.577
  115PMPE  H16S 9594   0.826   6.245   5.498
  115PMPE  H16T 9595   0.661   6.227   5.566
  115PMPE   C33 9596   0.847   6.031   4.537
  115PMPE   H3X 9597   0.928   6.101   4.514
  115PMPE   H3Y 9598   0.892   5.932   4.517
  115PMPE   C34 9599   0.811   6.041   4.685
  115PMPE   H4X 9600   0.900   6.014   4.747
  115PMPE   H4Y 9601   0.729   5.971   4.711
  115PMPE   C35 9602   0.767   6.182   4.724
  115PMPE   H5X 9603   0.660   6.203   4.708
  115PMPE   H5Y 9604   0.825   6.252   4.661
  115PMPE   C36 9605   0.799   6.206   4.868
  115PMPE   H6X 9606   0.909   6.194   4.869
  115PMPE   H6Y 9607   0.763   6.128   4.939
  115PMPE   C37 9608   0.738   6.336   4.919
  115PMPE   H7X 9609   0.631   6.348   4.902
  115PMPE   H7Y 9610   0.787   6.431   4.882
  115PMPE   C38 9611   0.747   6.334   5.067
  115PMPE   H8X 9612   0.840   6.373   5.078
  115PMPE   H8Y 9613   0.756   6.246   5.130
  115PMPE   C39 9614   0.682   6.448   5.120
  115PMPE   H9X 9615   0.667   6.523   5.040
  115PMPE   H9Y 9616   0.744   6.487   5.203
  115PMPE  C310 9617   0.557   6.411   5.173
  115PMPE  H10X 9618   0.564   6.332   5.251
  115PMPE  H10Y 9619   0.483   6.391   5.092
  115PMPE  C311 9620   0.531   6.520   5.260
  115PMPE  H11X 9621   0.527   6.628   5.227
  115PMPE  H11Y 9622   0.596   6.506   5.344
  115PMPE  C312 9623   0.408   6.477   5.304
  115PMPE  H12X 9624   0.353   6.498   5.207
  115PMPE  H12Y 9625   0.352   6.569   5.268
  115PMPE  C313 9626   0.365   6.349   5.429
  115PMPE  H13X 9627   0.350   6.242   5.412
  115PMPE  H13Y 9628   0.251   6.327   5.453
  115PMPE  C314 9629   0.331   6.366   5.561
  115PMPE  H14X 9630   0.266   6.451   5.590
  115PMPE  H14Y 9631   0.431   6.391   5.517
  115PMPE  C315 9632   0.329   6.251   5.648
  115PMPE  H15X 9633   0.379   6.280   5.743
  115PMPE  H15Y 9634   0.386   6.170   5.598
  115PMPE  C316 9635   0.182   6.226   5.664
  115PMPE  H16X 9636   0.175   6.156   5.747
  115PMPE  H16Y 9637   0.137   6.188   5.569
  115PMPE  H16Z 9638   0.128   6.321   5.689
  116PMPE     N 9639   4.999   0.489   3.630
  116PMPE   HN1 9640   4.969   0.419   3.701
  116PMPE   HN2 9641   4.913   0.534   3.592
  116PMPE   HN3 9642   5.055   0.441   3.555
  116PMPE   C12 9643   5.096   0.591   3.685
  116PMPE  H12A 9644   5.142   0.554   3.779
  116PMPE  H12B 9645   5.038   0.684   3.704
  116PMPE   C11 9646   5.205   0.617   3.581
  116PMPE  H11A 9647   5.282   0.690   3.615
  116PMPE  H11B 9648   5.146   0.667   3.503
  116PMPE     P 9649   5.400   0.437   3.574
  116PMPE   O13 9650   5.512   0.498   3.500
  116PMPE   O14 9651   5.377   0.292   3.572
  116PMPE   O11 9652   5.398   0.487   3.723
  116PMPE   O12 9653   5.261   0.498   3.525
  116PMPE    C1 9654   5.520   0.482   3.795
  116PMPE    HA 9655   5.510   0.559   3.874
  116PMPE    HB 9656   5.609   0.511   3.734
  116PMPE    C2 9657   5.546   0.344   3.860
  116PMPE    HS 9658   5.588   0.277   3.780
  116PMPE   O21 9659   5.428   0.293   3.920
  116PMPE   C21 9660   5.428   0.163   3.927
  116PMPE   O22 9661   5.509   0.084   3.882
  116PMPE   C22 9662   5.305   0.128   3.999
  116PMPE   H2R 9663   5.231   0.098   3.921
  116PMPE   H2S 9664   5.266   0.214   4.057
  116PMPE    C3 9665   5.648   0.351   3.972
  116PMPE    HX 9666   5.732   0.387   3.919
  116PMPE    HY 9667   5.683   0.254   4.006
  116PMPE   O31 9668   5.611   0.442   4.077
  116PMPE   C31 9669   5.608   0.397   4.199
  116PMPE   O32 9670   5.632   0.284   4.237
  116PMPE   C32 9671   5.579   0.516   4.289
  116PMPE   H2X 9672   5.620   0.608   4.242
  116PMPE   H2Y 9673   5.629   0.499   4.386
  116PMPE   C23 9674   5.343   0.019   4.098
  116PMPE   H3R 9675   5.407   0.047   4.182
  116PMPE   H3S 9676   5.377  -0.075   4.048
  116PMPE   C24 9677   5.222  -0.013   4.168
  116PMPE   H4R 9678   5.225  -0.106   4.230
  116PMPE   H4S 9679   5.171  -0.037   4.069
  116PMPE   C25 9680   5.129   0.096   4.224
  116PMPE   H5R 9681   5.038   0.060   4.277
  116PMPE   H5S 9682   5.084   0.158   4.146
  116PMPE   C26 9683   5.176   0.161   4.344
  116PMPE   H6R 9684   5.091   0.233   4.352
  116PMPE   H6S 9685   5.268   0.208   4.309
  116PMPE   C27 9686   5.195   0.056   4.452
  116PMPE   H7R 9687   5.267  -0.024   4.429
  116PMPE   H7S 9688   5.105  -0.012   4.454
  116PMPE   C28 9689   5.228   0.130   4.583
  116PMPE   H8R 9690   5.220   0.063   4.671
  116PMPE   H8S 9691   5.159   0.214   4.608
  116PMPE   C29 9692   5.350   0.205   4.566
  116PMPE   H9R 9693   5.352   0.284   4.490
  116PMPE  C217 9694   5.466   0.114   4.589
  116PMPE  H17R 9695   5.544   0.134   4.519
  116PMPE  H17S 9696   5.430   0.015   4.618
  116PMPE  C210 9697   5.434   0.228   4.686
  116PMPE  H10R 9698   5.494   0.320   4.674
  116PMPE  C211 9699   5.392   0.184   4.828
  116PMPE  H11R 9700   5.414   0.076   4.840
  116PMPE  H11S 9701   5.283   0.201   4.846
  116PMPE  C212 9702   5.475   0.260   4.934
  116PMPE  H12R 9703   5.445   0.366   4.937
  116PMPE  H12S 9704   5.581   0.254   4.897
  116PMPE  C213 9705   5.469   0.199   5.076
  116PMPE  H13R 9706   5.499   0.092   5.067
  116PMPE  H13S 9707   5.365   0.200   5.115
  116PMPE  C214 9708   5.567   0.262   5.178
  116PMPE  H14R 9709   5.667   0.266   5.131
  116PMPE  H14S 9710   5.570   0.195   5.268
  116PMPE  C215 9711   5.539   0.405   5.230
  116PMPE  H15R 9712   5.534   0.474   5.143
  116PMPE  H15S 9713   5.625   0.437   5.294
  116PMPE  C216 9714   5.411   0.414   5.312
  116PMPE  H16R 9715   5.403   0.323   5.375
  116PMPE  H16S 9716   5.409   0.503   5.378
  116PMPE  H16T 9717   5.325   0.416   5.243
  116PMPE   C33 9718   5.428   0.528   4.309
  116PMPE   H3X 9719   5.384   0.426   4.322
  116PMPE   H3Y 9720   5.382   0.571   4.217
  116PMPE   C34 9721   5.391   0.610   4.434
  116PMPE   H4X 9722   5.428   0.714   4.423
  116PMPE   H4Y 9723   5.443   0.564   4.521
  116PMPE   C35 9724   5.240   0.613   4.451
  116PMPE   H5X 9725   5.198   0.512   4.471
  116PMPE   H5Y 9726   5.199   0.643   4.351
  116PMPE   C36 9727   5.182   0.717   4.548
  116PMPE   H6X 9728   5.074   0.696   4.530
  116PMPE   H6Y 9729   5.201   0.820   4.512
  116PMPE   C37 9730   5.211   0.704   4.699
  116PMPE   H7X 9731   5.155   0.782   4.756
  116PMPE   H7Y 9732   5.316   0.726   4.725
  116PMPE   C38 9733   5.172   0.565   4.751
  116PMPE   H8X 9734   5.260   0.498   4.745
  116PMPE   H8Y 9735   5.095   0.523   4.682
  116PMPE   C39 9736   5.109   0.560   4.891
  116PMPE   H9X 9737   5.009   0.601   4.889
  116PMPE   H9Y 9738   5.162   0.626   4.962
  116PMPE  C310 9739   5.099   0.417   4.947
  116PMPE  H10X 9740   5.205   0.392   4.970
  116PMPE  H10Y 9741   5.062   0.343   4.872
  116PMPE  C311 9742   5.017   0.410   5.077
  116PMPE  H11X 9743   4.911   0.435   5.060
  116PMPE  H11Y 9744   5.058   0.490   5.143
  116PMPE  C312 9745   5.030   0.276   5.151
  116PMPE  H12X 9746   5.139   0.258   5.167
  116PMPE  H12Y 9747   4.992   0.192   5.087
  116PMPE  C313 9748   4.958   0.276   5.287
  116PMPE  H13X 9749   4.852   0.297   5.268
  116PMPE  H13Y 9750   4.980   0.363   5.349
  116PMPE  C314 9751   4.984   0.148   5.371
  116PMPE  H14X 9752   4.965   0.052   5.317
  116PMPE  H14Y 9753   4.918   0.146   5.461
  116PMPE  C315 9754   5.127   0.142   5.419
  116PMPE  H15X 9755   5.194   0.133   5.330
  116PMPE  H15Y 9756   5.132   0.051   5.484
  116PMPE  C316 9757   5.177   0.257   5.501
  116PMPE  H16X 9758   5.128   0.254   5.599
  116PMPE  H16Y 9759   5.156   0.353   5.449
  116PMPE  H16Z 9760   5.286   0.249   5.521
  117PMPE     N 9761   5.021   7.681   3.453
  117PMPE   HN1 9762   4.926   7.680   3.410
  117PMPE   HN2 9763   5.081   7.608   3.410
  117PMPE   HN3 9764   5.023   7.661   3.555
  117PMPE   C12 9765   5.083   7.814   3.422
  117PMPE  H12A 9766   5.019   7.895   3.463
  117PMPE  H12B 9767   5.088   7.822   3.311
  117PMPE   C11 9768   5.227   7.827   3.473
  117PMPE  H11A 9769   5.262   7.930   3.447
  117PMPE  H11B 9770   5.291   7.757   3.418
  117PMPE     P 9771   5.300   7.675   3.675
  117PMPE   O13 9772   5.446   7.674   3.668
  117PMPE   O14 9773   5.217   7.568   3.613
  117PMPE   O11 9774   5.255   7.690   3.821
  117PMPE   O12 9775   5.238   7.809   3.613
  117PMPE    C1 9776   5.229   7.815   3.876
  117PMPE    HA 9777   5.162   7.875   3.814
  117PMPE    HB 9778   5.319   7.880   3.887
  117PMPE    C2 9779   5.167   7.778   4.008
  117PMPE    HS 9780   5.182   7.866   4.069
  117PMPE   O21 9781   5.222   7.672   4.082
  117PMPE   C21 9782   5.346   7.689   4.108
  117PMPE   O22 9783   5.417   7.786   4.090
  117PMPE   C22 9784   5.385   7.569   4.187
  117PMPE   H2R 9785   5.453   7.515   4.117
  117PMPE   H2S 9786   5.297   7.506   4.210
  117PMPE    C3 9787   5.023   7.743   4.002
  117PMPE    HX 9788   4.968   7.663   3.951
  117PMPE    HY 9789   4.988   7.816   3.932
  117PMPE   O31 9790   4.983   7.753   4.137
  117PMPE   C31 9791   5.002   7.866   4.200
  117PMPE   O32 9792   5.003   7.976   4.155
  117PMPE   C32 9793   4.927   7.842   4.311
  117PMPE   H2X 9794   4.832   7.791   4.286
  117PMPE   H2Y 9795   4.905   7.948   4.312
  117PMPE   C23 9796   5.453   7.623   4.314
  117PMPE   H3R 9797   5.386   7.692   4.370
  117PMPE   H3S 9798   5.542   7.681   4.278
  117PMPE   C24 9799   5.500   7.512   4.408
  117PMPE   H4R 9800   5.585   7.548   4.470
  117PMPE   H4S 9801   5.525   7.427   4.343
  117PMPE   C25 9802   5.406   7.447   4.506
  117PMPE   H5R 9803   5.447   7.345   4.530
  117PMPE   H5S 9804   5.308   7.434   4.456
  117PMPE   C26 9805   5.393   7.528   4.635
  117PMPE   H6R 9806   5.302   7.493   4.686
  117PMPE   H6S 9807   5.380   7.634   4.607
  117PMPE   C27 9808   5.510   7.512   4.734
  117PMPE   H7R 9809   5.606   7.544   4.688
  117PMPE   H7S 9810   5.518   7.405   4.763
  117PMPE   C28 9811   5.484   7.592   4.863
  117PMPE   H8R 9812   5.543   7.552   4.947
  117PMPE   H8S 9813   5.377   7.575   4.888
  117PMPE   C29 9814   5.509   7.742   4.842
  117PMPE   H9R 9815   5.474   7.786   4.747
  117PMPE  C217 9816   5.653   7.785   4.872
  117PMPE  H17R 9817   5.687   7.864   4.806
  117PMPE  H17S 9818   5.712   7.705   4.911
  117PMPE  C210 9819   5.538   7.834   4.959
  117PMPE  H10R 9820   5.522   7.942   4.946
  117PMPE  C211 9821   5.534   7.779   5.102
  117PMPE  H11R 9822   5.576   7.854   5.172
  117PMPE  H11S 9823   5.599   7.690   5.110
  117PMPE  C212 9824   5.391   7.737   5.140
  117PMPE  H12R 9825   5.388   7.704   5.246
  117PMPE  H12S 9826   5.366   7.647   5.081
  117PMPE  C213 9827   5.279   7.838   5.110
  117PMPE  H13R 9828   5.180   7.796   5.141
  117PMPE  H13S 9829   5.275   7.856   5.001
  117PMPE  C214 9830   5.300   7.972   5.181
  117PMPE  H14R 9831   5.223   8.044   5.146
  117PMPE  H14S 9832   5.399   8.015   5.154
  117PMPE  C215 9833   5.291   7.953   5.332
  117PMPE  H15R 9834   5.249   7.854   5.360
  117PMPE  H15S 9835   5.212   8.019   5.364
  117PMPE  C216 9836   5.418   7.977   5.413
  117PMPE  H16R 9837   5.502   7.920   5.369
  117PMPE  H16S 9838   5.448   8.084   5.420
  117PMPE  H16T 9839   5.399   7.939   5.516
  117PMPE   C33 9840   4.978   7.780   4.430
  117PMPE   H3X 9841   4.926   7.809   4.523
  117PMPE   H3Y 9842   5.082   7.816   4.435
  117PMPE   C34 9843   4.926   7.638   4.403
  117PMPE   H4X 9844   5.005   7.597   4.340
  117PMPE   H4Y 9845   4.831   7.625   4.344
  117PMPE   C35 9846   4.887   7.564   4.528
  117PMPE   H5X 9847   4.889   7.458   4.496
  117PMPE   H5Y 9848   4.782   7.585   4.561
  117PMPE   C36 9849   4.989   7.595   4.636
  117PMPE   H6X 9850   4.970   7.695   4.681
  117PMPE   H6Y 9851   5.090   7.592   4.591
  117PMPE   C37 9852   4.977   7.499   4.751
  117PMPE   H7X 9853   4.995   7.397   4.726
  117PMPE   H7Y 9854   4.872   7.507   4.779
  117PMPE   C38 9855   5.070   7.520   4.868
  117PMPE   H8X 9856   5.058   7.626   4.899
  117PMPE   H8Y 9857   5.175   7.498   4.840
  117PMPE   C39 9858   5.025   7.428   4.979
  117PMPE   H9X 9859   5.027   7.320   4.950
  117PMPE   H9Y 9860   4.922   7.466   4.985
  117PMPE  C310 9861   5.082   7.451   5.116
  117PMPE  H10X 9862   5.017   7.409   5.197
  117PMPE  H10Y 9863   5.089   7.560   5.135
  117PMPE  C311 9864   5.220   7.391   5.128
  117PMPE  H11X 9865   5.290   7.439   5.056
  117PMPE  H11Y 9866   5.224   7.281   5.113
  117PMPE  C312 9867   5.271   7.426   5.264
  117PMPE  H12X 9868   5.205   7.379   5.339
  117PMPE  H12Y 9869   5.263   7.533   5.291
  117PMPE  C313 9870   5.417   7.390   5.263
  117PMPE  H13X 9871   5.480   7.456   5.200
  117PMPE  H13Y 9872   5.433   7.289   5.218
  117PMPE  C314 9873   5.476   7.410   5.399
  117PMPE  H14X 9874   5.570   7.372   5.406
  117PMPE  H14Y 9875   5.464   7.330   5.460
  117PMPE  C315 9876   5.428   7.511   5.498
  117PMPE  H15X 9877   5.317   7.499   5.509
  117PMPE  H15Y 9878   5.457   7.604   5.450
  117PMPE  C316 9879   5.490   7.491   5.636
  117PMPE  H16X 9880   5.474   7.388   5.670
  117PMPE  H16Y 9881   5.441   7.558   5.707
  117PMPE  H16Z 9882   5.597   7.503   5.650
  118PMPE     N 9883   6.628   6.686   3.296
  118PMPE   HN1 9884   6.592   6.600   3.251
  118PMPE   HN2 9885   6.651   6.751   3.218
  118PMPE   HN3 9886   6.714   6.663   3.351
  118PMPE   C12 9887   6.524   6.755   3.381
  118PMPE  H12A 9888   6.433   6.768   3.323
  118PMPE  H12B 9889   6.563   6.856   3.403
  118PMPE   C11 9890   6.488   6.681   3.510
  118PMPE  H11A 9891   6.453   6.578   3.491
  118PMPE  H11B 9892   6.401   6.735   3.555
  118PMPE     P 9893   6.614   6.779   3.718
  118PMPE   O13 9894   6.576   6.914   3.669
  118PMPE   O14 9895   6.744   6.756   3.783
  118PMPE   O11 9896   6.499   6.725   3.810
  118PMPE   O12 9897   6.603   6.679   3.593
  118PMPE    C1 9898   6.505   6.588   3.849
  118PMPE    HA 9899   6.607   6.560   3.889
  118PMPE    HB 9900   6.477   6.522   3.765
  118PMPE    C2 9901   6.416   6.565   3.969
  118PMPE    HS 9902   6.308   6.576   3.942
  118PMPE   O21 9903   6.462   6.673   4.056
  118PMPE   C21 9904   6.405   6.674   4.171
  118PMPE   O22 9905   6.327   6.588   4.205
  118PMPE   C22 9906   6.457   6.789   4.260
  118PMPE   H2R 9907   6.404   6.884   4.245
  118PMPE   H2S 9908   6.564   6.802   4.235
  118PMPE    C3 9909   6.437   6.419   4.019
  118PMPE    HX 9910   6.447   6.349   3.934
  118PMPE    HY 9911   6.354   6.380   4.083
  118PMPE   O31 9912   6.564   6.421   4.080
  118PMPE   C31 9913   6.571   6.409   4.207
  118PMPE   O32 9914   6.486   6.367   4.282
  118PMPE   C32 9915   6.718   6.414   4.233
  118PMPE   H2X 9916   6.776   6.381   4.146
  118PMPE   H2Y 9917   6.741   6.323   4.276
  118PMPE   C23 9918   6.447   6.763   4.409
  118PMPE   H3R 9919   6.436   6.654   4.430
  118PMPE   H3S 9920   6.358   6.814   4.451
  118PMPE   C24 9921   6.548   6.831   4.494
  118PMPE   H4R 9922   6.554   6.939   4.468
  118PMPE   H4S 9923   6.648   6.790   4.479
  118PMPE   C25 9924   6.500   6.826   4.636
  118PMPE   H5R 9925   6.470   6.729   4.674
  118PMPE   H5S 9926   6.412   6.892   4.651
  118PMPE   C26 9927   6.608   6.872   4.720
  118PMPE   H6R 9928   6.661   6.956   4.669
  118PMPE   H6S 9929   6.687   6.798   4.745
  118PMPE   C27 9930   6.543   6.910   4.844
  118PMPE   H7R 9931   6.495   6.832   4.909
  118PMPE   H7S 9932   6.462   6.988   4.839
  118PMPE   C28 9933   6.670   6.938   4.914
  118PMPE   H8R 9934   6.710   6.886   5.000
  118PMPE   H8S 9935   6.592   6.978   4.973
  118PMPE   C29 9936   6.781   7.032   4.867
  118PMPE   H9R 9937   6.789   7.134   4.816
  118PMPE  C217 9938   6.908   6.969   4.849
  118PMPE  H17R 9939   6.933   7.012   4.753
  118PMPE  H17S 9940   6.906   6.867   4.876
  118PMPE  C210 9941   6.880   7.057   4.976
  118PMPE  H10R 9942   6.878   7.164   4.978
  118PMPE  C211 9943   6.935   6.993   5.104
  118PMPE  H11R 9944   7.046   6.995   5.102
  118PMPE  H11S 9945   6.889   6.894   5.110
  118PMPE  C212 9946   6.926   7.059   5.242
  118PMPE  H12R 9947   6.885   7.154   5.248
  118PMPE  H12S 9948   6.999   7.124   5.297
  118PMPE  C213 9949   6.838   6.985   5.323
  118PMPE  H13R 9950   6.745   6.937   5.285
  118PMPE  H13S 9951   6.814   7.068   5.381
  118PMPE  C214 9952   6.936   6.930   5.406
  118PMPE  H14R 9953   7.031   6.989   5.417
  118PMPE  H14S 9954   6.952   6.850   5.334
  118PMPE  C215 9955   6.886   6.915   5.541
  118PMPE  H15R 9956   6.795   6.849   5.549
  118PMPE  H15S 9957   6.881   7.003   5.601
  118PMPE  C216 9958   6.993   6.863   5.613
  118PMPE  H16R 9959   7.068   6.832   5.539
  118PMPE  H16S 9960   7.088   6.887   5.640
  118PMPE  H16T 9961   6.961   6.807   5.697
  118PMPE   C33 9962   6.775   6.519   4.329
  118PMPE   H3X 9963   6.764   6.609   4.266
  118PMPE   H3Y 9964   6.880   6.490   4.350
  118PMPE   C34 9965   6.709   6.572   4.456
  118PMPE   H4X 9966   6.603   6.592   4.450
  118PMPE   H4Y 9967   6.778   6.639   4.515
  118PMPE   C35 9968   6.688   6.489   4.568
  118PMPE   H5X 9969   6.791   6.449   4.555
  118PMPE   H5Y 9970   6.596   6.427   4.540
  118PMPE   C36 9971   6.658   6.544   4.706
  118PMPE   H6X 9972   6.590   6.462   4.710
  118PMPE   H6Y 9973   6.567   6.592   4.731
  118PMPE   C37 9974   6.762   6.542   4.823
  118PMPE   H7X 9975   6.838   6.609   4.783
  118PMPE   H7Y 9976   6.815   6.448   4.848
  118PMPE   C38 9977   6.711   6.598   4.958
  118PMPE   H8X 9978   6.650   6.687   4.936
  118PMPE   H8Y 9979   6.796   6.613   5.028
  118PMPE   C39 9980   6.620   6.521   5.048
  118PMPE   H9X 9981   6.661   6.421   5.073
  118PMPE   H9Y 9982   6.532   6.508   4.984
  118PMPE  C310 9983   6.574   6.603   5.171
  118PMPE  H10X 9984   6.503   6.561   5.245
  118PMPE  H10Y 9985   6.501   6.679   5.142
  118PMPE  C311 9986   6.670   6.589   5.282
  118PMPE  H11X 9987   6.737   6.672   5.259
  118PMPE  H11Y 9988   6.719   6.489   5.269
  118PMPE  C312 9989   6.597   6.594   5.418
  118PMPE  H12X 9990   6.680   6.608   5.488
  118PMPE  H12Y 9991   6.548   6.496   5.440
  118PMPE  C313 9992   6.486   6.702   5.427
  118PMPE  H13X 9993   6.389   6.669   5.381
  118PMPE  H13Y 9994   6.518   6.791   5.367
  118PMPE  C314 9995   6.460   6.746   5.570
  118PMPE  H14X 9996   6.370   6.811   5.578
  118PMPE  H14Y 9997   6.548   6.808   5.590
  118PMPE  C315 9998   6.460   6.637   5.679
  118PMPE  H15X 9999   6.463   6.695   5.775
  118PMPE  H15Y10000   6.552   6.576   5.675
  118PMPE  C31610001   6.340   6.544   5.682
  118PMPE  H16X10002   6.318   6.506   5.784
  118PMPE  H16Y10003   6.342   6.461   5.609
  118PMPE  H16Z10004   6.256   6.598   5.645
  119PMPE     N10005   2.647   0.666   3.558
  119PMPE   HN110006   2.691   0.711   3.474
  119PMPE   HN210007   2.706   0.680   3.642
  119PMPE   HN310008   2.627   0.565   3.539
  119PMPE   C1210009   2.514   0.730   3.585
  119PMPE  H12A10010   2.523   0.836   3.557
  119PMPE  H12B10011   2.490   0.716   3.692
  119PMPE   C1110012   2.400   0.670   3.505
  119PMPE  H11A10013   2.407   0.696   3.397
  119PMPE  H11B10014   2.306   0.717   3.544
  119PMPE     P10015   2.315   0.448   3.620
  119PMPE   O1310016   2.284   0.317   3.560
  119PMPE   O1410017   2.204   0.534   3.668
  119PMPE   O1110018   2.418   0.432   3.738
  119PMPE   O1210019   2.403   0.529   3.517
  119PMPE    C110020   2.527   0.339   3.728
  119PMPE    HA10021   2.607   0.382   3.666
  119PMPE    HB10022   2.493   0.241   3.685
  119PMPE    C210023   2.588   0.303   3.866
  119PMPE    HS10024   2.644   0.207   3.852
  119PMPE   O2110025   2.485   0.298   3.964
  119PMPE   C2110026   2.432   0.182   3.971
  119PMPE   O2210027   2.475   0.080   3.918
  119PMPE   C2210028   2.325   0.198   4.079
  119PMPE   H2R10029   2.230   0.154   4.040
  119PMPE   H2S10030   2.311   0.301   4.115
  119PMPE    C310031   2.689   0.404   3.922
  119PMPE    HX10032   2.781   0.400   3.862
  119PMPE    HY10033   2.713   0.369   4.026
  119PMPE   O3110034   2.632   0.537   3.921
  119PMPE   C3110035   2.690   0.622   4.003
  119PMPE   O3210036   2.796   0.602   4.060
  119PMPE   C3210037   2.609   0.751   4.008
  119PMPE   H2X10038   2.549   0.760   3.914
  119PMPE   H2Y10039   2.680   0.836   4.011
  119PMPE   C2310040   2.370   0.134   4.207
  119PMPE   H3R10041   2.479   0.122   4.230
  119PMPE   H3S10042   2.336   0.046   4.159
  119PMPE   C2410043   2.283   0.143   4.330
  119PMPE   H4R10044   2.178   0.106   4.314
  119PMPE   H4S10045   2.296   0.237   4.384
  119PMPE   C2510046   2.337   0.059   4.435
  119PMPE   H5R10047   2.447   0.052   4.444
  119PMPE   H5S10048   2.283  -0.040   4.416
  119PMPE   C2610049   2.275   0.073   4.568
  119PMPE   H6R10050   2.307  -0.024   4.613
  119PMPE   H6S10051   2.169   0.081   4.539
  119PMPE   C2710052   2.311   0.161   4.684
  119PMPE   H7R10053   2.311   0.251   4.623
  119PMPE   H7S10054   2.410   0.115   4.714
  119PMPE   C2810055   2.217   0.187   4.811
  119PMPE   H8R10056   2.273   0.232   4.892
  119PMPE   H8S10057   2.221   0.110   4.883
  119PMPE   C2910058   2.056   0.191   4.801
  119PMPE   H9R10059   1.986   0.113   4.764
  119PMPE  C21710060   2.020   0.327   4.762
  119PMPE  H17R10061   1.960   0.312   4.673
  119PMPE  H17S10062   2.114   0.380   4.768
  119PMPE  C21010063   1.970   0.266   4.893
  119PMPE  H10R10064   1.865   0.230   4.893
  119PMPE  C21110065   2.046   0.263   5.020
  119PMPE  H11R10066   2.144   0.314   5.008
  119PMPE  H11S10067   2.065   0.161   5.059
  119PMPE  C21210068   1.966   0.341   5.118
  119PMPE  H12R10069   2.046   0.363   5.186
  119PMPE  H12S10070   1.887   0.277   5.162
  119PMPE  C21310071   1.924   0.479   5.072
  119PMPE  H13R10072   1.852   0.525   5.143
  119PMPE  H13S10073   1.871   0.466   4.975
  119PMPE  C21410074   2.042   0.573   5.037
  119PMPE  H14R10075   1.999   0.668   4.998
  119PMPE  H14S10076   2.103   0.527   4.959
  119PMPE  C21510077   2.147   0.609   5.142
  119PMPE  H15R10078   2.225   0.676   5.104
  119PMPE  H15S10079   2.182   0.526   5.209
  119PMPE  C21610080   2.089   0.699   5.232
  119PMPE  H16R10081   2.099   0.809   5.234
  119PMPE  H16S10082   1.986   0.687   5.209
  119PMPE  H16T10083   2.107   0.654   5.334
  119PMPE   C3310084   2.514   0.759   4.131
  119PMPE   H3X10085   2.425   0.695   4.111
  119PMPE   H3Y10086   2.479   0.864   4.136
  119PMPE   C3410087   2.582   0.719   4.264
  119PMPE   H4X10088   2.672   0.783   4.275
  119PMPE   H4Y10089   2.617   0.614   4.259
  119PMPE   C3510090   2.496   0.736   4.392
  119PMPE   H5X10091   2.461   0.841   4.399
  119PMPE   H5Y10092   2.560   0.720   4.482
  119PMPE   C3610093   2.378   0.639   4.403
  119PMPE   H6X10094   2.320   0.645   4.308
  119PMPE   H6Y10095   2.310   0.673   4.485
  119PMPE   C3710096   2.418   0.492   4.431
  119PMPE   H7X10097   2.481   0.457   4.346
  119PMPE   H7Y10098   2.326   0.432   4.428
  119PMPE   C3810099   2.492   0.460   4.565
  119PMPE   H8X10100   2.584   0.520   4.575
  119PMPE   H8Y10101   2.524   0.354   4.562
  119PMPE   C3910102   2.409   0.481   4.693
  119PMPE   H9X10103   2.304   0.445   4.678
  119PMPE   H9Y10104   2.405   0.590   4.712
  119PMPE  C31010105   2.469   0.411   4.817
  119PMPE  H10X10106   2.577   0.435   4.823
  119PMPE  H10Y10107   2.462   0.301   4.809
  119PMPE  C31110108   2.406   0.445   4.952
  119PMPE  H11X10109   2.295   0.434   4.950
  119PMPE  H11Y10110   2.426   0.551   4.977
  119PMPE  C31210111   2.463   0.348   5.057
  119PMPE  H12X10112   2.573   0.363   5.065
  119PMPE  H12Y10113   2.442   0.243   5.025
  119PMPE  C31310114   2.397   0.359   5.192
  119PMPE  H13X10115   2.293   0.320   5.180
  119PMPE  H13Y10116   2.387   0.464   5.215
  119PMPE  C31410117   2.472   0.289   5.306
  119PMPE  H14X10118   2.578   0.319   5.320
  119PMPE  H14Y10119   2.450   0.181   5.302
  119PMPE  C31510120   2.418   0.324   5.437
  119PMPE  H15X10121   2.413   0.242   5.513
  119PMPE  H15Y10122   2.320   0.335   5.401
  119PMPE  C31610123   2.446   0.456   5.495
  119PMPE  H16X10124   2.546   0.491   5.517
  119PMPE  H16Y10125   2.408   0.417   5.592
  119PMPE  H16Z10126   2.383   0.543   5.465
  120PMPE     N10127   7.966   3.264   3.374
  120PMPE   HN110128   8.013   3.296   3.287
  120PMPE   HN210129   7.992   3.319   3.458
  120PMPE   HN310130   7.989   3.164   3.391
  120PMPE   C1210131   7.818   3.281   3.354
  120PMPE  H12A10132   7.797   3.245   3.251
  120PMPE  H12B10133   7.796   3.390   3.362
  120PMPE   C1110134   7.740   3.204   3.462
  120PMPE  H11A10135   7.766   3.095   3.459
  120PMPE  H11B10136   7.632   3.213   3.439
  120PMPE     P10137   7.668   3.245   3.712
  120PMPE   O1310138   7.569   3.139   3.682
  120PMPE   O1410139   7.616   3.380   3.742
  120PMPE   O1110140   7.768   3.197   3.824
  120PMPE   O1210141   7.770   3.259   3.589
  120PMPE    C110142   7.908   3.189   3.794
  120PMPE    HA10143   7.944   3.272   3.729
  120PMPE    HB10144   7.929   3.092   3.744
  120PMPE    C210145   7.991   3.201   3.922
  120PMPE    HS10146   8.093   3.162   3.904
  120PMPE   O2110147   7.932   3.131   4.026
  120PMPE   C2110148   7.959   3.006   4.027
  120PMPE   O2210149   8.019   2.945   3.941
  120PMPE   C2210150   7.903   2.948   4.151
  120PMPE   H2R10151   7.962   2.920   4.238
  120PMPE   H2S10152   7.869   2.846   4.118
  120PMPE    C310153   8.003   3.345   3.974
  120PMPE    HX10154   7.914   3.402   3.942
  120PMPE    HY10155   8.095   3.388   3.929
  120PMPE   O3110156   8.004   3.351   4.118
  120PMPE   C3110157   8.120   3.322   4.169
  120PMPE   O3210158   8.225   3.308   4.109
  120PMPE   C3210159   8.104   3.326   4.319
  120PMPE   H2X10160   8.012   3.370   4.355
  120PMPE   H2Y10161   8.173   3.411   4.339
  120PMPE   C2310162   7.799   3.053   4.193
  120PMPE   H3R10163   7.768   2.958   4.233
  120PMPE   H3S10164   7.734   3.102   4.117
  120PMPE   C2410165   7.795   3.137   4.317
  120PMPE   H4R10166   7.853   3.225   4.282
  120PMPE   H4S10167   7.847   3.074   4.392
  120PMPE   C2510168   7.659   3.187   4.377
  120PMPE   H5R10169   7.581   3.114   4.407
  120PMPE   H5S10170   7.605   3.256   4.308
  120PMPE   C2610171   7.691   3.242   4.513
  120PMPE   H6R10172   7.766   3.173   4.559
  120PMPE   H6S10173   7.602   3.246   4.579
  120PMPE   C2710174   7.748   3.380   4.498
  120PMPE   H7R10175   7.677   3.442   4.439
  120PMPE   H7S10176   7.842   3.376   4.440
  120PMPE   C2810177   7.774   3.438   4.636
  120PMPE   H8R10178   7.862   3.386   4.679
  120PMPE   H8S10179   7.687   3.416   4.702
  120PMPE   C2910180   7.791   3.588   4.623
  120PMPE   H9R10181   7.709   3.644   4.575
  120PMPE  C21710182   7.930   3.629   4.575
  120PMPE  H17R10183   7.931   3.720   4.516
  120PMPE  H17S10184   8.000   3.547   4.568
  120PMPE  C21010185   7.884   3.663   4.715
  120PMPE  H10R10186   7.856   3.769   4.728
  120PMPE  C21110187   7.934   3.591   4.839
  120PMPE  H11R10188   8.028   3.636   4.877
  120PMPE  H11S10189   7.954   3.482   4.827
  120PMPE  C21210190   7.821   3.611   4.939
  120PMPE  H12R10191   7.731   3.553   4.907
  120PMPE  H12S10192   7.794   3.718   4.948
  120PMPE  C21310193   7.861   3.563   5.075
  120PMPE  H13R10194   7.944   3.625   5.117
  120PMPE  H13S10195   7.890   3.455   5.075
  120PMPE  C21410196   7.749   3.567   5.170
  120PMPE  H14R10197   7.660   3.504   5.148
  120PMPE  H14S10198   7.710   3.672   5.176
  120PMPE  C21510199   7.818   3.506   5.292
  120PMPE  H15R10200   7.822   3.398   5.304
  120PMPE  H15S10201   7.732   3.508   5.350
  120PMPE  C21610202   7.936   3.578   5.360
  120PMPE  H16R10203   8.031   3.530   5.332
  120PMPE  H16S10204   7.940   3.688   5.353
  120PMPE  H16T10205   7.924   3.567   5.468
  120PMPE   C3310206   8.128   3.187   4.387
  120PMPE   H3X10207   8.226   3.143   4.358
  120PMPE   H3Y10208   8.055   3.115   4.347
  120PMPE   C3410209   8.120   3.191   4.542
  120PMPE   H4X10210   8.026   3.238   4.573
  120PMPE   H4Y10211   8.196   3.257   4.587
  120PMPE   C3510212   8.130   3.052   4.606
  120PMPE   H5X10213   8.213   2.990   4.565
  120PMPE   H5Y10214   8.038   3.002   4.575
  120PMPE   C3610215   8.142   3.055   4.760
  120PMPE   H6X10216   8.247   3.076   4.785
  120PMPE   H6Y10217   8.132   2.954   4.799
  120PMPE   C3710218   8.053   3.155   4.839
  120PMPE   H7X10219   8.069   3.257   4.802
  120PMPE   H7Y10220   8.084   3.153   4.946
  120PMPE   C3810221   7.899   3.142   4.831
  120PMPE   H8X10222   7.867   3.114   4.728
  120PMPE   H8Y10223   7.848   3.231   4.871
  120PMPE   C3910224   7.846   3.039   4.923
  120PMPE   H9X10225   7.926   2.985   4.872
  120PMPE   H9Y10226   7.756   2.979   4.893
  120PMPE  C31010227   7.880   3.047   5.075
  120PMPE  H10X10228   7.984   3.075   5.092
  120PMPE  H10Y10229   7.888   2.962   5.147
  120PMPE  C31110230   7.772   3.128   5.131
  120PMPE  H11X10231   7.674   3.077   5.111
  120PMPE  H11Y10232   7.786   3.221   5.073
  120PMPE  C31210233   7.791   3.144   5.277
  120PMPE  H12X10234   7.749   3.044   5.303
  120PMPE  H12Y10235   7.723   3.218   5.319
  120PMPE  C31310236   7.938   3.173   5.323
  120PMPE  H13X10237   7.974   3.267   5.278
  120PMPE  H13Y10238   8.011   3.095   5.291
  120PMPE  C31410239   7.953   3.193   5.474
  120PMPE  H14X10240   7.934   3.133   5.567
  120PMPE  H14Y10241   7.854   3.231   5.500
  120PMPE  C31510242   8.096   3.205   5.520
  120PMPE  H15X10243   8.092   3.301   5.467
  120PMPE  H15Y10244   8.175   3.159   5.461
  120PMPE  C31610245   8.126   3.189   5.676
  120PMPE  H16X10246   8.133   3.090   5.720
  120PMPE  H16Y10247   8.057   3.218   5.756
  120PMPE  H16Z10248   8.190   3.273   5.708
  121PMPE     N10249   7.594   4.096   3.405
  121PMPE   HN110250   7.525   4.147   3.466
  121PMPE   HN210251   7.676   4.158   3.390
  121PMPE   HN310252   7.552   4.067   3.314
  121PMPE   C1210253   7.656   3.977   3.472
  121PMPE  H12A10254   7.724   3.929   3.397
  121PMPE  H12B10255   7.577   3.906   3.503
  121PMPE   C1110256   7.738   4.022   3.591
  121PMPE  H11A10257   7.767   3.930   3.648
  121PMPE  H11B10258   7.675   4.086   3.656
  121PMPE     P10259   7.963   4.125   3.656
  121PMPE   O1310260   8.081   4.187   3.593
  121PMPE   O1410261   7.978   4.006   3.742
  121PMPE   O1110262   7.882   4.235   3.735
  121PMPE   O1210263   7.852   4.095   3.543
  121PMPE    C110264   7.881   4.370   3.689
  121PMPE    HA10265   7.852   4.374   3.582
  121PMPE    HB10266   7.981   4.417   3.700
  121PMPE    C210267   7.774   4.456   3.761
  121PMPE    HS10268   7.753   4.543   3.694
  121PMPE   O2110269   7.828   4.499   3.887
  121PMPE   C2110270   7.768   4.605   3.936
  121PMPE   O2210271   7.672   4.663   3.888
  121PMPE   C2210272   7.830   4.642   4.066
  121PMPE   H2R10273   7.921   4.701   4.038
  121PMPE   H2S10274   7.869   4.555   4.122
  121PMPE    C310275   7.639   4.377   3.777
  121PMPE    HX10276   7.619   4.330   3.679
  121PMPE    HY10277   7.555   4.447   3.797
  121PMPE   O3110278   7.643   4.269   3.870
  121PMPE   C3110279   7.592   4.284   3.990
  121PMPE   O3210280   7.528   4.379   4.032
  121PMPE   C3210281   7.626   4.157   4.066
  121PMPE   H2X10282   7.635   4.075   3.992
  121PMPE   H2Y10283   7.543   4.134   4.136
  121PMPE   C2310284   7.723   4.716   4.149
  121PMPE   H3R10285   7.617   4.705   4.126
  121PMPE   H3S10286   7.732   4.824   4.116
  121PMPE   C2410287   7.749   4.691   4.300
  121PMPE   H4R10288   7.710   4.775   4.353
  121PMPE   H4S10289   7.854   4.679   4.333
  121PMPE   C2510290   7.661   4.610   4.389
  121PMPE   H5R10291   7.724   4.519   4.395
  121PMPE   H5S10292   7.566   4.600   4.333
  121PMPE   C2610293   7.637   4.668   4.533
  121PMPE   H6R10294   7.554   4.609   4.575
  121PMPE   H6S10295   7.604   4.776   4.534
  121PMPE   C2710296   7.752   4.636   4.630
  121PMPE   H7R10297   7.815   4.717   4.638
  121PMPE   H7S10298   7.827   4.567   4.589
  121PMPE   C2810299   7.733   4.650   4.781
  121PMPE   H8R10300   7.835   4.656   4.827
  121PMPE   H8S10301   7.690   4.554   4.809
  121PMPE   C2910302   7.642   4.773   4.812
  121PMPE   H9R10303   7.552   4.786   4.752
  121PMPE  C21710304   7.703   4.905   4.854
  121PMPE  H17R10305   7.652   4.994   4.820
  121PMPE  H17S10306   7.806   4.901   4.880
  121PMPE  C21010307   7.627   4.820   4.952
  121PMPE  H10R10308   7.545   4.879   4.991
  121PMPE  C21110309   7.715   4.754   5.049
  121PMPE  H11R10310   7.721   4.817   5.137
  121PMPE  H11S10311   7.809   4.742   4.994
  121PMPE  C21210312   7.668   4.629   5.120
  121PMPE  H12R10313   7.662   4.558   5.036
  121PMPE  H12S10314   7.580   4.665   5.178
  121PMPE  C21310315   7.757   4.556   5.216
  121PMPE  H13R10316   7.844   4.595   5.158
  121PMPE  H13S10317   7.783   4.451   5.209
  121PMPE  C21410318   7.740   4.585   5.370
  121PMPE  H14R10319   7.751   4.693   5.374
  121PMPE  H14S10320   7.831   4.560   5.432
  121PMPE  C21510321   7.663   4.488   5.456
  121PMPE  H15R10322   7.720   4.394   5.437
  121PMPE  H15S10323   7.572   4.499   5.398
  121PMPE  C21610324   7.640   4.498   5.609
  121PMPE  H16R10325   7.605   4.597   5.638
  121PMPE  H16S10326   7.554   4.444   5.647
  121PMPE  H16T10327   7.731   4.486   5.673
  121PMPE   C3310328   7.760   4.174   4.141
  121PMPE   H3X10329   7.745   4.244   4.226
  121PMPE   H3Y10330   7.837   4.218   4.074
  121PMPE   C3410331   7.818   4.043   4.195
  121PMPE   H4X10332   7.880   3.997   4.114
  121PMPE   H4Y10333   7.738   3.969   4.221
  121PMPE   C3510334   7.903   4.070   4.320
  121PMPE   H5X10335   7.950   4.170   4.310
  121PMPE   H5Y10336   7.983   3.993   4.327
  121PMPE   C3610337   7.818   4.067   4.448
  121PMPE   H6X10338   7.827   3.965   4.492
  121PMPE   H6Y10339   7.712   4.084   4.420
  121PMPE   C3710340   7.855   4.175   4.552
  121PMPE   H7X10341   7.795   4.160   4.645
  121PMPE   H7Y10342   7.834   4.277   4.512
  121PMPE   C3810343   8.001   4.172   4.591
  121PMPE   H8X10344   8.063   4.190   4.501
  121PMPE   H8Y10345   8.024   4.070   4.630
  121PMPE   C3910346   8.038   4.276   4.697
  121PMPE   H9X10347   8.043   4.379   4.655
  121PMPE   H9Y10348   8.138   4.241   4.725
  121PMPE  C31010349   7.956   4.282   4.825
  121PMPE  H10X10350   7.852   4.314   4.800
  121PMPE  H10Y10351   7.997   4.361   4.891
  121PMPE  C31110352   7.950   4.147   4.900
  121PMPE  H11X10353   7.908   4.070   4.834
  121PMPE  H11Y10354   7.875   4.160   4.982
  121PMPE  C31210355   8.083   4.085   4.949
  121PMPE  H12X10356   8.155   4.065   4.867
  121PMPE  H12Y10357   8.059   3.996   5.011
  121PMPE  C31310358   8.159   4.168   5.041
  121PMPE  H13X10359   8.216   4.240   4.981
  121PMPE  H13Y10360   8.246   4.124   5.096
  121PMPE  C31410361   8.050   4.220   5.129
  121PMPE  H14X10362   7.998   4.151   5.198
  121PMPE  H14Y10363   7.973   4.293   5.089
  121PMPE  C31510364   8.124   4.300   5.209
  121PMPE  H15X10365   8.228   4.259   5.233
  121PMPE  H15Y10366   8.072   4.298   5.303
  121PMPE  C31610367   8.116   4.423   5.119
  121PMPE  H16X10368   8.110   4.532   5.103
  121PMPE  H16Y10369   8.212   4.384   5.094
  121PMPE  H16Z10370   8.159   4.511   5.169
  122PMPE     N10371   0.858   1.415   3.842
  122PMPE   HN110372   0.961   1.412   3.826
  122PMPE   HN210373   0.836   1.510   3.878
  122PMPE   HN310374   0.827   1.340   3.908
  122PMPE   C1210375   0.796   1.392   3.708
  122PMPE  H12A10376   0.686   1.402   3.719
  122PMPE  H12B10377   0.821   1.288   3.677
  122PMPE   C1110378   0.847   1.498   3.610
  122PMPE  H11A10379   0.803   1.596   3.637
  122PMPE  H11B10380   0.813   1.478   3.506
  122PMPE     P10381   1.086   1.450   3.509
  122PMPE   O1310382   1.136   1.558   3.422
  122PMPE   O1410383   1.026   1.335   3.440
  122PMPE   O1110384   1.195   1.396   3.607
  122PMPE   O1210385   0.987   1.510   3.617
  122PMPE    C110386   1.303   1.476   3.653
  122PMPE    HA10387   1.324   1.565   3.589
  122PMPE    HB10388   1.396   1.415   3.646
  122PMPE    C210389   1.286   1.514   3.802
  122PMPE    HS10390   1.384   1.531   3.845
  122PMPE   O2110391   1.222   1.411   3.879
  122PMPE   C2110392   1.282   1.293   3.878
  122PMPE   O2210393   1.392   1.264   3.836
  122PMPE   C2210394   1.196   1.206   3.966
  122PMPE   H2R10395   1.193   1.103   3.923
  122PMPE   H2S10396   1.093   1.244   3.977
  122PMPE    C310397   1.206   1.646   3.826
  122PMPE    HX10398   1.105   1.631   3.781
  122PMPE    HY10399   1.253   1.729   3.770
  122PMPE   O3110400   1.206   1.677   3.968
  122PMPE   C3110401   1.093   1.658   4.036
  122PMPE   O3210402   0.985   1.630   3.985
  122PMPE   C3210403   1.118   1.665   4.186
  122PMPE   H2X10404   1.147   1.768   4.217
  122PMPE   H2Y10405   1.204   1.600   4.210
  122PMPE   C2310406   1.260   1.197   4.104
  122PMPE   H3R10407   1.371   1.188   4.097
  122PMPE   H3S10408   1.210   1.105   4.139
  122PMPE   C2410409   1.216   1.296   4.210
  122PMPE   H4R10410   1.108   1.279   4.231
  122PMPE   H4S10411   1.233   1.399   4.174
  122PMPE   C2510412   1.294   1.274   4.340
  122PMPE   H5R10413   1.304   1.166   4.363
  122PMPE   H5S10414   1.241   1.323   4.425
  122PMPE   C2610415   1.428   1.340   4.329
  122PMPE   H6R10416   1.417   1.449   4.308
  122PMPE   H6S10417   1.497   1.295   4.252
  122PMPE   C2710418   1.504   1.332   4.457
  122PMPE   H7R10419   1.591   1.394   4.427
  122PMPE   H7S10420   1.525   1.224   4.470
  122PMPE   C2810421   1.447   1.385   4.588
  122PMPE   H8R10422   1.529   1.388   4.660
  122PMPE   H8S10423   1.372   1.317   4.630
  122PMPE   C2910424   1.393   1.523   4.578
  122PMPE   H9R10425   1.337   1.553   4.487
  122PMPE  C21710426   1.511   1.612   4.599
  122PMPE  H17R10427   1.504   1.670   4.509
  122PMPE  H17S10428   1.602   1.583   4.651
  122PMPE  C21010429   1.394   1.620   4.692
  122PMPE  H10R10430   1.339   1.715   4.682
  122PMPE  C21110431   1.411   1.562   4.831
  122PMPE  H11R10432   1.442   1.645   4.898
  122PMPE  H11S10433   1.490   1.484   4.835
  122PMPE  C21210434   1.278   1.506   4.880
  122PMPE  H12R10435   1.248   1.415   4.823
  122PMPE  H12S10436   1.200   1.583   4.861
  122PMPE  C21310437   1.284   1.484   5.031
  122PMPE  H13R10438   1.326   1.578   5.075
  122PMPE  H13S10439   1.350   1.399   5.059
  122PMPE  C21410440   1.151   1.460   5.097
  122PMPE  H14R10441   1.104   1.367   5.057
  122PMPE  H14S10442   1.079   1.545   5.081
  122PMPE  C21510443   1.164   1.438   5.244
  122PMPE  H15R10444   1.186   1.536   5.294
  122PMPE  H15S10445   1.240   1.366   5.280
  122PMPE  C21610446   1.029   1.388   5.282
  122PMPE  H16R10447   0.965   1.475   5.252
  122PMPE  H16S10448   0.970   1.314   5.237
  122PMPE  H16T10449   1.032   1.360   5.389
  122PMPE   C3310450   0.990   1.625   4.264
  122PMPE   H3X10451   0.947   1.531   4.224
  122PMPE   H3Y10452   0.914   1.705   4.252
  122PMPE   C3410453   1.016   1.608   4.413
  122PMPE   H4X10454   1.064   1.703   4.449
  122PMPE   H4Y10455   1.088   1.525   4.426
  122PMPE   C3510456   0.886   1.588   4.493
  122PMPE   H5X10457   0.826   1.504   4.450
  122PMPE   H5Y10458   0.826   1.681   4.482
  122PMPE   C3610459   0.901   1.563   4.644
  122PMPE   H6X10460   0.802   1.584   4.692
  122PMPE   H6Y10461   0.973   1.633   4.690
  122PMPE   C3710462   0.940   1.420   4.679
  122PMPE   H7X10463   1.045   1.397   4.648
  122PMPE   H7Y10464   0.873   1.348   4.626
  122PMPE   C3810465   0.924   1.399   4.829
  122PMPE   H8X10466   0.822   1.435   4.856
  122PMPE   H8Y10467   0.999   1.456   4.886
  122PMPE   C3910468   0.933   1.253   4.869
  122PMPE   H9X10469   1.036   1.213   4.874
  122PMPE   H9Y10470   0.885   1.201   4.789
  122PMPE  C31010471   0.848   1.226   4.991
  122PMPE  H10X10472   0.745   1.262   4.978
  122PMPE  H10Y10473   0.893   1.273   5.077
  122PMPE  C31110474   0.837   1.082   5.022
  122PMPE  H11X10475   0.804   1.032   4.932
  122PMPE  H11Y10476   0.777   1.063   5.116
  122PMPE  C31210477   0.960   1.008   5.027
  122PMPE  H12X10478   1.030   1.012   4.941
  122PMPE  H12Y10479   0.915   0.904   5.018
  122PMPE  C31310480   1.020   1.057   5.157
  122PMPE  H13X10481   0.946   1.017   5.232
  122PMPE  H13Y10482   1.006   1.155   5.188
  122PMPE  C31410483   1.171   1.035   5.176
  122PMPE  H14X10484   1.250   1.053   5.103
  122PMPE  H14Y10485   1.178   0.956   5.098
  122PMPE  C31510486   1.209   1.001   5.330
  122PMPE  H15X10487   1.304   0.943   5.351
  122PMPE  H15Y10488   1.136   0.936   5.388
  122PMPE  C31610489   1.225   1.116   5.408
  122PMPE  H16X10490   1.323   1.144   5.362
  122PMPE  H16Y10491   1.225   1.076   5.512
  122PMPE  H16Z10492   1.131   1.163   5.372
  123PMPE     N10493   2.599   7.865   3.413
  123PMPE   HN110494   2.674   7.826   3.351
  123PMPE   HN210495   2.555   7.949   3.369
  123PMPE   HN310496   2.640   7.900   3.502
  123PMPE   C1210497   2.497   7.760   3.449
  123PMPE  H12A10498   2.551   7.675   3.495
  123PMPE  H12B10499   2.450   7.725   3.354
  123PMPE   C1110500   2.394   7.821   3.545
  123PMPE  H11A10501   2.357   7.917   3.501
  123PMPE  H11B10502   2.444   7.846   3.642
  123PMPE     P10503   2.163   7.790   3.660
  123PMPE   O1310504   2.035   7.746   3.599
  123PMPE   O1410505   2.182   7.935   3.682
  123PMPE   O1110506   2.190   7.716   3.798
  123PMPE   O1210507   2.283   7.734   3.567
  123PMPE    C110508   2.200   7.573   3.795
  123PMPE    HA10509   2.280   7.541   3.726
  123PMPE    HB10510   2.102   7.528   3.767
  123PMPE    C210511   2.233   7.514   3.932
  123PMPE    HS10512   2.255   7.405   3.919
  123PMPE   O2110513   2.114   7.537   4.010
  123PMPE   C2110514   2.117   7.476   4.124
  123PMPE   O2210515   2.207   7.405   4.166
  123PMPE   C2210516   2.000   7.522   4.206
  123PMPE   H2R10517   1.989   7.458   4.292
  123PMPE   H2S10518   1.904   7.516   4.151
  123PMPE    C310519   2.361   7.578   3.995
  123PMPE    HX10520   2.439   7.584   3.916
  123PMPE    HY10521   2.401   7.514   4.077
  123PMPE   O3110522   2.327   7.703   4.052
  123PMPE   C3110523   2.387   7.809   4.008
  123PMPE   O3210524   2.481   7.822   3.932
  123PMPE   C3210525   2.333   7.920   4.079
  123PMPE   H2X10526   2.224   7.927   4.089
  123PMPE   H2Y10527   2.363   8.004   4.013
  123PMPE   C2310528   2.039   7.654   4.265
  123PMPE   H3R10529   2.042   7.732   4.185
  123PMPE   H3S10530   2.137   7.649   4.316
  123PMPE   C2410531   1.945   7.696   4.370
  123PMPE   H4R10532   1.876   7.618   4.411
  123PMPE   H4S10533   1.894   7.773   4.308
  123PMPE   C2510534   2.008   7.781   4.473
  123PMPE   H5R10535   2.114   7.768   4.473
  123PMPE   H5S10536   1.980   7.741   4.573
  123PMPE   C2610537   1.970   7.932   4.456
  123PMPE   H6R10538   1.868   7.959   4.424
  123PMPE   H6S10539   2.031   7.980   4.378
  123PMPE   C2710540   1.984   7.991   4.595
  123PMPE   H7R10541   1.938   7.950   4.686
  123PMPE   H7S10542   1.949   8.097   4.593
  123PMPE   C2810543   2.115   7.936   4.641
  123PMPE   H8R10544   2.161   7.965   4.544
  123PMPE   H8S10545   2.152   7.838   4.649
  123PMPE   C2910546   2.155   8.005   4.762
  123PMPE   H9R10547   2.127   8.093   4.721
  123PMPE  C21710548   2.277   7.974   4.848
  123PMPE  H17R10549   2.339   8.052   4.890
  123PMPE  H17S10550   2.316   7.877   4.831
  123PMPE  C21010551   2.133   7.983   4.904
  123PMPE  H10R10552   2.105   8.069   4.967
  123PMPE  C21110553   2.060   7.861   4.924
  123PMPE  H11R10554   2.106   7.783   4.861
  123PMPE  H11S10555   1.955   7.881   4.892
  123PMPE  C21210556   2.072   7.837   5.072
  123PMPE  H12R10557   1.986   7.773   5.099
  123PMPE  H12S10558   2.063   7.934   5.127
  123PMPE  C21310559   2.210   7.780   5.105
  123PMPE  H13R10560   2.277   7.866   5.130
  123PMPE  H13S10561   2.252   7.721   5.022
  123PMPE  C21410562   2.215   7.688   5.221
  123PMPE  H14R10563   2.321   7.671   5.252
  123PMPE  H14S10564   2.167   7.588   5.207
  123PMPE  C21510565   2.151   7.750   5.336
  123PMPE  H15R10566   2.042   7.771   5.331
  123PMPE  H15S10567   2.204   7.842   5.371
  123PMPE  C21610568   2.173   7.632   5.422
  123PMPE  H16R10569   2.112   7.550   5.441
  123PMPE  H16S10570   2.270   7.626   5.477
  123PMPE  H16T10571   2.092   7.674   5.481
  123PMPE   C3310572   2.412   7.928   4.208
  123PMPE   H3X10573   2.342   7.988   4.261
  123PMPE   H3Y10574   2.497   7.996   4.187
  123PMPE   C3410575   2.402   7.828   4.322
  123PMPE   H4X10576   2.470   7.750   4.285
  123PMPE   H4Y10577   2.297   7.794   4.328
  123PMPE   C3510578   2.434   7.879   4.466
  123PMPE   H5X10579   2.412   7.962   4.518
  123PMPE   H5Y10580   2.514   7.949   4.466
  123PMPE   C3610581   2.426   7.809   4.596
  123PMPE   H6X10582   2.320   7.805   4.603
  123PMPE   H6Y10583   2.464   7.872   4.680
  123PMPE   C3710584   2.492   7.682   4.605
  123PMPE   H7X10585   2.491   7.643   4.707
  123PMPE   H7Y10586   2.593   7.674   4.582
  123PMPE   C3810587   2.442   7.599   4.503
  123PMPE   H8X10588   2.515   7.519   4.507
  123PMPE   H8Y10589   2.443   7.604   4.392
  123PMPE   C3910590   2.308   7.588   4.568
  123PMPE   H9X10591   2.312   7.517   4.483
  123PMPE   H9Y10592   2.232   7.652   4.533
  123PMPE  C31010593   2.270   7.563   4.728
  123PMPE  H10X10594   2.347   7.571   4.805
  123PMPE  H10Y10595   2.301   7.470   4.774
  123PMPE  C31110596   2.128   7.527   4.768
  123PMPE  H11X10597   2.099   7.425   4.748
  123PMPE  H11Y10598   2.058   7.581   4.701
  123PMPE  C31210599   2.096   7.463   4.904
  123PMPE  H12X10600   2.133   7.535   4.977
  123PMPE  H12Y10601   2.121   7.355   4.925
  123PMPE  C31310602   1.949   7.452   4.905
  123PMPE  H13X10603   1.902   7.396   4.830
  123PMPE  H13Y10604   1.929   7.546   4.849
  123PMPE  C31410605   1.881   7.382   5.024
  123PMPE  H14X10606   1.900   7.273   5.021
  123PMPE  H14Y10607   1.772   7.370   5.031
  123PMPE  C31510608   1.906   7.468   5.141
  123PMPE  H15X10609   1.892   7.571   5.099
  123PMPE  H15Y10610   2.011   7.471   5.167
  123PMPE  C31610611   1.824   7.427   5.264
  123PMPE  H16X10612   1.834   7.506   5.340
  123PMPE  H16Y10613   1.848   7.324   5.292
  123PMPE  H16Z10614   1.716   7.412   5.255
  124PMPE     N10615   7.667   1.652   3.310
  124PMPE   HN110616   7.666   1.683   3.211
  124PMPE   HN210617   7.661   1.735   3.373
  124PMPE   HN310618   7.756   1.603   3.331
  124PMPE   C1210619   7.557   1.554   3.340
  124PMPE  H12A10620   7.561   1.476   3.261
  124PMPE  H12B10621   7.459   1.606   3.336
  124PMPE   C1110622   7.576   1.493   3.481
  124PMPE  H11A10623   7.678   1.448   3.485
  124PMPE  H11B10624   7.502   1.410   3.496
  124PMPE     P10625   7.592   1.558   3.736
  124PMPE   O1310626   7.510   1.653   3.816
  124PMPE   O1410627   7.740   1.559   3.751
  124PMPE   O1110628   7.540   1.410   3.746
  124PMPE   O1210629   7.562   1.593   3.582
  124PMPE    C110630   7.413   1.373   3.797
  124PMPE    HA10631   7.395   1.266   3.772
  124PMPE    HB10632   7.328   1.432   3.753
  124PMPE    C210633   7.411   1.384   3.949
  124PMPE    HS10634   7.383   1.490   3.976
  124PMPE   O2110635   7.534   1.340   4.009
  124PMPE   C2110636   7.573   1.412   4.112
  124PMPE   O2210637   7.525   1.516   4.152
  124PMPE   C2210638   7.684   1.338   4.187
  124PMPE   H2R10639   7.678   1.369   4.294
  124PMPE   H2S10640   7.779   1.378   4.147
  124PMPE    C310641   7.304   1.295   4.004
  124PMPE    HX10642   7.309   1.188   3.981
  124PMPE    HY10643   7.212   1.328   3.943
  124PMPE   O3110644   7.323   1.308   4.149
  124PMPE   C3110645   7.213   1.347   4.194
  124PMPE   O3210646   7.114   1.347   4.122
  124PMPE   C3210647   7.232   1.379   4.351
  124PMPE   H2X10648   7.338   1.400   4.372
  124PMPE   H2Y10649   7.187   1.297   4.410
  124PMPE   C2310650   7.675   1.184   4.173
  124PMPE   H3R10651   7.684   1.155   4.065
  124PMPE   H3S10652   7.586   1.139   4.219
  124PMPE   C2410653   7.791   1.116   4.237
  124PMPE   H4R10654   7.859   1.163   4.162
  124PMPE   H4S10655   7.800   1.006   4.219
  124PMPE   C2510656   7.818   1.148   4.387
  124PMPE   H5R10657   7.856   1.248   4.409
  124PMPE   H5S10658   7.890   1.075   4.426
  124PMPE   C2610659   7.708   1.110   4.479
  124PMPE   H6R10660   7.711   1.008   4.448
  124PMPE   H6S10661   7.614   1.155   4.446
  124PMPE   C2710662   7.735   1.110   4.629
  124PMPE   H7R10663   7.759   1.215   4.654
  124PMPE   H7S10664   7.825   1.048   4.656
  124PMPE   C2810665   7.614   1.059   4.709
  124PMPE   H8R10666   7.646   1.047   4.813
  124PMPE   H8S10667   7.576   0.959   4.681
  124PMPE   C2910668   7.497   1.153   4.685
  124PMPE   H9R10669   7.447   1.155   4.587
  124PMPE  C21710670   7.511   1.286   4.756
  124PMPE  H17R10671   7.479   1.364   4.690
  124PMPE  H17S10672   7.604   1.287   4.814
  124PMPE  C21010673   7.405   1.181   4.796
  124PMPE  H10R10674   7.303   1.220   4.784
  124PMPE  C21110675   7.436   1.112   4.923
  124PMPE  H11R10676   7.376   1.183   4.976
  124PMPE  H11S10677   7.543   1.123   4.952
  124PMPE  C21210678   7.354   0.997   4.982
  124PMPE  H12R10679   7.395   0.908   4.931
  124PMPE  H12S10680   7.249   1.020   4.955
  124PMPE  C21310681   7.352   0.972   5.135
  124PMPE  H13R10682   7.277   0.896   5.162
  124PMPE  H13S10683   7.321   1.057   5.199
  124PMPE  C21410684   7.483   0.930   5.197
  124PMPE  H14R10685   7.571   0.996   5.198
  124PMPE  H14S10686   7.542   0.859   5.139
  124PMPE  C21510687   7.452   0.928   5.343
  124PMPE  H15R10688   7.432   0.822   5.373
  124PMPE  H15S10689   7.384   1.002   5.391
  124PMPE  C21610690   7.569   0.973   5.410
  124PMPE  H16R10691   7.628   0.893   5.363
  124PMPE  H16S10692   7.656   1.039   5.387
  124PMPE  H16T10693   7.552   0.949   5.518
  124PMPE   C3310694   7.192   1.503   4.434
  124PMPE   H3X10695   7.196   1.477   4.541
  124PMPE   H3Y10696   7.083   1.497   4.426
  124PMPE   C3410697   7.245   1.646   4.389
  124PMPE   H4X10698   7.184   1.735   4.417
  124PMPE   H4Y10699   7.257   1.661   4.280
  124PMPE   C3510700   7.367   1.704   4.441
  124PMPE   H5X10701   7.374   1.805   4.394
  124PMPE   H5Y10702   7.435   1.630   4.396
  124PMPE   C3610703   7.356   1.714   4.590
  124PMPE   H6X10704   7.312   1.619   4.627
  124PMPE   H6Y10705   7.291   1.796   4.627
  124PMPE   C3710706   7.492   1.741   4.643
  124PMPE   H7X10707   7.522   1.844   4.614
  124PMPE   H7Y10708   7.559   1.670   4.588
  124PMPE   C3810709   7.491   1.717   4.792
  124PMPE   H8X10710   7.594   1.706   4.826
  124PMPE   H8Y10711   7.437   1.620   4.808
  124PMPE   C3910712   7.431   1.831   4.875
  124PMPE   H9X10713   7.328   1.848   4.831
  124PMPE   H9Y10714   7.474   1.929   4.855
  124PMPE  C31010715   7.457   1.826   5.034
  124PMPE  H10X10716   7.434   1.921   5.083
  124PMPE  H10Y10717   7.534   1.758   5.077
  124PMPE  C31110718   7.349   1.756   5.093
  124PMPE  H11X10719   7.381   1.668   5.031
  124PMPE  H11Y10720   7.281   1.808   5.011
  124PMPE  C31210721   7.284   1.703   5.248
  124PMPE  H12X10722   7.172   1.668   5.254
  124PMPE  H12Y10723   7.266   1.794   5.298
  124PMPE  C31310724   7.340   1.575   5.332
  124PMPE  H13X10725   7.367   1.486   5.274
  124PMPE  H13Y10726   7.295   1.482   5.380
  124PMPE  C31410727   7.478   1.601   5.331
  124PMPE  H14X10728   7.462   1.695   5.386
  124PMPE  H14Y10729   7.525   1.618   5.231
  124PMPE  C31510730   7.538   1.487   5.396
  124PMPE  H15X10731   7.558   1.398   5.335
  124PMPE  H15Y10732   7.475   1.439   5.475
  124PMPE  C31610733   7.665   1.546   5.432
  124PMPE  H16X10734   7.728   1.461   5.414
  124PMPE  H16Y10735   7.663   1.573   5.540
  124PMPE  H16Z10736   7.735   1.588   5.359
  125PMPE     N10737   6.601   0.122   3.435
  125PMPE   HN110738   6.654   0.086   3.518
  125PMPE   HN210739   6.503   0.133   3.467
  125PMPE   HN310740   6.605   0.053   3.357
  125PMPE   C1210741   6.648   0.257   3.389
  125PMPE  H12A10742   6.576   0.293   3.312
  125PMPE  H12B10743   6.749   0.248   3.343
  125PMPE   C1110744   6.650   0.352   3.508
  125PMPE  H11A10745   6.549   0.360   3.554
  125PMPE  H11B10746   6.674   0.453   3.472
  125PMPE     P10747   6.812   0.429   3.693
  125PMPE   O1310748   6.911   0.495   3.605
  125PMPE   O1410749   6.851   0.376   3.825
  125PMPE   O1110750   6.685   0.522   3.704
  125PMPE   O1210751   6.749   0.311   3.602
  125PMPE    C110752   6.582   0.502   3.800
  125PMPE    HA10753   6.585   0.401   3.847
  125PMPE    HB10754   6.485   0.512   3.747
  125PMPE    C210755   6.579   0.612   3.911
  125PMPE    HS10756   6.505   0.687   3.874
  125PMPE   O2110757   6.708   0.671   3.936
  125PMPE   C2110758   6.738   0.772   3.858
  125PMPE   O2210759   6.659   0.831   3.785
  125PMPE   C2210760   6.888   0.801   3.873
  125PMPE   H2R10761   6.921   0.838   3.774
  125PMPE   H2S10762   6.942   0.706   3.889
  125PMPE    C310763   6.528   0.558   4.046
  125PMPE    HX10764   6.429   0.509   4.033
  125PMPE    HY10765   6.514   0.648   4.110
  125PMPE   O3110766   6.623   0.463   4.100
  125PMPE   C3110767   6.637   0.468   4.231
  125PMPE   O3210768   6.575   0.540   4.307
  125PMPE   C3210769   6.731   0.355   4.275
  125PMPE   H2X10770   6.713   0.347   4.385
  125PMPE   H2Y10771   6.837   0.383   4.259
  125PMPE   C2310772   6.918   0.906   3.985
  125PMPE   H3R10773   6.842   0.987   3.985
  125PMPE   H3S10774   7.015   0.954   3.958
  125PMPE   C2410775   6.937   0.848   4.126
  125PMPE   H4R10776   6.840   0.813   4.169
  125PMPE   H4S10777   6.977   0.929   4.191
  125PMPE   C2510778   7.033   0.728   4.127
  125PMPE   H5R10779   7.116   0.751   4.057
  125PMPE   H5S10780   6.977   0.642   4.084
  125PMPE   C2610781   7.086   0.687   4.265
  125PMPE   H6R10782   7.154   0.765   4.304
  125PMPE   H6S10783   7.141   0.590   4.255
  125PMPE   C2710784   6.980   0.671   4.373
  125PMPE   H7R10785   6.901   0.607   4.330
  125PMPE   H7S10786   6.935   0.770   4.397
  125PMPE   C2810787   7.032   0.608   4.504
  125PMPE   H8R10788   7.090   0.683   4.563
  125PMPE   H8S10789   7.101   0.523   4.486
  125PMPE   C2910790   6.907   0.555   4.572
  125PMPE   H9R10791   6.848   0.481   4.516
  125PMPE  C21710792   6.824   0.663   4.642
  125PMPE  H17R10793   6.717   0.651   4.635
  125PMPE  H17S10794   6.876   0.755   4.667
  125PMPE  C21010795   6.884   0.547   4.720
  125PMPE  H10R10796   6.806   0.479   4.758
  125PMPE  C21110797   6.987   0.595   4.816
  125PMPE  H11R10798   6.937   0.657   4.894
  125PMPE  H11S10799   7.068   0.657   4.773
  125PMPE  C21210800   7.047   0.475   4.881
  125PMPE  H12R10801   7.108   0.415   4.809
  125PMPE  H12S10802   6.970   0.404   4.922
  125PMPE  C21310803   7.130   0.538   4.992
  125PMPE  H13R10804   7.193   0.621   4.958
  125PMPE  H13S10805   7.217   0.480   5.009
  125PMPE  C21410806   7.053   0.549   5.124
  125PMPE  H14R10807   7.009   0.454   5.161
  125PMPE  H14S10808   6.965   0.611   5.100
  125PMPE  C21510809   7.135   0.611   5.238
  125PMPE  H15R10810   7.072   0.634   5.324
  125PMPE  H15S10811   7.180   0.703   5.196
  125PMPE  C21610812   7.247   0.527   5.296
  125PMPE  H16R10813   7.221   0.426   5.333
  125PMPE  H16S10814   7.305   0.513   5.205
  125PMPE  H16T10815   7.316   0.578   5.367
  125PMPE   C3310816   6.708   0.221   4.202
  125PMPE   H3X10817   6.780   0.191   4.125
  125PMPE   H3Y10818   6.617   0.227   4.141
  125PMPE   C3410819   6.704   0.107   4.299
  125PMPE   H4X10820   6.659   0.012   4.260
  125PMPE   H4Y10821   6.646   0.127   4.390
  125PMPE   C3510822   6.830   0.082   4.353
  125PMPE   H5X10823   6.876   0.168   4.407
  125PMPE   H5Y10824   6.898   0.042   4.273
  125PMPE   C3610825   6.783  -0.028   4.441
  125PMPE   H6X10826   6.890  -0.023   4.454
  125PMPE   H6Y10827   6.776  -0.125   4.392
  125PMPE   C3710828   6.691  -0.019   4.572
  125PMPE   H7X10829   6.724  -0.092   4.650
  125PMPE   H7Y10830   6.591  -0.057   4.556
  125PMPE   C3810831   6.692   0.117   4.643
  125PMPE   H8X10832   6.657   0.202   4.588
  125PMPE   H8Y10833   6.791   0.148   4.605
  125PMPE   C3910834   6.662   0.128   4.800
  125PMPE   H9X10835   6.722   0.203   4.857
  125PMPE   H9Y10836   6.669   0.046   4.874
  125PMPE  C31010837   6.536   0.178   4.838
  125PMPE  H10X10838   6.473   0.094   4.800
  125PMPE  H10Y10839   6.538   0.273   4.782
  125PMPE  C31110840   6.540   0.199   4.990
  125PMPE  H11X10841   6.577   0.110   5.046
  125PMPE  H11Y10842   6.436   0.211   5.016
  125PMPE  C31210843   6.610   0.326   5.037
  125PMPE  H12X10844   6.576   0.408   4.969
  125PMPE  H12Y10845   6.721   0.320   5.032
  125PMPE  C31310846   6.571   0.361   5.181
  125PMPE  H13X10847   6.607   0.283   5.251
  125PMPE  H13Y10848   6.461   0.359   5.186
  125PMPE  C31410849   6.643   0.491   5.221
  125PMPE  H14X10850   6.664   0.553   5.131
  125PMPE  H14Y10851   6.734   0.462   5.269
  125PMPE  C31510852   6.579   0.584   5.321
  125PMPE  H15X10853   6.518   0.534   5.399
  125PMPE  H15Y10854   6.518   0.635   5.249
  125PMPE  C31610855   6.640   0.713   5.366
  125PMPE  H16X10856   6.727   0.689   5.425
  125PMPE  H16Y10857   6.566   0.772   5.428
  125PMPE  H16Z10858   6.671   0.773   5.279
  126PMPE     N10859   0.158   1.216   3.310
  126PMPE   HN110860   0.221   1.284   3.358
  126PMPE   HN210861   0.210   1.133   3.276
  126PMPE   HN310862   0.109   1.260   3.228
  126PMPE   C1210863   0.047   1.185   3.408
  126PMPE  H12A10864  -0.031   1.128   3.353
  126PMPE  H12B10865   0.007   1.283   3.442
  126PMPE   C1110866   0.088   1.103   3.527
  126PMPE  H11A10867   0.101   0.999   3.486
  126PMPE  H11B10868  -0.003   1.106   3.595
  126PMPE     P10869   0.264   1.068   3.709
  126PMPE   O1310870   0.355   0.973   3.642
  126PMPE   O1410871   0.149   1.015   3.783
  126PMPE   O1110872   0.338   1.168   3.803
  126PMPE   O1210873   0.206   1.157   3.589
  126PMPE    C110874   0.414   1.279   3.764
  126PMPE    HA10875   0.358   1.339   3.689
  126PMPE    HB10876   0.507   1.242   3.713
  126PMPE    C210877   0.442   1.369   3.889
  126PMPE    HS10878   0.518   1.444   3.859
  126PMPE   O2110879   0.487   1.307   4.010
  126PMPE   C2110880   0.586   1.225   4.002
  126PMPE   O2210881   0.655   1.210   3.902
  126PMPE   C2210882   0.613   1.176   4.145
  126PMPE   H2R10883   0.607   1.260   4.217
  126PMPE   H2S10884   0.715   1.138   4.155
  126PMPE    C310885   0.314   1.443   3.936
  126PMPE    HX10886   0.278   1.509   3.855
  126PMPE    HY10887   0.344   1.505   4.023
  126PMPE   O3110888   0.214   1.352   3.982
  126PMPE   C3110889   0.093   1.356   3.930
  126PMPE   O3210890   0.055   1.436   3.846
  126PMPE   C3210891   0.004   1.261   4.009
  126PMPE   H2X10892  -0.015   1.173   3.944
  126PMPE   H2Y10893  -0.094   1.314   4.020
  126PMPE   C2310894   0.512   1.069   4.188
  126PMPE   H3R10895   0.536   0.976   4.131
  126PMPE   H3S10896   0.407   1.096   4.168
  126PMPE   C2410897   0.530   1.053   4.337
  126PMPE   H4R10898   0.508   1.139   4.401
  126PMPE   H4S10899   0.635   1.014   4.335
  126PMPE   C2510900   0.446   0.953   4.401
  126PMPE   H5R10901   0.529   0.881   4.420
  126PMPE   H5S10902   0.367   0.936   4.325
  126PMPE   C2610903   0.376   0.957   4.532
  126PMPE   H6R10904   0.328   1.051   4.553
  126PMPE   H6S10905   0.457   0.934   4.599
  126PMPE   C2710906   0.287   0.842   4.564
  126PMPE   H7R10907   0.365   0.769   4.564
  126PMPE   H7S10908   0.205   0.802   4.503
  126PMPE   C2810909   0.257   0.840   4.705
  126PMPE   H8R10910   0.206   0.932   4.737
  126PMPE   H8S10911   0.346   0.822   4.762
  126PMPE   C2910912   0.178   0.726   4.731
  126PMPE   H9R10913   0.175   0.618   4.704
  126PMPE  C21710914   0.052   0.769   4.771
  126PMPE  H17R10915  -0.007   0.689   4.761
  126PMPE  H17S10916   0.020   0.866   4.748
  126PMPE  C21010917   0.160   0.731   4.874
  126PMPE  H10R10918   0.154   0.634   4.909
  126PMPE  C21110919   0.181   0.837   4.976
  126PMPE  H11R10920   0.078   0.872   4.994
  126PMPE  H11S10921   0.207   0.932   4.933
  126PMPE  C21210922   0.267   0.783   5.104
  126PMPE  H12R10923   0.308   0.868   5.156
  126PMPE  H12S10924   0.348   0.743   5.049
  126PMPE  C21310925   0.259   0.653   5.202
  126PMPE  H13R10926   0.241   0.559   5.151
  126PMPE  H13S10927   0.170   0.606   5.235
  126PMPE  C21410928   0.279   0.665   5.351
  126PMPE  H14R10929   0.285   0.772   5.371
  126PMPE  H14S10930   0.379   0.636   5.369
  126PMPE  C21510931   0.187   0.570   5.438
  126PMPE  H15R10932   0.207   0.464   5.415
  126PMPE  H15S10933   0.078   0.574   5.426
  126PMPE  C21610934   0.194   0.594   5.583
  126PMPE  H16R10935   0.130   0.526   5.641
  126PMPE  H16S10936   0.300   0.574   5.605
  126PMPE  H16T10937   0.164   0.700   5.603
  126PMPE   C3310938   0.075   1.221   4.143
  126PMPE   H3X10939   0.110   1.310   4.200
  126PMPE   H3Y10940   0.158   1.152   4.121
  126PMPE   C3410941  -0.016   1.151   4.239
  126PMPE   H4X10942  -0.063   1.071   4.177
  126PMPE   H4Y10943  -0.082   1.237   4.267
  126PMPE   C3510944   0.033   1.067   4.357
  126PMPE   H5X10945   0.105   0.996   4.314
  126PMPE   H5Y10946  -0.040   0.993   4.395
  126PMPE   C3610947   0.083   1.149   4.475
  126PMPE   H6X10948   0.170   1.204   4.433
  126PMPE   H6Y10949   0.115   1.076   4.552
  126PMPE   C3710950  -0.010   1.252   4.542
  126PMPE   H7X10951  -0.091   1.203   4.601
  126PMPE   H7Y10952  -0.058   1.317   4.466
  126PMPE   C3810953   0.071   1.351   4.626
  126PMPE   H8X10954   0.014   1.447   4.635
  126PMPE   H8Y10955   0.164   1.373   4.568
  126PMPE   C3910956   0.102   1.299   4.766
  126PMPE   H9X10957   0.151   1.199   4.760
  126PMPE   H9Y10958   0.005   1.289   4.820
  126PMPE  C31010959   0.188   1.394   4.849
  126PMPE  H10X10960   0.152   1.496   4.826
  126PMPE  H10Y10961   0.295   1.384   4.821
  126PMPE  C31110962   0.165   1.372   4.999
  126PMPE  H11X10963   0.057   1.389   5.022
  126PMPE  H11Y10964   0.221   1.448   5.058
  126PMPE  C31210965   0.202   1.230   5.039
  126PMPE  H12X10966   0.308   1.209   5.013
  126PMPE  H12Y10967   0.136   1.156   4.989
  126PMPE  C31310968   0.185   1.208   5.185
  126PMPE  H13X10969   0.194   1.101   5.215
  126PMPE  H13Y10970   0.086   1.245   5.218
  126PMPE  C31410971   0.298   1.279   5.249
  126PMPE  H14X10972   0.296   1.391   5.247
  126PMPE  H14Y10973   0.399   1.246   5.212
  126PMPE  C31510974   0.279   1.245   5.391
  126PMPE  H15X10975   0.378   1.292   5.401
  126PMPE  H15Y10976   0.302   1.141   5.422
  126PMPE  C31610977   0.146   1.313   5.446
  126PMPE  H16X10978   0.134   1.319   5.555
  126PMPE  H16Y10979   0.053   1.258   5.425
  126PMPE  H16Z10980   0.146   1.424   5.438
  127PMPE     N10981   0.976   8.107   3.490
  127PMPE   HN110982   0.929   8.052   3.414
  127PMPE   HN210983   0.999   8.202   3.453
  127PMPE   HN310984   1.056   8.051   3.524
  127PMPE   C1210985   0.870   8.128   3.589
  127PMPE  H12A10986   0.774   8.142   3.535
  127PMPE  H12B10987   0.896   8.221   3.644
  127PMPE   C1110988   0.876   8.003   3.675
  127PMPE  H11A10989   0.805   8.017   3.759
  127PMPE  H11B10990   0.979   7.997   3.719
  127PMPE     P10991   0.713   7.805   3.600
  127PMPE   O1310992   0.739   7.665   3.561
  127PMPE   O1410993   0.610   7.883   3.531
  127PMPE   O1110994   0.689   7.808   3.756
  127PMPE   O1210995   0.852   7.886   3.596
  127PMPE    C110996   0.583   7.884   3.814
  127PMPE    HA10997   0.484   7.842   3.785
  127PMPE    HB10998   0.586   7.990   3.779
  127PMPE    C210999   0.597   7.885   3.968
  127PMPE    HS11000   0.513   7.944   4.011
  127PMPE   O2111001   0.727   7.938   3.999
  127PMPE   C2111002   0.734   8.037   4.082
  127PMPE   O2211003   0.647   8.084   4.152
  127PMPE   C2211004   0.876   8.088   4.073
  127PMPE   H2R11005   0.903   8.116   3.970
  127PMPE   H2S11006   0.941   8.007   4.107
  127PMPE    C311007   0.585   7.741   4.022
  127PMPE    HX11008   0.675   7.680   4.004
  127PMPE    HY11009   0.508   7.694   3.958
  127PMPE   O3111010   0.542   7.737   4.159
  127PMPE   C3111011   0.638   7.725   4.249
  127PMPE   O3211012   0.758   7.729   4.228
  127PMPE   C3211013   0.575   7.703   4.385
  127PMPE   H2X11014   0.619   7.614   4.433
  127PMPE   H2Y11015   0.466   7.683   4.371
  127PMPE   C2311016   0.902   8.201   4.167
  127PMPE   H3R11017   0.823   8.278   4.156
  127PMPE   H3S11018   0.998   8.252   4.144
  127PMPE   C2411019   0.914   8.139   4.305
  127PMPE   H4R11020   0.995   8.065   4.310
  127PMPE   H4S11021   0.818   8.093   4.338
  127PMPE   C2511022   0.952   8.245   4.399
  127PMPE   H5R11023   0.884   8.316   4.362
  127PMPE   H5S11024   1.055   8.281   4.376
  127PMPE   C2611025   0.915   8.215   4.543
  127PMPE   H6R11026   0.828   8.150   4.560
  127PMPE   H6S11027   0.900   8.294   4.616
  127PMPE   C2711028   1.032   8.154   4.600
  127PMPE   H7R11029   1.117   8.225   4.612
  127PMPE   H7S11030   1.066   8.085   4.520
  127PMPE   C2811031   0.985   8.087   4.726
  127PMPE   H8R11032   0.958   8.157   4.805
  127PMPE   H8S11033   1.051   8.046   4.799
  127PMPE   C2911034   0.934   7.949   4.694
  127PMPE   H9R11035   0.975   7.890   4.610
  127PMPE  C21711036   0.794   7.930   4.736
  127PMPE  H17R11037   0.750   7.871   4.658
  127PMPE  H17S11038   0.765   8.029   4.770
  127PMPE  C21011039   0.905   7.864   4.814
  127PMPE  H10R11040   0.918   7.755   4.801
  127PMPE  C21111041   0.914   7.929   4.951
  127PMPE  H11R11042   0.910   8.039   4.948
  127PMPE  H11S11043   1.007   7.896   5.001
  127PMPE  C21211044   0.800   7.897   5.041
  127PMPE  H12R11045   0.698   7.907   4.997
  127PMPE  H12S11046   0.814   7.934   5.145
  127PMPE  C21311047   0.823   7.763   5.077
  127PMPE  H13R11048   0.930   7.738   5.080
  127PMPE  H13S11049   0.811   7.718   4.980
  127PMPE  C21411050   0.735   7.734   5.200
  127PMPE  H14R11051   0.767   7.647   5.252
  127PMPE  H14S11052   0.630   7.721   5.169
  127PMPE  C21511053   0.776   7.730   5.346
  127PMPE  H15R11054   0.724   7.652   5.418
  127PMPE  H15S11055   0.734   7.831   5.353
  127PMPE  C21611056   0.921   7.718   5.380
  127PMPE  H16R11057   0.926   7.735   5.489
  127PMPE  H16S11058   0.969   7.619   5.362
  127PMPE  H16T11059   0.972   7.795   5.319
  127PMPE   C3311060   0.600   7.830   4.468
  127PMPE   H3X11061   0.704   7.867   4.462
  127PMPE   H3Y11062   0.573   7.810   4.575
  127PMPE   C3411063   0.509   7.937   4.414
  127PMPE   H4X11064   0.416   7.889   4.453
  127PMPE   H4Y11065   0.500   7.947   4.305
  127PMPE   C3511066   0.526   8.078   4.469
  127PMPE   H5X11067   0.456   8.149   4.416
  127PMPE   H5Y11068   0.626   8.122   4.453
  127PMPE   C3611069   0.485   8.070   4.613
  127PMPE   H6X11070   0.562   8.020   4.675
  127PMPE   H6Y11071   0.389   8.020   4.628
  127PMPE   C3711072   0.456   8.202   4.662
  127PMPE   H7X11073   0.397   8.268   4.595
  127PMPE   H7Y11074   0.558   8.239   4.675
  127PMPE   C3811075   0.419   8.206   4.799
  127PMPE   H8X11076   0.343   8.138   4.837
  127PMPE   H8Y11077   0.393   8.314   4.813
  127PMPE   C3911078   0.532   8.152   4.871
  127PMPE   H9X11079   0.618   8.210   4.842
  127PMPE   H9Y11080   0.541   8.047   4.897
  127PMPE  C31011081   0.504   8.176   4.998
  127PMPE  H10X11082   0.408   8.233   5.006
  127PMPE  H10Y11083   0.492   8.289   4.977
  127PMPE  C31111084   0.609   8.097   5.125
  127PMPE  H11X11085   0.576   7.993   5.126
  127PMPE  H11Y11086   0.576   8.116   5.228
  127PMPE  C31211087   0.754   8.150   5.214
  127PMPE  H12X11088   0.807   8.143   5.117
  127PMPE  H12Y11089   0.749   8.083   5.300
  127PMPE  C31311090   0.801   8.300   5.280
  127PMPE  H13X11091   0.728   8.368   5.326
  127PMPE  H13Y11092   0.828   8.375   5.206
  127PMPE  C31411093   0.879   8.346   5.384
  127PMPE  H14X11094   0.846   8.304   5.475
  127PMPE  H14Y11095   0.869   8.456   5.410
  127PMPE  C31511096   0.992   8.310   5.302
  127PMPE  H15X11097   1.010   8.356   5.203
  127PMPE  H15Y11098   0.988   8.209   5.255
  127PMPE  C31611099   1.085   8.350   5.406
  127PMPE  H16X11100   1.181   8.340   5.356
  127PMPE  H16Y11101   1.053   8.281   5.484
  127PMPE  H16Z11102   1.090   8.453   5.441
  128PMPE     N11103  -0.244   7.506   3.635
  128PMPE   HN111104  -0.291   7.426   3.684
  128PMPE   HN211105  -0.173   7.549   3.698
  128PMPE   HN311106  -0.313   7.578   3.603
  128PMPE   C1211107  -0.172   7.452   3.515
  128PMPE  H12A11108  -0.237   7.478   3.433
  128PMPE  H12B11109  -0.167   7.342   3.518
  128PMPE   C1111110  -0.034   7.515   3.497
  128PMPE  H11A11111  -0.040   7.627   3.492
  128PMPE  H11B11112   0.012   7.480   3.402
  128PMPE     P11113   0.195   7.525   3.620
  128PMPE   O1311114   0.212   7.614   3.504
  128PMPE   O1411115   0.286   7.412   3.645
  128PMPE   O1111116   0.180   7.611   3.751
  128PMPE   O1211117   0.044   7.474   3.608
  128PMPE    C111118   0.081   7.712   3.765
  128PMPE    HA11119  -0.020   7.669   3.746
  128PMPE    HB11120   0.099   7.795   3.693
  128PMPE    C211121   0.080   7.768   3.909
  128PMPE    HS11122   0.172   7.833   3.916
  128PMPE   O2111123   0.077   7.664   4.011
  128PMPE   C2111124   0.193   7.619   4.054
  128PMPE   O2211125   0.302   7.655   4.016
  128PMPE   C2211126   0.177   7.517   4.166
  128PMPE   H2R11127   0.278   7.492   4.204
  128PMPE   H2S11128   0.135   7.428   4.117
  128PMPE    C311129  -0.048   7.852   3.935
  128PMPE    HX11130  -0.134   7.785   3.924
  128PMPE    HY11131  -0.062   7.934   3.859
  128PMPE   O3111132  -0.059   7.893   4.073
  128PMPE   C3111133   0.023   7.989   4.083
  128PMPE   O3211134   0.083   8.039   3.992
  128PMPE   C3211135   0.039   8.028   4.223
  128PMPE   H2X11136  -0.040   7.995   4.293
  128PMPE   H2Y11137   0.022   8.134   4.204
  128PMPE   C2311138   0.093   7.567   4.287
  128PMPE   H3R11139  -0.014   7.578   4.256
  128PMPE   H3S11140   0.130   7.663   4.325
  128PMPE   C2411141   0.093   7.469   4.404
  128PMPE   H4R11142   0.106   7.372   4.352
  128PMPE   H4S11143  -0.002   7.481   4.462
  128PMPE   C2511144   0.206   7.468   4.503
  128PMPE   H5R11145   0.218   7.568   4.546
  128PMPE   H5S11146   0.298   7.434   4.449
  128PMPE   C2611147   0.177   7.374   4.620
  128PMPE   H6R11148   0.264   7.377   4.690
  128PMPE   H6S11149   0.157   7.271   4.585
  128PMPE   C2711150   0.070   7.415   4.717
  128PMPE   H7R11151  -0.028   7.407   4.666
  128PMPE   H7S11152   0.092   7.519   4.744
  128PMPE   C2811153   0.080   7.348   4.853
  128PMPE   H8R11154   0.021   7.409   4.922
  128PMPE   H8S11155   0.180   7.326   4.895
  128PMPE   C2911156   0.010   7.225   4.844
  128PMPE   H9R11157   0.039   7.144   4.772
  128PMPE  C21711158  -0.135   7.274   4.825
  128PMPE  H17R11159  -0.150   7.235   4.728
  128PMPE  H17S11160  -0.218   7.300   4.886
  128PMPE  C21011161  -0.087   7.195   4.943
  128PMPE  H10R11162  -0.074   7.090   4.928
  128PMPE  C21111163  -0.108   7.264   5.082
  128PMPE  H11R11164  -0.078   7.368   5.078
  128PMPE  H11S11165  -0.034   7.231   5.157
  128PMPE  C21211166  -0.252   7.247   5.145
  128PMPE  H12R11167  -0.294   7.153   5.192
  128PMPE  H12S11168  -0.331   7.270   5.073
  128PMPE  C21311169  -0.259   7.307   5.276
  128PMPE  H13R11170  -0.370   7.318   5.288
  128PMPE  H13S11171  -0.205   7.400   5.266
  128PMPE  C21411172  -0.185   7.229   5.383
  128PMPE  H14R11173  -0.161   7.126   5.391
  128PMPE  H14S11174  -0.275   7.200   5.414
  128PMPE  C21511175  -0.174   7.299   5.509
  128PMPE  H15R11176  -0.099   7.368   5.464
  128PMPE  H15S11177  -0.149   7.247   5.604
  128PMPE  C21611178  -0.296   7.366   5.544
  128PMPE  H16R11179  -0.236   7.458   5.535
  128PMPE  H16S11180  -0.379   7.388   5.476
  128PMPE  H16T11181  -0.331   7.344   5.649
  128PMPE   C3311182   0.181   7.980   4.261
  128PMPE   H3X11183   0.255   8.045   4.207
  128PMPE   H3Y11184   0.197   7.875   4.236
  128PMPE   C3411185   0.209   7.987   4.410
  128PMPE   H4X11186   0.172   8.082   4.424
  128PMPE   H4Y11187   0.302   8.029   4.435
  128PMPE   C3511188   0.146   7.892   4.514
  128PMPE   H5X11189   0.152   7.791   4.471
  128PMPE   H5Y11190   0.040   7.926   4.524
  128PMPE   C3611191   0.198   7.879   4.661
  128PMPE   H6X11192   0.208   7.973   4.711
  128PMPE   H6Y11193   0.300   7.839   4.671
  128PMPE   C3711194   0.098   7.805   4.751
  128PMPE   H7X11195   0.095   7.705   4.706
  128PMPE   H7Y11196  -0.002   7.853   4.742
  128PMPE   C3811197   0.139   7.789   4.899
  128PMPE   H8X11198   0.168   7.885   4.947
  128PMPE   H8Y11199   0.225   7.719   4.902
  128PMPE   C3911200   0.031   7.730   4.987
  128PMPE   H9X11201   0.076   7.665   5.066
  128PMPE   H9Y11202  -0.038   7.666   4.927
  128PMPE  C31011203  -0.047   7.843   5.053
  128PMPE  H10X11204  -0.086   7.909   4.973
  128PMPE  H10Y11205   0.013   7.905   5.123
  128PMPE  C31111206  -0.168   7.788   5.120
  128PMPE  H11X11207  -0.202   7.692   5.076
  128PMPE  H11Y11208  -0.251   7.863   5.114
  128PMPE  C31211209  -0.143   7.760   5.264
  128PMPE  H12X11210  -0.253   7.758   5.280
  128PMPE  H12Y11211  -0.096   7.843   5.322
  128PMPE  C31311212  -0.100   7.619   5.304
  128PMPE  H13X11213  -0.075   7.563   5.212
  128PMPE  H13Y11214  -0.183   7.567   5.358
  128PMPE  C31411215   0.023   7.611   5.391
  128PMPE  H14X11216   0.109   7.648   5.330
  128PMPE  H14Y11217   0.037   7.504   5.405
  128PMPE  C31511218   0.017   7.690   5.521
  128PMPE  H15X11219  -0.073   7.666   5.581
  128PMPE  H15Y11220   0.013   7.797   5.491
  128PMPE  C31611221   0.139   7.674   5.610
  128PMPE  H16X11222   0.230   7.706   5.554
  128PMPE  H16Y11223   0.152   7.571   5.647
  128PMPE  H16Z11224   0.127   7.742   5.698
  129OYPE     N11225   4.859   5.436   7.500
  129OYPE   HN111226   4.877   5.373   7.581
  129OYPE   HN211227   4.794   5.395   7.430
  129OYPE   HN311228   4.952   5.460   7.457
  129OYPE   C1211229   4.794   5.564   7.545
  129OYPE  H12A11230   4.869   5.621   7.604
  129OYPE  H12B11231   4.706   5.540   7.608
  129OYPE   C1111232   4.757   5.650   7.424
  129OYPE  H11A11233   4.854   5.677   7.376
  129OYPE  H11B11234   4.710   5.746   7.451
  129OYPE     P11235   4.520   5.560   7.341
  129OYPE   O1311236   4.454   5.666   7.264
  129OYPE   O1411237   4.495   5.546   7.486
  129OYPE   O1111238   4.502   5.417   7.274
  129OYPE   O1211239   4.677   5.578   7.331
  129OYPE    C111240   4.596   5.311   7.275
  129OYPE    HA11241   4.542   5.214   7.267
  129OYPE    HB11242   4.658   5.312   7.368
  129OYPE    C211243   4.689   5.311   7.153
  129OYPE    HS11244   4.771   5.239   7.184
  129OYPE   O2111245   4.720   5.445   7.119
  129OYPE   C2111246   4.844   5.466   7.123
  129OYPE   O2211247   4.921   5.381   7.170
  129OYPE   C2211248   4.862   5.620   7.084
  129OYPE   H2R11249   4.895   5.656   7.184
  129OYPE   H2S11250   4.768   5.675   7.077
  129OYPE    C311251   4.635   5.252   7.024
  129OYPE    HX11252   4.604   5.149   7.047
  129OYPE    HY11253   4.715   5.251   6.946
  129OYPE   O3111254   4.521   5.325   6.981
  129OYPE   C3111255   4.543   5.432   6.909
  129OYPE   O3211256   4.648   5.469   6.858
  129OYPE   C3211257   4.405   5.488   6.886
  129OYPE   H2X11258   4.346   5.419   6.822
  129OYPE   H2Y11259   4.356   5.512   6.982
  129OYPE   C2311260   4.959   5.678   6.974
  129OYPE   H3R11261   5.037   5.614   6.938
  129OYPE   H3S11262   5.011   5.770   7.005
  129OYPE   C2411263   4.901   5.704   6.841
  129OYPE   H4R11264   4.809   5.762   6.857
  129OYPE   H4S11265   4.879   5.603   6.798
  129OYPE   C2511266   4.989   5.791   6.752
  129OYPE   H5R11267   5.094   5.768   6.733
  129OYPE   H5S11268   5.024   5.887   6.792
  129OYPE   C2611269   4.905   5.800   6.627
  129OYPE   H6R11270   4.823   5.869   6.643
  129OYPE   H6S11271   4.859   5.702   6.597
  129OYPE   C2711272   4.985   5.853   6.516
  129OYPE   H7R11273   5.029   5.764   6.486
  129OYPE   H7S11274   5.080   5.901   6.548
  129OYPE   C2811275   4.910   5.876   6.383
  129OYPE   H8R11276   4.983   5.913   6.315
  129OYPE   H8S11277   4.854   5.970   6.401
  129OYPE   C2911278   4.849   5.753   6.309
  129OYPE   H9R11279   4.752   5.740   6.350
  129OYPE  C21011280   4.887   5.655   6.215
  129OYPE  H10R11281   4.822   5.568   6.204
  129OYPE  C21111282   5.009   5.613   6.130
  129OYPE  H11R11283   5.059   5.517   6.157
  129OYPE  H11S11284   5.099   5.654   6.155
  129OYPE  C21211285   5.018   5.666   5.987
  129OYPE  H12R11286   4.961   5.594   5.929
  129OYPE  H12S11287   5.122   5.660   5.945
  129OYPE  C21311288   4.965   5.808   5.964
  129OYPE  H13R11289   5.019   5.892   6.004
  129OYPE  H13S11290   4.877   5.843   6.020
  129OYPE  C21411291   4.968   5.828   5.816
  129OYPE  H14R11292   4.919   5.740   5.772
  129OYPE  H14S11293   5.068   5.831   5.770
  129OYPE  C21511294   4.899   5.954   5.784
  129OYPE  H15R11295   4.949   6.042   5.830
  129OYPE  H15S11296   4.808   5.928   5.840
  129OYPE  C21611297   4.880   5.963   5.635
  129OYPE  H16R11298   4.825   5.870   5.608
  129OYPE  H16S11299   4.980   5.971   5.589
  129OYPE  H16T11300   4.823   6.048   5.594
  129OYPE   C3311301   4.407   5.611   6.805
  129OYPE   H3X11302   4.469   5.596   6.715
  129OYPE   H3Y11303   4.463   5.683   6.860
  129OYPE   C3411304   4.260   5.648   6.788
  129OYPE   H4X11305   4.205   5.575   6.726
  129OYPE   H4Y11306   4.210   5.673   6.886
  129OYPE   C3511307   4.241   5.760   6.697
  129OYPE   H5X11308   4.237   5.830   6.779
  129OYPE   H5Y11309   4.139   5.796   6.675
  129OYPE   C3611310   4.358   5.762   6.593
  129OYPE   H6X11311   4.415   5.854   6.573
  129OYPE   H6Y11312   4.463   5.748   6.620
  129OYPE   C3711313   4.306   5.699   6.469
  129OYPE   H7X11314   4.284   5.598   6.507
  129OYPE   H7Y11315   4.208   5.745   6.442
  129OYPE   C3811316   4.406   5.703   6.354
  129OYPE   H8X11317   4.363   5.636   6.278
  129OYPE   H8Y11318   4.417   5.804   6.307
  129OYPE   C3911319   4.540   5.659   6.404
  129OYPE   H9X11320   4.598   5.739   6.455
  129OYPE  C31011321   4.593   5.536   6.402
  129OYPE  H10X11322   4.691   5.522   6.450
  129OYPE  C31111323   4.527   5.412   6.348
  129OYPE  H11X11324   4.535   5.333   6.425
  129OYPE  H11Y11325   4.419   5.429   6.328
  129OYPE  C31211326   4.584   5.359   6.215
  129OYPE  H12X11327   4.554   5.252   6.204
  129OYPE  H12Y11328   4.695   5.362   6.216
  129OYPE  C31311329   4.526   5.434   6.094
  129OYPE  H13X11330   4.415   5.430   6.099
  129OYPE  H13Y11331   4.557   5.541   6.094
  129OYPE  C31411332   4.571   5.371   5.963
  129OYPE  H14X11333   4.516   5.417   5.878
  129OYPE  H14Y11334   4.549   5.262   5.963
  129OYPE  C31511335   4.719   5.395   5.935
  129OYPE  H15X11336   4.781   5.375   6.025
  129OYPE  H15Y11337   4.731   5.502   5.906
  129OYPE  C31611338   4.766   5.307   5.822
  129OYPE  H16X11339   4.706   5.327   5.731
  129OYPE  H16Y11340   4.752   5.199   5.849
  129OYPE  C31711341   4.912   5.333   5.791
  129OYPE  H17X11342   4.975   5.287   5.872
  129OYPE  H17Y11343   4.935   5.441   5.780
  129OYPE  C31811344   4.943   5.266   5.664
  129OYPE  H18X11345   4.902   5.163   5.679
  129OYPE  H18Y11346   4.896   5.305   5.571
  129OYPE  H18Z11347   5.052   5.261   5.644
  130OYPE     N11348   2.598   6.744   7.588
  130OYPE   HN111349   2.506   6.774   7.622
  130OYPE   HN211350   2.605   6.641   7.566
  130OYPE   HN311351   2.672   6.767   7.656
  130OYPE   C1211352   2.640   6.822   7.468
  130OYPE  H12A11353   2.610   6.928   7.478
  130OYPE  H12B11354   2.592   6.776   7.380
  130OYPE   C1111355   2.787   6.801   7.455
  130OYPE  H11A11356   2.851   6.845   7.535
  130OYPE  H11B11357   2.818   6.859   7.364
  130OYPE     P11358   2.913   6.611   7.347
  130OYPE   O1311359   2.967   6.480   7.385
  130OYPE   O1411360   2.992   6.733   7.352
  130OYPE   O1111361   2.830   6.603   7.213
  130OYPE   O1211362   2.804   6.657   7.449
  130OYPE    C111363   2.709   6.530   7.225
  130OYPE    HA11364   2.649   6.567   7.311
  130OYPE    HB11365   2.729   6.422   7.241
  130OYPE    C211366   2.617   6.554   7.103
  130OYPE    HS11367   2.535   6.481   7.105
  130OYPE   O2111368   2.684   6.548   6.976
  130OYPE   C2111369   2.741   6.433   6.960
  130OYPE   O2211370   2.742   6.339   7.037
  130OYPE   C2211371   2.800   6.428   6.826
  130OYPE   H2R11372   2.802   6.524   6.769
  130OYPE   H2S11373   2.761   6.351   6.755
  130OYPE    C311374   2.558   6.693   7.122
  130OYPE    HX11375   2.504   6.702   7.217
  130OYPE    HY11376   2.483   6.731   7.056
  130OYPE   O3111377   2.663   6.780   7.115
  130OYPE   C3111378   2.622   6.897   7.144
  130OYPE   O3211379   2.507   6.937   7.154
  130OYPE   C3211380   2.742   6.969   7.161
  130OYPE   H2X11381   2.727   7.068   7.213
  130OYPE   H2Y11382   2.839   6.917   7.178
  130OYPE   C2311383   2.935   6.385   6.863
  130OYPE   H3R11384   2.961   6.289   6.915
  130OYPE   H3S11385   2.981   6.467   6.924
  130OYPE   C2411386   2.971   6.375   6.721
  130OYPE   H4R11387   3.059   6.324   6.753
  130OYPE   H4S11388   2.993   6.475   6.680
  130OYPE   C2511389   2.985   6.253   6.640
  130OYPE   H5R11390   2.906   6.252   6.566
  130OYPE   H5S11391   2.928   6.167   6.680
  130OYPE   C2611392   3.119   6.278   6.559
  130OYPE   H6R11393   3.223   6.254   6.583
  130OYPE   H6S11394   3.126   6.381   6.526
  130OYPE   C2711395   3.097   6.264   6.421
  130OYPE   H7R11396   3.001   6.329   6.405
  130OYPE   H7S11397   3.038   6.181   6.450
  130OYPE   C2811398   3.223   6.210   6.338
  130OYPE   H8R11399   3.261   6.122   6.277
  130OYPE   H8S11400   3.315   6.207   6.394
  130OYPE   C2911401   3.198   6.277   6.223
  130OYPE   H9R11402   3.219   6.370   6.269
  130OYPE  C21011403   3.209   6.253   6.094
  130OYPE  H10R11404   3.151   6.335   6.054
  130OYPE  C21111405   3.249   6.156   5.984
  130OYPE  H11R11406   3.258   6.050   6.023
  130OYPE  H11S11407   3.332   6.163   5.909
  130OYPE  C21211408   3.153   6.226   5.875
  130OYPE  H12R11409   3.063   6.241   5.923
  130OYPE  H12S11410   3.138   6.171   5.786
  130OYPE  C21311411   3.096   6.375   5.845
  130OYPE  H13R11412   3.055   6.443   5.925
  130OYPE  H13S11413   3.012   6.357   5.785
  130OYPE  C21411414   3.156   6.447   5.733
  130OYPE  H14R11415   3.260   6.407   5.742
  130OYPE  H14S11416   3.139   6.556   5.721
  130OYPE  C21511417   3.179   6.386   5.611
  130OYPE  H15R11418   3.203   6.276   5.615
  130OYPE  H15S11419   3.257   6.436   5.558
  130OYPE  C21611420   3.102   6.448   5.512
  130OYPE  H16R11421   3.036   6.379   5.532
  130OYPE  H16S11422   3.119   6.412   5.413
  130OYPE  H16T11423   3.048   6.542   5.519
  130OYPE   C3311424   2.752   6.993   7.020
  130OYPE   H3X11425   2.865   7.019   7.022
  130OYPE   H3Y11426   2.674   7.076   7.014
  130OYPE   C3411427   2.747   6.911   6.895
  130OYPE   H4X11428   2.831   6.944   6.835
  130OYPE   H4Y11429   2.801   6.819   6.911
  130OYPE   C3511430   2.628   6.932   6.798
  130OYPE   H5X11431   2.603   7.035   6.761
  130OYPE   H5Y11432   2.537   6.901   6.853
  130OYPE   C3611433   2.663   6.849   6.676
  130OYPE   H6X11434   2.726   6.893   6.597
  130OYPE   H6Y11435   2.712   6.757   6.713
  130OYPE   C3711436   2.551   6.819   6.587
  130OYPE   H7X11437   2.477   6.785   6.661
  130OYPE   H7Y11438   2.506   6.902   6.536
  130OYPE   C3811439   2.605   6.742   6.465
  130OYPE   H8X11440   2.533   6.694   6.408
  130OYPE   H8Y11441   2.634   6.816   6.388
  130OYPE   C3911442   2.677   6.614   6.483
  130OYPE   H9X11443   2.628   6.531   6.535
  130OYPE  C31011444   2.791   6.585   6.432
  130OYPE  H10X11445   2.837   6.499   6.479
  130OYPE  C31111446   2.867   6.679   6.349
  130OYPE  H11X11447   2.879   6.774   6.404
  130OYPE  H11Y11448   2.965   6.630   6.335
  130OYPE  C31211449   2.810   6.713   6.212
  130OYPE  H12X11450   2.874   6.792   6.167
  130OYPE  H12Y11451   2.707   6.755   6.213
  130OYPE  C31311452   2.818   6.593   6.121
  130OYPE  H13X11453   2.925   6.569   6.101
  130OYPE  H13Y11454   2.772   6.502   6.166
  130OYPE  C31411455   2.750   6.629   5.990
  130OYPE  H14X11456   2.645   6.659   6.006
  130OYPE  H14Y11457   2.743   6.534   5.944
  130OYPE  C31511458   2.835   6.723   5.901
  130OYPE  H15X11459   2.932   6.671   5.883
  130OYPE  H15Y11460   2.846   6.818   5.954
  130OYPE  C31611461   2.780   6.778   5.768
  130OYPE  H16X11462   2.846   6.848   5.714
  130OYPE  H16Y11463   2.672   6.804   5.769
  130OYPE  C31711464   2.781   6.684   5.662
  130OYPE  H17X11465   2.732   6.615   5.734
  130OYPE  H17Y11466   2.878   6.633   5.639
  130OYPE  C31811467   2.690   6.735   5.545
  130OYPE  H18X11468   2.738   6.793   5.468
  130OYPE  H18Y11469   2.666   6.647   5.482
  130OYPE  H18Z11470   2.583   6.753   5.562
  131OYPE     N11471   4.619   1.053   7.703
  131OYPE   HN111472   4.723   1.048   7.690
  131OYPE   HN211473   4.591   1.119   7.778
  131OYPE   HN311474   4.580   0.958   7.720
  131OYPE   C1211475   4.569   1.098   7.570
  131OYPE  H12A11476   4.574   1.209   7.568
  131OYPE  H12B11477   4.463   1.067   7.559
  131OYPE   C1111478   4.657   1.029   7.464
  131OYPE  H11A11479   4.630   0.924   7.451
  131OYPE  H11B11480   4.766   1.027   7.489
  131OYPE     P11481   4.713   1.211   7.291
  131OYPE   O1311482   4.722   1.308   7.402
  131OYPE   O1411483   4.655   1.249   7.161
  131OYPE   O1111484   4.856   1.151   7.270
  131OYPE   O1211485   4.633   1.084   7.338
  131OYPE    C111486   4.869   1.053   7.169
  131OYPE    HA11487   4.783   1.041   7.098
  131OYPE    HB11488   4.894   0.954   7.214
  131OYPE    C211489   4.987   1.085   7.084
  131OYPE    HS11490   5.081   1.084   7.145
  131OYPE   O2111491   4.974   1.208   7.010
  131OYPE   C2111492   5.073   1.288   6.996
  131OYPE   O2211493   5.185   1.284   7.043
  131OYPE   C2211494   5.034   1.400   6.903
  131OYPE   H2R11495   5.136   1.431   6.884
  131OYPE   H2S11496   4.982   1.472   6.968
  131OYPE    C311497   4.978   0.965   6.993
  131OYPE    HX11498   4.989   0.863   7.034
  131OYPE    HY11499   5.076   0.987   6.957
  131OYPE   O3111500   4.868   0.982   6.898
  131OYPE   C3111501   4.823   0.871   6.838
  131OYPE   O3211502   4.867   0.760   6.860
  131OYPE   C3211503   4.730   0.905   6.716
  131OYPE   H2X11504   4.720   0.807   6.662
  131OYPE   H2Y11505   4.643   0.954   6.755
  131OYPE   C2311506   4.954   1.372   6.772
  131OYPE   H3R11507   4.864   1.312   6.797
  131OYPE   H3S11508   5.016   1.314   6.700
  131OYPE   C2411509   4.895   1.502   6.713
  131OYPE   H4R11510   4.973   1.566   6.682
  131OYPE   H4S11511   4.846   1.560   6.793
  131OYPE   C2511512   4.810   1.490   6.587
  131OYPE   H5R11513   4.758   1.588   6.571
  131OYPE   H5S11514   4.732   1.414   6.607
  131OYPE   C2611515   4.890   1.446   6.464
  131OYPE   H6R11516   4.947   1.356   6.493
  131OYPE   H6S11517   4.968   1.512   6.424
  131OYPE   C2711518   4.803   1.415   6.343
  131OYPE   H7R11519   4.753   1.508   6.305
  131OYPE   H7S11520   4.725   1.345   6.377
  131OYPE   C2811521   4.887   1.352   6.234
  131OYPE   H8R11522   4.822   1.293   6.166
  131OYPE   H8S11523   4.959   1.280   6.281
  131OYPE   C2911524   4.956   1.456   6.151
  131OYPE   H9R11525   4.933   1.561   6.168
  131OYPE  C21011526   5.051   1.419   6.067
  131OYPE  H10R11527   5.101   1.490   5.998
  131OYPE  C21111528   5.088   1.275   6.058
  131OYPE  H11R11529   5.074   1.212   6.146
  131OYPE  H11S11530   5.193   1.252   6.053
  131OYPE  C21211531   5.023   1.220   5.940
  131OYPE  H12R11532   5.049   1.271   5.844
  131OYPE  H12S11533   4.915   1.207   5.956
  131OYPE  C21311534   5.082   1.087   5.932
  131OYPE  H13R11535   5.103   1.029   6.023
  131OYPE  H13S11536   5.171   1.112   5.887
  131OYPE  C21411537   5.019   1.015   5.826
  131OYPE  H14R11538   4.917   1.007   5.871
  131OYPE  H14S11539   5.065   0.914   5.839
  131OYPE  C21511540   5.012   1.079   5.682
  131OYPE  H15R11541   4.969   1.179   5.689
  131OYPE  H15S11542   4.933   1.046   5.615
  131OYPE  C21611543   5.119   1.062   5.575
  131OYPE  H16R11544   5.190   1.132   5.607
  131OYPE  H16S11545   5.081   1.091   5.474
  131OYPE  H16T11546   5.164   0.960   5.563
  131OYPE   C3311547   4.756   1.020   6.614
  131OYPE   H3X11548   4.802   0.937   6.556
  131OYPE   H3Y11549   4.814   1.110   6.643
  131OYPE   C3411550   4.701   1.069   6.484
  131OYPE   H4X11551   4.626   1.138   6.521
  131OYPE   H4Y11552   4.779   1.129   6.427
  131OYPE   C3511553   4.650   0.955   6.402
  131OYPE   H5X11554   4.604   0.879   6.466
  131OYPE   H5Y11555   4.722   0.890   6.359
  131OYPE   C3611556   4.579   1.014   6.285
  131OYPE   H6X11557   4.493   1.067   6.328
  131OYPE   H6Y11558   4.646   1.089   6.236
  131OYPE   C3711559   4.540   0.905   6.187
  131OYPE   H7X11560   4.608   0.821   6.186
  131OYPE   H7Y11561   4.454   0.852   6.233
  131OYPE   C3811562   4.527   0.957   6.042
  131OYPE   H8X11563   4.622   0.994   6.004
  131OYPE   H8Y11564   4.489   0.870   5.982
  131OYPE   C3911565   4.427   1.066   6.032
  131OYPE   H9X11566   4.338   1.018   6.021
  131OYPE  C31011567   4.412   1.195   6.027
  131OYPE  H10X11568   4.312   1.241   6.043
  131OYPE  C31111569   4.530   1.278   6.029
  131OYPE  H11X11570   4.513   1.359   6.102
  131OYPE  H11Y11571   4.621   1.219   6.055
  131OYPE  C31211572   4.538   1.322   5.884
  131OYPE  H12X11573   4.613   1.402   5.889
  131OYPE  H12Y11574   4.441   1.369   5.854
  131OYPE  C31311575   4.585   1.214   5.783
  131OYPE  H13X11576   4.678   1.164   5.817
  131OYPE  H13Y11577   4.506   1.136   5.766
  131OYPE  C31411578   4.624   1.272   5.648
  131OYPE  H14X11579   4.526   1.297   5.613
  131OYPE  H14Y11580   4.650   1.200   5.569
  131OYPE  C31511581   4.724   1.389   5.659
  131OYPE  H15X11582   4.821   1.342   5.686
  131OYPE  H15Y11583   4.702   1.467   5.733
  131OYPE  C31611584   4.752   1.461   5.531
  131OYPE  H16X11585   4.817   1.549   5.551
  131OYPE  H16Y11586   4.668   1.511   5.476
  131OYPE  C31711587   4.823   1.357   5.448
  131OYPE  H17X11588   4.755   1.290   5.400
  131OYPE  H17Y11589   4.902   1.295   5.491
  131OYPE  C31811590   4.894   1.429   5.351
  131OYPE  H18X11591   4.824   1.518   5.344
  131OYPE  H18Y11592   4.996   1.463   5.373
  131OYPE  H18Z11593   4.909   1.379   5.254
  132OYPE     N11594   4.298  -0.053   7.434
  132OYPE   HN111595   4.392  -0.015   7.464
  132OYPE   HN211596   4.248  -0.083   7.520
  132OYPE   HN311597   4.316  -0.134   7.370
  132OYPE   C1211598   4.235   0.061   7.368
  132OYPE  H12A11599   4.137   0.024   7.330
  132OYPE  H12B11600   4.304   0.085   7.283
  132OYPE   C1111601   4.223   0.172   7.472
  132OYPE  H11A11602   4.310   0.173   7.543
  132OYPE  H11B11603   4.134   0.153   7.538
  132OYPE     P11604   4.338   0.385   7.374
  132OYPE   O1311605   4.395   0.427   7.502
  132OYPE   O1411606   4.296   0.490   7.279
  132OYPE   O1111607   4.433   0.281   7.307
  132OYPE   O1211608   4.207   0.298   7.408
  132OYPE    C111609   4.544   0.333   7.232
  132OYPE    HA11610   4.635   0.344   7.297
  132OYPE    HB11611   4.526   0.430   7.181
  132OYPE    C211612   4.570   0.229   7.126
  132OYPE    HS11613   4.658   0.257   7.062
  132OYPE   O2111614   4.453   0.197   7.045
  132OYPE   C2111615   4.421   0.289   6.960
  132OYPE   O2211616   4.474   0.397   6.945
  132OYPE   C2211617   4.309   0.236   6.869
  132OYPE   H2R11618   4.223   0.212   6.934
  132OYPE   H2S11619   4.344   0.143   6.819
  132OYPE    C311620   4.608   0.101   7.193
  132OYPE    HX11621   4.535   0.062   7.267
  132OYPE    HY11622   4.706   0.116   7.246
  132OYPE   O3111623   4.612   0.021   7.076
  132OYPE   C3111624   4.541  -0.088   7.059
  132OYPE   O3211625   4.459  -0.130   7.140
  132OYPE   C3211626   4.592  -0.158   6.927
  132OYPE   H2X11627   4.701  -0.183   6.919
  132OYPE   H2Y11628   4.550  -0.258   6.909
  132OYPE   C2311629   4.276   0.341   6.762
  132OYPE   H3R11630   4.362   0.346   6.692
  132OYPE   H3S11631   4.268   0.442   6.809
  132OYPE   C2411632   4.145   0.317   6.685
  132OYPE   H4R11633   4.061   0.313   6.758
  132OYPE   H4S11634   4.149   0.219   6.632
  132OYPE   C2511635   4.114   0.427   6.581
  132OYPE   H5R11636   4.104   0.525   6.633
  132OYPE   H5S11637   4.015   0.407   6.535
  132OYPE   C2611638   4.222   0.441   6.472
  132OYPE   H6R11639   4.321   0.464   6.516
  132OYPE   H6S11640   4.195   0.531   6.412
  132OYPE   C2711641   4.238   0.320   6.378
  132OYPE   H7R11642   4.143   0.263   6.374
  132OYPE   H7S11643   4.315   0.251   6.421
  132OYPE   C2811644   4.282   0.360   6.235
  132OYPE   H8R11645   4.315   0.267   6.185
  132OYPE   H8S11646   4.373   0.423   6.241
  132OYPE   C2911647   4.176   0.437   6.158
  132OYPE   H9R11648   4.159   0.536   6.201
  132OYPE  C21011649   4.095   0.402   6.056
  132OYPE  H10R11650   4.013   0.469   6.031
  132OYPE  C21111651   4.080   0.269   5.985
  132OYPE  H11R11652   4.149   0.247   5.903
  132OYPE  H11S11653   3.972   0.256   5.952
  132OYPE  C21211654   4.101   0.151   6.074
  132OYPE  H12R11655   4.042   0.201   6.151
  132OYPE  H12S11656   4.189   0.128   6.134
  132OYPE  C21311657   4.045   0.023   6.009
  132OYPE  H13R11658   3.951   0.032   5.949
  132OYPE  H13S11659   4.003  -0.040   6.083
  132OYPE  C21411660   4.148  -0.056   5.948
  132OYPE  H14R11661   4.166  -0.151   6.001
  132OYPE  H14S11662   4.232   0.011   5.964
  132OYPE  C21511663   4.106  -0.064   5.805
  132OYPE  H15R11664   4.190  -0.108   5.751
  132OYPE  H15S11665   4.059   0.034   5.775
  132OYPE  C21611666   3.997  -0.153   5.781
  132OYPE  H16R11667   3.919  -0.121   5.709
  132OYPE  H16S11668   3.942  -0.145   5.874
  132OYPE  H16T11669   4.022  -0.259   5.780
  132OYPE   C3311670   4.568  -0.056   6.821
  132OYPE   H3X11671   4.640   0.026   6.845
  132OYPE   H3Y11672   4.473  -0.006   6.836
  132OYPE   C3411673   4.579  -0.118   6.682
  132OYPE   H4X11674   4.670  -0.176   6.664
  132OYPE   H4Y11675   4.503  -0.198   6.675
  132OYPE   C3511676   4.567  -0.012   6.572
  132OYPE   H5X11677   4.489   0.058   6.608
  132OYPE   H5Y11678   4.539  -0.064   6.479
  132OYPE   C3611679   4.685   0.076   6.534
  132OYPE   H6X11680   4.715   0.139   6.620
  132OYPE   H6Y11681   4.769   0.019   6.492
  132OYPE   C3711682   4.652   0.182   6.431
  132OYPE   H7X11683   4.543   0.195   6.432
  132OYPE   H7Y11684   4.696   0.279   6.465
  132OYPE   C3811685   4.702   0.145   6.290
  132OYPE   H8X11686   4.680   0.233   6.226
  132OYPE   H8Y11687   4.810   0.125   6.284
  132OYPE   C3911688   4.678   0.010   6.239
  132OYPE   H9X11689   4.707  -0.069   6.310
  132OYPE  C31011690   4.660  -0.022   6.112
  132OYPE  H10X11691   4.643  -0.128   6.093
  132OYPE  C31111692   4.658   0.071   5.992
  132OYPE  H11X11693   4.757   0.120   5.977
  132OYPE  H11Y11694   4.646   0.009   5.901
  132OYPE  C31211695   4.545   0.177   5.993
  132OYPE  H12X11696   4.583   0.270   6.040
  132OYPE  H12Y11697   4.462   0.141   6.059
  132OYPE  C31311698   4.477   0.211   5.858
  132OYPE  H13X11699   4.388   0.274   5.881
  132OYPE  H13Y11700   4.543   0.269   5.791
  132OYPE  C31411701   4.427   0.089   5.780
  132OYPE  H14X11702   4.384   0.017   5.852
  132OYPE  H14Y11703   4.510   0.038   5.727
  132OYPE  C31511704   4.319   0.121   5.676
  132OYPE  H15X11705   4.232   0.166   5.728
  132OYPE  H15Y11706   4.287   0.021   5.640
  132OYPE  C31611707   4.363   0.206   5.556
  132OYPE  H16X11708   4.459   0.167   5.516
  132OYPE  H16Y11709   4.375   0.313   5.584
  132OYPE  C31711710   4.261   0.213   5.444
  132OYPE  H17X11711   4.278   0.128   5.382
  132OYPE  H17Y11712   4.286   0.290   5.369
  132OYPE  C31811713   4.115   0.218   5.490
  132OYPE  H18X11714   4.062   0.284   5.421
  132OYPE  H18Y11715   4.060   0.124   5.483
  132OYPE  H18Z11716   4.101   0.256   5.592
  133OYPE     N11717   7.295   3.236   7.517
  133OYPE   HN111718   7.224   3.190   7.582
  133OYPE   HN211719   7.393   3.227   7.551
  133OYPE   HN311720   7.267   3.335   7.504
  133OYPE   C1211721   7.287   3.169   7.383
  133OYPE  H12A11722   7.331   3.068   7.395
  133OYPE  H12B11723   7.348   3.228   7.311
  133OYPE   C1111724   7.141   3.165   7.333
  133OYPE  H11A11725   7.137   3.140   7.224
  133OYPE  H11B11726   7.097   3.267   7.342
  133OYPE     P11727   7.063   2.921   7.397
  133OYPE   O1311728   6.930   2.859   7.409
  133OYPE   O1411729   7.174   2.871   7.483
  133OYPE   O1111730   7.106   2.911   7.251
  133OYPE   O1211731   7.062   3.078   7.412
  133OYPE    C111732   7.218   2.836   7.221
  133OYPE    HA11733   7.245   2.754   7.293
  133OYPE    HB11734   7.307   2.904   7.224
  133OYPE    C211735   7.196   2.783   7.080
  133OYPE    HS11736   7.290   2.780   7.051
  133OYPE   O2111737   7.116   2.865   6.994
  133OYPE   C2111738   7.190   2.948   6.921
  133OYPE   O2211739   7.308   2.952   6.915
  133OYPE   C2211740   7.123   3.052   6.848
  133OYPE   H2R11741   7.204   3.125   6.819
  133OYPE   H2S11742   7.057   3.093   6.926
  133OYPE    C311743   7.139   2.641   7.067
  133OYPE    HX11744   7.034   2.632   7.091
  133OYPE    HY11745   7.174   2.576   7.144
  133OYPE   O3111746   7.178   2.574   6.945
  133OYPE   C3111747   7.076   2.579   6.860
  133OYPE   O3211748   6.986   2.659   6.867
  133OYPE   C3211749   7.094   2.483   6.741
  133OYPE   H2X11750   7.153   2.398   6.760
  133OYPE   H2Y11751   7.025   2.496   6.655
  133OYPE   C2311752   7.065   2.988   6.724
  133OYPE   H3R11753   6.974   2.932   6.754
  133OYPE   H3S11754   7.136   2.922   6.669
  133OYPE   C2411755   7.037   3.090   6.618
  133OYPE   H4R11756   7.128   3.126   6.567
  133OYPE   H4S11757   6.994   3.175   6.676
  133OYPE   C2511758   6.935   3.032   6.520
  133OYPE   H5R11759   6.906   3.110   6.446
  133OYPE   H5S11760   6.850   3.001   6.587
  133OYPE   C2611761   6.954   2.911   6.436
  133OYPE   H6R11762   6.849   2.876   6.410
  133OYPE   H6S11763   7.005   2.832   6.493
  133OYPE   C2711764   7.018   2.950   6.305
  133OYPE   H7R11765   7.122   2.983   6.320
  133OYPE   H7S11766   6.962   3.037   6.260
  133OYPE   C2811767   6.993   2.846   6.200
  133OYPE   H8R11768   7.019   2.895   6.105
  133OYPE   H8S11769   6.887   2.818   6.199
  133OYPE   C2911770   7.029   2.706   6.199
  133OYPE   H9R11771   7.068   2.671   6.299
  133OYPE  C21011772   7.098   2.665   6.092
  133OYPE  H10R11773   7.125   2.562   6.114
  133OYPE  C21111774   7.159   2.728   5.961
  133OYPE  H11R11775   7.116   2.825   5.951
  133OYPE  H11S11776   7.136   2.650   5.887
  133OYPE  C21211777   7.306   2.767   5.893
  133OYPE  H12R11778   7.335   2.780   5.791
  133OYPE  H12S11779   7.357   2.678   5.900
  133OYPE  C21311780   7.408   2.854   5.955
  133OYPE  H13R11781   7.401   2.784   6.036
  133OYPE  H13S11782   7.362   2.944   5.995
  133OYPE  C21411783   7.561   2.838   5.947
  133OYPE  H14R11784   7.611   2.778   6.016
  133OYPE  H14S11785   7.625   2.880   6.026
  133OYPE  C21511786   7.633   2.869   5.828
  133OYPE  H15R11787   7.643   2.767   5.810
  133OYPE  H15S11788   7.731   2.913   5.856
  133OYPE  C21611789   7.572   2.930   5.708
  133OYPE  H16R11790   7.462   2.935   5.710
  133OYPE  H16S11791   7.617   2.898   5.615
  133OYPE  H16T11792   7.606   3.025   5.700
  133OYPE   C3311793   7.212   2.526   6.674
  133OYPE   H3X11794   7.278   2.527   6.758
  133OYPE   H3Y11795   7.164   2.631   6.662
  133OYPE   C3411796   7.335   2.457   6.578
  133OYPE   H4X11797   7.359   2.359   6.594
  133OYPE   H4Y11798   7.244   2.458   6.517
  133OYPE   C3511799   7.496   2.529   6.518
  133OYPE   H5X11800   7.500   2.456   6.456
  133OYPE   H5Y11801   7.590   2.525   6.574
  133OYPE   C3611802   7.524   2.695   6.460
  133OYPE   H6X11803   7.567   2.678   6.358
  133OYPE   H6Y11804   7.466   2.723   6.392
  133OYPE   C3711805   7.457   2.876   6.541
  133OYPE   H7X11806   7.392   2.891   6.616
  133OYPE   H7Y11807   7.535   2.936   6.544
  133OYPE   C3811808   7.406   3.035   6.514
  133OYPE   H8X11809   7.303   3.033   6.472
  133OYPE   H8Y11810   7.402   3.087   6.614
  133OYPE   C3911811   7.507   3.140   6.468
  133OYPE   H9X11812   7.602   3.088   6.461
  133OYPE  C31011813   7.484   3.229   6.375
  133OYPE  H10X11814   7.501   3.198   6.275
  133OYPE  C31111815   7.362   3.238   6.309
  133OYPE  H11X11816   7.307   3.233   6.400
  133OYPE  H11Y11817   7.396   3.336   6.281
  133OYPE  C31211818   7.306   3.161   6.179
  133OYPE  H12X11819   7.220   3.164   6.251
  133OYPE  H12Y11820   7.271   3.059   6.158
  133OYPE  C31311821   7.342   3.233   6.038
  133OYPE  H13X11822   7.375   3.341   6.025
  133OYPE  H13Y11823   7.368   3.153   5.975
  133OYPE  C31411824   7.265   3.231   5.909
  133OYPE  H14X11825   7.284   3.320   5.836
  133OYPE  H14Y11826   7.214   3.339   5.899
  133OYPE  C31511827   7.191   3.059   5.869
  133OYPE  H15X11828   7.187   3.006   5.966
  133OYPE  H15Y11829   7.245   3.006   5.790
  133OYPE  C31611830   7.027   3.000   5.805
  133OYPE  H16X11831   6.972   3.061   5.730
  133OYPE  H16Y11832   6.928   3.024   5.855
  133OYPE  C31711833   7.016   2.893   5.698
  133OYPE  H17X11834   7.029   2.817   5.772
  133OYPE  H17Y11835   7.097   2.933   5.630
  133OYPE  C31811836   6.882   2.870   5.624
  133OYPE  H18X11837   6.786   2.906   5.667
  133OYPE  H18Y11838   6.914   2.956   5.577
  133OYPE  H18Z11839   6.869   2.831   5.522
  134OYPE     N11840   2.393   0.932   7.226
  134OYPE   HN111841   2.414   0.997   7.149
  134OYPE   HN211842   2.325   0.969   7.297
  134OYPE   HN311843   2.480   0.903   7.274
  134OYPE   C1211844   2.334   0.802   7.176
  134OYPE  H12A11845   2.404   0.753   7.109
  134OYPE  H12B11846   2.243   0.821   7.117
  134OYPE   C1111847   2.309   0.707   7.292
  134OYPE  H11A11848   2.404   0.679   7.344
  134OYPE  H11B11849   2.266   0.613   7.250
  134OYPE     P11850   2.160   0.705   7.507
  134OYPE   O1311851   2.048   0.788   7.557
  134OYPE   O1411852   2.269   0.665   7.599
  134OYPE   O1111853   2.092   0.578   7.439
  134OYPE   O1211854   2.224   0.778   7.382
  134OYPE    C111855   2.007   0.593   7.324
  134OYPE    HA11856   2.058   0.650   7.243
  134OYPE    HB11857   1.914   0.646   7.351
  134OYPE    C211858   1.967   0.455   7.265
  134OYPE    HS11859   1.923   0.394   7.347
  134OYPE   O2111860   2.087   0.395   7.220
  134OYPE   C2111861   2.080   0.275   7.171
  134OYPE   O2211862   1.988   0.197   7.169
  134OYPE   C2211863   2.214   0.257   7.110
  134OYPE   H2R11864   2.221   0.158   7.075
  134OYPE   H2S11865   2.297   0.275   7.181
  134OYPE    C311866   1.866   0.468   7.149
  134OYPE    HX11867   1.781   0.529   7.185
  134OYPE    HY11868   1.826   0.367   7.120
  134OYPE   O3111869   1.932   0.534   7.041
  134OYPE   C3111870   1.869   0.531   6.928
  134OYPE   O3211871   1.754   0.495   6.908
  134OYPE   C3211872   1.967   0.586   6.829
  134OYPE   H2X11873   1.967   0.696   6.827
  134OYPE   H2Y11874   2.069   0.544   6.848
  134OYPE   C2311875   2.238   0.332   6.985
  134OYPE   H3R11876   2.287   0.425   7.019
  134OYPE   H3S11877   2.143   0.347   6.929
  134OYPE   C2411878   2.332   0.255   6.898
  134OYPE   H4R11879   2.318   0.150   6.877
  134OYPE   H4S11880   2.426   0.249   6.953
  134OYPE   C2511881   2.324   0.319   6.765
  134OYPE   H5R11882   2.357   0.424   6.778
  134OYPE   H5S11883   2.224   0.318   6.718
  134OYPE   C2611884   2.413   0.262   6.669
  134OYPE   H6R11885   2.408   0.169   6.616
  134OYPE   H6S11886   2.511   0.253   6.715
  134OYPE   C2711887   2.409   0.361   6.563
  134OYPE   H7R11888   2.493   0.304   6.549
  134OYPE   H7S11889   2.451   0.453   6.595
  134OYPE   C2811890   2.347   0.347   6.430
  134OYPE   H8R11891   2.309   0.405   6.353
  134OYPE   H8S11892   2.242   0.340   6.467
  134OYPE   C2911893   2.448   0.262   6.352
  134OYPE   H9R11894   2.465   0.169   6.420
  134OYPE  C21011895   2.456   0.245   6.227
  134OYPE  H10R11896   2.441   0.154   6.259
  134OYPE  C21111897   2.383   0.284   6.107
  134OYPE  H11R11898   2.483   0.301   6.070
  134OYPE  H11S11899   2.305   0.354   6.148
  134OYPE  C21211900   2.315   0.216   5.980
  134OYPE  H12R11901   2.368   0.143   5.918
  134OYPE  H12S11902   2.298   0.303   5.915
  134OYPE  C21311903   2.178   0.156   5.982
  134OYPE  H13R11904   2.109   0.202   6.054
  134OYPE  H13S11905   2.152   0.053   5.981
  134OYPE  C21411906   2.126   0.188   5.868
  134OYPE  H14R11907   2.115   0.297   5.899
  134OYPE  H14S11908   2.036   0.131   5.871
  134OYPE  C21511909   2.114   0.119   5.740
  134OYPE  H15R11910   2.180   0.044   5.719
  134OYPE  H15S11911   2.171   0.209   5.724
  134OYPE  C21611912   1.974   0.096   5.676
  134OYPE  H16R11913   1.896   0.022   5.697
  134OYPE  H16S11914   1.964   0.124   5.572
  134OYPE  H16T11915   1.889   0.121   5.742
  134OYPE   C3311916   1.929   0.541   6.694
  134OYPE   H3X11917   1.820   0.546   6.673
  134OYPE   H3Y11918   1.964   0.435   6.692
  134OYPE   C3411919   1.999   0.623   6.592
  134OYPE   H4X11920   2.023   0.538   6.525
  134OYPE   H4Y11921   1.931   0.700   6.548
  134OYPE   C3511922   2.139   0.675   6.617
  134OYPE   H5X11923   2.200   0.585   6.643
  134OYPE   H5Y11924   2.134   0.745   6.702
  134OYPE   C3611925   2.205   0.748   6.501
  134OYPE   H6X11926   2.161   0.845   6.474
  134OYPE   H6Y11927   2.313   0.764   6.529
  134OYPE   C3711928   2.217   0.672   6.374
  134OYPE   H7X11929   2.265   0.578   6.406
  134OYPE   H7Y11930   2.141   0.627   6.313
  134OYPE   C3811931   2.279   0.763   6.266
  134OYPE   H8X11932   2.387   0.774   6.298
  134OYPE   H8Y11933   2.264   0.693   6.182
  134OYPE   C3911934   2.227   0.884   6.197
  134OYPE   H9X11935   2.203   0.961   6.268
  134OYPE  C31011936   2.208   0.905   6.064
  134OYPE  H10X11937   2.169   0.997   6.023
  134OYPE  C31111938   2.232   0.817   5.948
  134OYPE  H11X11939   2.230   0.719   5.999
  134OYPE  H11Y11940   2.148   0.800   5.878
  134OYPE  C31211941   2.356   0.860   5.860
  134OYPE  H12X11942   2.403   0.798   5.781
  134OYPE  H12Y11943   2.447   0.872   5.921
  134OYPE  C31311944   2.320   0.953   5.748
  134OYPE  H13X11945   2.257   1.024   5.801
  134OYPE  H13Y11946   2.419   0.995   5.714
  134OYPE  C31411947   2.246   0.890   5.626
  134OYPE  H14X11948   2.168   0.964   5.596
  134OYPE  H14Y11949   2.186   0.799   5.646
  134OYPE  C31511950   2.344   0.871   5.509
  134OYPE  H15X11951   2.415   0.786   5.523
  134OYPE  H15Y11952   2.394   0.967   5.505
  134OYPE  C31611953   2.283   0.857   5.373
  134OYPE  H16X11954   2.207   0.935   5.352
  134OYPE  H16Y11955   2.241   0.758   5.396
  134OYPE  C31711956   2.374   0.842   5.250
  134OYPE  H17X11957   2.453   0.916   5.253
  134OYPE  H17Y11958   2.315   0.860   5.157
  134OYPE  C31811959   2.437   0.705   5.242
  134OYPE  H18X11960   2.480   0.685   5.142
  134OYPE  H18Y11961   2.508   0.685   5.323
  134OYPE  H18Z11962   2.354   0.635   5.260
  135OYPE     N11963   7.602   6.699   7.624
  135OYPE   HN111964   7.685   6.757   7.653
  135OYPE   HN211965   7.548   6.667   7.707
  135OYPE   HN311966   7.636   6.617   7.571
  135OYPE   C1211967   7.510   6.774   7.533
  135OYPE  H12A11968   7.570   6.814   7.448
  135OYPE  H12B11969   7.465   6.858   7.588
  135OYPE   C1111970   7.399   6.678   7.491
  135OYPE  H11A11971   7.347   6.646   7.585
  135OYPE  H11B11972   7.436   6.587   7.439
  135OYPE     P11973   7.209   6.673   7.310
  135OYPE   O1311974   7.101   6.766   7.269
  135OYPE   O1411975   7.173   6.544   7.372
  135OYPE   O1111976   7.306   6.636   7.189
  135OYPE   O1211977   7.308   6.750   7.410
  135OYPE    C111978   7.406   6.722   7.144
  135OYPE    HA11979   7.497   6.668   7.106
  135OYPE    HB11980   7.443   6.792   7.224
  135OYPE    C211981   7.352   6.798   7.024
  135OYPE    HS11982   7.268   6.866   7.056
  135OYPE   O2111983   7.326   6.721   6.909
  135OYPE   C2111984   7.255   6.779   6.815
  135OYPE   O2211985   7.183   6.876   6.821
  135OYPE   C2211986   7.265   6.693   6.697
  135OYPE   H2R11987   7.204   6.610   6.738
  135OYPE   H2S11988   7.369   6.659   6.678
  135OYPE    C311989   7.456   6.882   6.990
  135OYPE    HX11990   7.552   6.827   6.971
  135OYPE    HY11991   7.500   6.908   7.089
  135OYPE   O3111992   7.411   6.984   6.889
  135OYPE   C3111993   7.320   7.084   6.901
  135OYPE   O3211994   7.254   7.111   7.000
  135OYPE   C3211995   7.306   7.168   6.776
  135OYPE   H2X11996   7.196   7.173   6.765
  135OYPE   H2Y11997   7.341   7.272   6.786
  135OYPE   C2311998   7.203   6.763   6.576
  135OYPE   H3R11999   7.265   6.849   6.546
  135OYPE   H3S12000   7.097   6.793   6.592
  135OYPE   C2412001   7.215   6.676   6.458
  135OYPE   H4R12002   7.120   6.624   6.444
  135OYPE   H4S12003   7.302   6.607   6.473
  135OYPE   C2512004   7.210   6.737   6.322
  135OYPE   H5R12005   7.112   6.787   6.305
  135OYPE   H5S12006   7.226   6.648   6.257
  135OYPE   C2612007   7.327   6.799   6.265
  135OYPE   H6R12008   7.358   6.865   6.348
  135OYPE   H6S12009   7.298   6.855   6.173
  135OYPE   C2712010   7.432   6.693   6.225
  135OYPE   H7R12011   7.410   6.626   6.141
  135OYPE   H7S12012   7.463   6.636   6.316
  135OYPE   C2812013   7.542   6.774   6.169
  135OYPE   H8R12014   7.539   6.827   6.261
  135OYPE   H8S12015   7.512   6.856   6.099
  135OYPE   C2912016   7.678   6.718   6.152
  135OYPE   H9R12017   7.715   6.660   6.240
  135OYPE  C21012018   7.769   6.779   6.073
  135OYPE  H10R12019   7.873   6.749   6.067
  135OYPE  C21112020   7.762   6.903   5.991
  135OYPE  H11R12021   7.865   6.942   5.981
  135OYPE  H11S12022   7.697   6.987   6.019
  135OYPE  C21212023   7.704   6.879   5.861
  135OYPE  H12R12024   7.596   6.851   5.868
  135OYPE  H12S12025   7.752   6.791   5.820
  135OYPE  C21312026   7.737   7.009   5.786
  135OYPE  H13R12027   7.843   7.040   5.779
  135OYPE  H13S12028   7.661   7.088   5.807
  135OYPE  C21412029   7.728   6.968   5.651
  135OYPE  H14R12030   7.619   6.954   5.682
  135OYPE  H14S12031   7.786   6.875   5.624
  135OYPE  C21512032   7.725   7.037   5.521
  135OYPE  H15R12033   7.731   6.988   5.420
  135OYPE  H15S12034   7.832   7.049   5.526
  135OYPE  C21612035   7.614   7.138   5.499
  135OYPE  H16R12036   7.601   7.205   5.585
  135OYPE  H16S12037   7.527   7.094   5.458
  135OYPE  H16T12038   7.631   7.201   5.410
  135OYPE   C3312039   7.375   7.107   6.655
  135OYPE   H3X12040   7.373   6.995   6.662
  135OYPE   H3Y12041   7.481   7.138   6.658
  135OYPE   C3412042   7.301   7.155   6.530
  135OYPE   H4X12043   7.310   7.072   6.456
  135OYPE   H4Y12044   7.195   7.175   6.549
  135OYPE   C3512045   7.352   7.287   6.471
  135OYPE   H5X12046   7.458   7.283   6.505
  135OYPE   H5Y12047   7.338   7.377   6.529
  135OYPE   C3612048   7.319   7.292   6.311
  135OYPE   H6X12049   7.214   7.288   6.314
  135OYPE   H6Y12050   7.336   7.392   6.276
  135OYPE   C3712051   7.355   7.186   6.190
  135OYPE   H7X12052   7.462   7.175   6.166
  135OYPE   H7Y12053   7.328   7.081   6.211
  135OYPE   C3812054   7.396   7.217   6.047
  135OYPE   H8X12055   7.460   7.296   6.011
  135OYPE   H8Y12056   7.424   7.126   5.988
  135OYPE   C3912057   7.278   7.281   6.026
  135OYPE   H9X12058   7.227   7.341   6.102
  135OYPE  C31012059   7.227   7.246   5.919
  135OYPE  H10X12060   7.146   7.311   5.920
  135OYPE  C31112061   7.260   7.151   5.805
  135OYPE  H11X12062   7.283   7.209   5.715
  135OYPE  H11Y12063   7.349   7.090   5.822
  135OYPE  C31212064   7.158   7.047   5.761
  135OYPE  H12X12065   7.207   7.011   5.668
  135OYPE  H12Y12066   7.067   7.080   5.706
  135OYPE  C31312067   7.116   6.944   5.870
  135OYPE  H13X12068   7.083   6.994   5.962
  135OYPE  H13Y12069   7.023   6.886   5.850
  135OYPE  C31412070   7.228   6.844   5.901
  135OYPE  H14X12071   7.190   6.783   5.985
  135OYPE  H14Y12072   7.320   6.897   5.931
  135OYPE  C31512073   7.262   6.747   5.787
  135OYPE  H15X12074   7.286   6.801   5.692
  135OYPE  H15Y12075   7.173   6.684   5.782
  135OYPE  C31612076   7.365   6.640   5.822
  135OYPE  H16X12077   7.348   6.614   5.928
  135OYPE  H16Y12078   7.464   6.689   5.814
  135OYPE  C31712079   7.356   6.504   5.746
  135OYPE  H17X12080   7.270   6.444   5.781
  135OYPE  H17Y12081   7.452   6.451   5.768
  135OYPE  C31812082   7.336   6.495   5.597
  135OYPE  H18X12083   7.348   6.399   5.545
  135OYPE  H18Y12084   7.260   6.560   5.553
  135OYPE  H18Z12085   7.426   6.527   5.556
  136OYPE     N12086   8.133   4.994   7.633
  136OYPE   HN112087   8.211   5.046   7.678
  136OYPE   HN212088   8.138   4.905   7.687
  136OYPE   HN312089   8.163   4.981   7.533
  136OYPE   C1212090   8.028   5.105   7.636
  136OYPE  H12A12091   8.072   5.207   7.622
  136OYPE  H12B12092   7.981   5.106   7.736
  136OYPE   C1112093   7.939   5.091   7.514
  136OYPE  H11A12094   7.845   5.147   7.534
  136OYPE  H11B12095   7.920   4.983   7.498
  136OYPE     P12096   7.910   5.194   7.275
  136OYPE   O1312097   7.792   5.265   7.329
  136OYPE   O1412098   7.887   5.073   7.195
  136OYPE   O1112099   8.004   5.290   7.193
  136OYPE   O1212100   8.003   5.147   7.399
  136OYPE    C112101   8.144   5.267   7.174
  136OYPE    HA12102   8.176   5.172   7.223
  136OYPE    HB12103   8.202   5.349   7.222
  136OYPE    C212104   8.184   5.254   7.023
  136OYPE    HS12105   8.292   5.227   7.025
  136OYPE   O2112106   8.163   5.377   6.952
  136OYPE   C2112107   8.246   5.404   6.853
  136OYPE   O2212108   8.346   5.342   6.823
  136OYPE   C2212109   8.194   5.524   6.779
  136OYPE   H2R12110   8.244   5.615   6.823
  136OYPE   H2S12111   8.085   5.534   6.782
  136OYPE    C312112   8.103   5.142   6.953
  136OYPE    HX12113   7.995   5.167   6.964
  136OYPE    HY12114   8.123   5.047   7.008
  136OYPE   O3112115   8.141   5.127   6.814
  136OYPE   C3112116   8.051   5.058   6.742
  136OYPE   O3212117   7.946   5.016   6.785
  136OYPE   C3212118   8.101   5.035   6.599
  136OYPE   H2X12119   8.067   5.121   6.537
  136OYPE   H2Y12120   8.211   5.036   6.600
  136OYPE   C2312121   8.229   5.521   6.632
  136OYPE   H3R12122   8.339   5.500   6.636
  136OYPE   H3S12123   8.208   5.626   6.605
  136OYPE   C2412124   8.160   5.430   6.529
  136OYPE   H4R12125   8.051   5.436   6.544
  136OYPE   H4S12126   8.200   5.328   6.549
  136OYPE   C2512127   8.180   5.458   6.378
  136OYPE   H5R12128   8.283   5.446   6.346
  136OYPE   H5S12129   8.146   5.558   6.346
  136OYPE   C2612130   8.130   5.341   6.294
  136OYPE   H6R12131   8.166   5.249   6.345
  136OYPE   H6S12132   8.175   5.339   6.192
  136OYPE   C2712133   7.980   5.342   6.290
  136OYPE   H7R12134   7.940   5.439   6.326
  136OYPE   H7S12135   7.947   5.264   6.364
  136OYPE   C2812136   7.924   5.332   6.150
  136OYPE   H8R12137   7.985   5.383   6.072
  136OYPE   H8S12138   7.821   5.372   6.148
  136OYPE   C2912139   7.914   5.188   6.139
  136OYPE   H9R12140   8.014   5.134   6.137
  136OYPE  C21012141   7.817   5.133   6.069
  136OYPE  H10R12142   7.854   5.029   6.060
  136OYPE  C21112143   7.691   5.182   5.975
  136OYPE  H11R12144   7.673   5.290   5.994
  136OYPE  H11S12145   7.617   5.122   6.021
  136OYPE  C21212146   7.642   5.156   5.805
  136OYPE  H12R12147   7.704   5.227   5.753
  136OYPE  H12S12148   7.555   5.211   5.767
  136OYPE  C21312149   7.646   5.009   5.719
  136OYPE  H13R12150   7.626   4.925   5.782
  136OYPE  H13S12151   7.713   4.928   5.734
  136OYPE  C21412152   7.615   4.966   5.575
  136OYPE  H14R12153   7.683   4.985   5.495
  136OYPE  H14S12154   7.534   5.025   5.538
  136OYPE  C21512155   7.650   4.816   5.555
  136OYPE  H15R12156   7.639   4.808   5.445
  136OYPE  H15S12157   7.561   4.766   5.592
  136OYPE  C21612158   7.786   4.753   5.615
  136OYPE  H16R12159   7.782   4.730   5.723
  136OYPE  H16S12160   7.886   4.775   5.573
  136OYPE  H16T12161   7.798   4.654   5.585
  136OYPE   C3312162   8.052   4.898   6.545
  136OYPE   H3X12163   7.944   4.906   6.518
  136OYPE   H3Y12164   8.059   4.822   6.627
  136OYPE   C3412165   8.130   4.841   6.426
  136OYPE   H4X12166   8.116   4.909   6.339
  136OYPE   H4Y12167   8.239   4.841   6.450
  136OYPE   C3512168   8.089   4.696   6.394
  136OYPE   H5X12169   7.981   4.679   6.415
  136OYPE   H5Y12170   8.148   4.628   6.461
  136OYPE   C3612171   8.122   4.646   6.254
  136OYPE   H6X12172   8.225   4.681   6.228
  136OYPE   H6Y12173   8.125   4.535   6.257
  136OYPE   C3712174   8.023   4.695   6.147
  136OYPE   H7X12175   7.923   4.651   6.161
  136OYPE   H7Y12176   8.019   4.807   6.153
  136OYPE   C3812177   8.056   4.655   6.006
  136OYPE   H8X12178   8.074   4.548   6.000
  136OYPE   H8Y12179   7.994   4.691   5.924
  136OYPE   C3912180   8.184   4.711   5.985
  136OYPE   H9X12181   8.264   4.646   6.008
  136OYPE  C31012182   8.217   4.825   5.942
  136OYPE  H10X12183   8.318   4.823   5.941
  136OYPE  C31112184   8.158   4.947   5.895
  136OYPE  H11X12185   8.059   4.927   5.933
  136OYPE  H11Y12186   8.197   5.036   5.949
  136OYPE  C31212187   8.166   4.964   5.742
  136OYPE  H12X12188   8.117   5.056   5.746
  136OYPE  H12Y12189   8.097   4.899   5.689
  136OYPE  C31312190   8.280   5.037   5.665
  136OYPE  H13X12191   8.320   5.117   5.731
  136OYPE  H13Y12192   8.359   4.967   5.651
  136OYPE  C31412193   8.257   5.101   5.528
  136OYPE  H14X12194   8.195   5.051   5.453
  136OYPE  H14Y12195   8.349   5.132   5.477
  136OYPE  C31512196   8.156   5.197   5.521
  136OYPE  H15X12197   8.075   5.167   5.581
  136OYPE  H15Y12198   8.117   5.216   5.419
  136OYPE  C31612199   8.181   5.297   5.607
  136OYPE  H16X12200   8.276   5.323   5.552
  136OYPE  H16Y12201   8.196   5.275   5.714
  136OYPE  C31712202   8.054   5.375   5.592
  136OYPE  H17X12203   7.957   5.351   5.548
  136OYPE  H17Y12204   8.104   5.412   5.502
  136OYPE  C31812205   8.027   5.449   5.716
  136OYPE  H18X12206   7.961   5.536   5.708
  136OYPE  H18Y12207   8.052   5.418   5.819
  136OYPE  H18Z12208   8.124   5.485   5.701
  137OYPE     N12209   4.942   3.709   3.415
  137OYPE   HN112210   5.027   3.710   3.356
  137OYPE   HN212211   4.884   3.793   3.405
  137OYPE   HN312212   4.970   3.696   3.515
  137OYPE   C1212213   4.863   3.587   3.378
  137OYPE  H12A12214   4.876   3.565   3.271
  137OYPE  H12B12215   4.756   3.604   3.403
  137OYPE   C1112216   4.919   3.469   3.451
  137OYPE  H11A12217   5.026   3.454   3.451
  137OYPE  H11B12218   4.870   3.375   3.415
  137OYPE     P12219   4.906   3.360   3.670
  137OYPE   O1312220   4.935   3.233   3.601
  137OYPE   O1412221   4.782   3.413   3.682
  137OYPE   O1112222   4.962   3.391   3.804
  137OYPE   O1212223   4.912   3.492   3.585
  137OYPE    C112224   5.056   3.491   3.779
  137OYPE    HA12225   5.023   3.589   3.734
  137OYPE    HB12226   5.144   3.447   3.722
  137OYPE    C212227   5.103   3.530   3.911
  137OYPE    HS12228   5.202   3.535   3.876
  137OYPE   O2112229   5.082   3.437   4.023
  137OYPE   C2112230   5.128   3.313   3.989
  137OYPE   O2212231   5.178   3.286   3.884
  137OYPE   C2212232   5.108   3.205   4.089
  137OYPE   H2R12233   5.119   3.100   4.059
  137OYPE   H2S12234   5.005   3.201   4.073
  137OYPE    C312235   5.043   3.668   3.940
  137OYPE    HX12236   5.080   3.740   3.865
  137OYPE    HY12237   5.083   3.719   4.019
  137OYPE   O3112238   4.906   3.676   3.956
  137OYPE   C3112239   4.866   3.726   4.073
  137OYPE   O3212240   4.933   3.759   4.168
  137OYPE   C3212241   4.722   3.702   4.070
  137OYPE   H2X12242   4.656   3.739   4.148
  137OYPE   H2Y12243   4.688   3.709   3.963
  137OYPE   C2312244   5.145   3.251   4.230
  137OYPE   H3R12245   5.106   3.187   4.311
  137OYPE   H3S12246   5.120   3.356   4.248
  137OYPE   C2412247   5.270   3.209   4.276
  137OYPE   H4R12248   5.306   3.202   4.178
  137OYPE   H4S12249   5.261   3.110   4.329
  137OYPE   C2512250   5.350   3.304   4.353
  137OYPE   H5R12251   5.357   3.397   4.305
  137OYPE   H5S12252   5.456   3.279   4.371
  137OYPE   C2612253   5.295   3.301   4.486
  137OYPE   H6R12254   5.309   3.201   4.516
  137OYPE   H6S12255   5.193   3.315   4.502
  137OYPE   C2712256   5.362   3.405   4.559
  137OYPE   H7R12257   5.274   3.446   4.610
  137OYPE   H7S12258   5.441   3.465   4.510
  137OYPE   C2812259   5.374   3.403   4.695
  137OYPE   H8R12260   5.447   3.330   4.654
  137OYPE   H8S12261   5.300   3.347   4.751
  137OYPE   C2912262   5.419   3.513   4.782
  137OYPE   H9R12263   5.519   3.553   4.774
  137OYPE  C21012264   5.341   3.555   4.874
  137OYPE  H10R12265   5.387   3.617   4.937
  137OYPE  C21112266   5.208   3.521   4.915
  137OYPE  H11R12267   5.199   3.482   5.017
  137OYPE  H11S12268   5.193   3.443   4.851
  137OYPE  C21212269   5.122   3.639   4.885
  137OYPE  H12R12270   5.016   3.628   4.882
  137OYPE  H12S12271   5.141   3.707   4.807
  137OYPE  C21312272   5.158   3.748   4.965
  137OYPE  H13R12273   5.077   3.809   4.932
  137OYPE  H13S12274   5.185   3.850   4.934
  137OYPE  C21412275   5.178   3.694   5.103
  137OYPE  H14R12276   5.262   3.628   5.121
  137OYPE  H14S12277   5.077   3.656   5.131
  137OYPE  C21512278   5.215   3.793   5.194
  137OYPE  H15R12279   5.203   3.872   5.118
  137OYPE  H15S12280   5.295   3.853   5.224
  137OYPE  C21612281   5.171   3.774   5.330
  137OYPE  H16R12282   5.131   3.872   5.334
  137OYPE  H16S12283   5.101   3.828   5.393
  137OYPE  H16T12284   5.159   3.688   5.388
  137OYPE   C3312285   4.717   3.560   4.097
  137OYPE   H3X12286   4.817   3.509   4.093
  137OYPE   H3Y12287   4.642   3.533   4.020
  137OYPE   C3412288   4.678   3.506   4.223
  137OYPE   H4X12289   4.585   3.529   4.255
  137OYPE   H4Y12290   4.631   3.404   4.220
  137OYPE   C3512291   4.791   3.522   4.316
  137OYPE   H5X12292   4.833   3.621   4.312
  137OYPE   H5Y12293   4.899   3.487   4.295
  137OYPE   C3612294   4.702   3.464   4.432
  137OYPE   H6X12295   4.797   3.466   4.433
  137OYPE   H6Y12296   4.683   3.527   4.516
  137OYPE   C3712297   4.667   3.317   4.479
  137OYPE   H7X12298   4.624   3.235   4.418
  137OYPE   H7Y12299   4.761   3.283   4.473
  137OYPE   C3812300   4.714   3.272   4.610
  137OYPE   H8X12301   4.678   3.163   4.585
  137OYPE   H8Y12302   4.819   3.238   4.629
  137OYPE   C3912303   4.649   3.367   4.718
  137OYPE   H9X12304   4.582   3.297   4.739
  137OYPE  C31012305   4.682   3.476   4.821
  137OYPE  H10X12306   4.595   3.446   4.889
  137OYPE  C31112307   4.802   3.514   4.942
  137OYPE  H11X12308   4.895   3.496   4.902
  137OYPE  H11Y12309   4.819   3.621   4.920
  137OYPE  C31212310   4.893   3.441   5.089
  137OYPE  H12X12311   4.808   3.485   5.136
  137OYPE  H12Y12312   4.980   3.494   5.114
  137OYPE  C31312313   4.938   3.274   5.160
  137OYPE  H13X12314   4.887   3.168   5.136
  137OYPE  H13Y12315   5.001   3.202   5.099
  137OYPE  C31412316   4.934   3.224   5.290
  137OYPE  H14X12317   4.857   3.139   5.299
  137OYPE  H14Y12318   4.896   3.292   5.363
  137OYPE  C31512319   5.083   3.217   5.285
  137OYPE  H15X12320   5.118   3.321   5.275
  137OYPE  H15Y12321   5.126   3.154   5.202
  137OYPE  C31612322   5.114   3.157   5.409
  137OYPE  H16X12323   5.069   3.070   5.370
  137OYPE  H16Y12324   5.060   3.194   5.496
  137OYPE  C31712325   5.250   3.111   5.429
  137OYPE  H17X12326   5.247   3.050   5.523
  137OYPE  H17Y12327   5.301   3.201   5.436
  137OYPE  C31812328   5.307   3.038   5.311
  137OYPE  H18X12329   5.276   3.060   5.209
  137OYPE  H18Y12330   5.413   3.024   5.301
  137OYPE  H18Z12331   5.280   2.938   5.342
  138OYPE     N12332   6.557   3.325   3.343
  138OYPE   HN112333   6.634   3.379   3.389
  138OYPE   HN212334   6.588   3.235   3.301
  138OYPE   HN312335   6.515   3.384   3.269
  138OYPE   C1212336   6.447   3.300   3.443
  138OYPE  H12A12337   6.469   3.208   3.501
  138OYPE  H12B12338   6.353   3.283   3.384
  138OYPE   C1112339   6.429   3.423   3.533
  138OYPE  H11A12340   6.453   3.515   3.476
  138OYPE  H11B12341   6.493   3.422   3.624
  138OYPE     P12342   6.223   3.385   3.696
  138OYPE   O1312343   6.077   3.382   3.674
  138OYPE   O1412344   6.284   3.456   3.810
  138OYPE   O1112345   6.280   3.236   3.694
  138OYPE   O1212346   6.293   3.436   3.564
  138OYPE    C112347   6.186   3.130   3.710
  138OYPE    HA12348   6.238   3.034   3.691
  138OYPE    HB12349   6.103   3.139   3.636
  138OYPE    C212350   6.123   3.122   3.852
  138OYPE    HS12351   6.057   3.212   3.865
  138OYPE   O2112352   6.224   3.107   3.953
  138OYPE   C2112353   6.215   3.192   4.054
  138OYPE   O2212354   6.152   3.297   4.054
  138OYPE   C2212355   6.278   3.132   4.180
  138OYPE   H2R12356   6.357   3.061   4.149
  138OYPE   H2S12357   6.199   3.073   4.231
  138OYPE    C312358   6.033   2.998   3.861
  138OYPE    HX12359   6.090   2.909   3.829
  138OYPE    HY12360   5.953   3.010   3.784
  138OYPE   O3112361   5.993   2.973   3.998
  138OYPE   C3112362   5.871   3.019   4.017
  138OYPE   O3212363   5.804   3.061   3.924
  138OYPE   C3212364   5.827   2.989   4.162
  138OYPE   H2X12365   5.754   2.911   4.142
  138OYPE   H2Y12366   5.910   2.950   4.223
  138OYPE   C2312367   6.341   3.238   4.275
  138OYPE   H3R12368   6.274   3.326   4.289
  138OYPE   H3S12369   6.431   3.276   4.222
  138OYPE   C2412370   6.396   3.184   4.409
  138OYPE   H4R12371   6.450   3.261   4.468
  138OYPE   H4S12372   6.442   3.084   4.393
  138OYPE   C2512373   6.299   3.152   4.514
  138OYPE   H5R12374   6.249   3.070   4.454
  138OYPE   H5S12375   6.243   3.249   4.536
  138OYPE   C2612376   6.321   3.085   4.644
  138OYPE   H6R12377   6.336   2.977   4.630
  138OYPE   H6S12378   6.238   3.070   4.713
  138OYPE   C2712379   6.373   3.187   4.739
  138OYPE   H7R12380   6.314   3.282   4.731
  138OYPE   H7S12381   6.475   3.196   4.700
  138OYPE   C2812382   6.348   3.144   4.881
  138OYPE   H8R12383   6.237   3.133   4.898
  138OYPE   H8S12384   6.382   3.211   4.958
  138OYPE   C2912385   6.419   3.019   4.901
  138OYPE   H9R12386   6.506   2.980   4.846
  138OYPE  C21012387   6.370   2.945   4.991
  138OYPE  H10R12388   6.403   2.852   4.981
  138OYPE  C21112389   6.258   2.942   5.088
  138OYPE  H11R12390   6.254   3.036   5.145
  138OYPE  H11S12391   6.244   2.855   5.163
  138OYPE  C21212392   6.160   2.897   5.004
  138OYPE  H12R12393   6.131   2.788   4.990
  138OYPE  H12S12394   6.168   2.953   4.907
  138OYPE  C21312395   6.061   2.969   5.086
  138OYPE  H13R12396   6.022   2.930   4.998
  138OYPE  H13S12397   6.069   3.072   5.108
  138OYPE  C21412398   6.004   2.929   5.214
  138OYPE  H14R12399   6.077   2.888   5.283
  138OYPE  H14S12400   6.035   2.838   5.165
  138OYPE  C21512401   5.845   2.968   5.243
  138OYPE  H15R12402   5.749   2.927   5.219
  138OYPE  H15S12403   5.809   3.064   5.246
  138OYPE  C21612404   5.747   2.896   5.320
  138OYPE  H16R12405   5.708   2.780   5.311
  138OYPE  H16S12406   5.716   2.928   5.412
  138OYPE  H16T12407   5.855   2.890   5.354
  138OYPE   C3312408   5.734   3.091   4.236
  138OYPE   H3X12409   5.681   3.090   4.323
  138OYPE   H3Y12410   5.674   3.142   4.169
  138OYPE   C3412411   5.790   3.160   4.355
  138OYPE   H4X12412   5.869   3.088   4.369
  138OYPE   H4Y12413   5.851   3.165   4.259
  138OYPE   C3512414   5.757   3.320   4.456
  138OYPE   H5X12415   5.720   3.274   4.545
  138OYPE   H5Y12416   5.677   3.385   4.419
  138OYPE   C3612417   5.860   3.472   4.478
  138OYPE   H6X12418   5.802   3.552   4.524
  138OYPE   H6Y12419   5.938   3.469   4.553
  138OYPE   C3712420   5.971   3.554   4.378
  138OYPE   H7X12421   6.036   3.519   4.297
  138OYPE   H7Y12422   5.935   3.586   4.283
  138OYPE   C3812423   6.065   3.657   4.428
  138OYPE   H8X12424   6.092   3.716   4.335
  138OYPE   H8Y12425   6.002   3.715   4.496
  138OYPE   C3912426   6.187   3.592   4.486
  138OYPE   H9X12427   6.267   3.567   4.414
  138OYPE  C31012428   6.199   3.561   4.616
  138OYPE  H10X12429   6.297   3.524   4.648
  138OYPE  C31112430   6.096   3.584   4.725
  138OYPE  H11X12431   6.127   3.670   4.787
  138OYPE  H11Y12432   5.995   3.610   4.686
  138OYPE  C31212433   6.076   3.463   4.819
  138OYPE  H12X12434   6.173   3.437   4.866
  138OYPE  H12Y12435   6.042   3.374   4.761
  138OYPE  C31312436   5.973   3.490   4.928
  138OYPE  H13X12437   5.973   3.595   4.961
  138OYPE  H13Y12438   5.875   3.479   4.881
  138OYPE  C31412439   5.981   3.395   5.048
  138OYPE  H14X12440   6.023   3.297   5.020
  138OYPE  H14Y12441   5.882   3.375   5.092
  138OYPE  C31512442   6.062   3.453   5.161
  138OYPE  H15X12443   6.045   3.392   5.252
  138OYPE  H15Y12444   6.029   3.555   5.186
  138OYPE  C31612445   6.209   3.448   5.132
  138OYPE  H16X12446   6.245   3.517   5.054
  138OYPE  H16Y12447   6.240   3.344   5.110
  138OYPE  C31712448   6.274   3.499   5.252
  138OYPE  H17X12449   6.229   3.452   5.336
  138OYPE  H17Y12450   6.251   3.604   5.263
  138OYPE  C31812451   6.412   3.456   5.266
  138OYPE  H18X12452   6.400   3.354   5.230
  138OYPE  H18Y12453   6.497   3.466   5.202
  138OYPE  H18Z12454   6.456   3.474   5.367
  139OYPE     N12455   2.953   6.232   3.600
  139OYPE   HN112456   2.972   6.293   3.518
  139OYPE   HN212457   3.046   6.202   3.637
  139OYPE   HN312458   2.897   6.149   3.572
  139OYPE   C1212459   2.873   6.316   3.695
  139OYPE  H12A12460   2.862   6.264   3.792
  139OYPE  H12B12461   2.774   6.330   3.647
  139OYPE   C1112462   2.934   6.455   3.704
  139OYPE  H11A12463   3.029   6.457   3.760
  139OYPE  H11B12464   2.867   6.519   3.765
  139OYPE     P12465   2.989   6.658   3.548
  139OYPE   O1312466   2.867   6.726   3.502
  139OYPE   O1412467   3.107   6.660   3.459
  139OYPE   O1112468   3.028   6.711   3.692
  139OYPE   O1212469   2.955   6.504   3.572
  139OYPE    C112470   3.016   6.851   3.726
  139OYPE    HA12471   2.915   6.892   3.701
  139OYPE    HB12472   3.092   6.912   3.671
  139OYPE    C212473   3.039   6.865   3.880
  139OYPE    HS12474   3.141   6.823   3.899
  139OYPE   O2112475   2.935   6.790   3.946
  139OYPE   C2112476   2.975   6.731   4.058
  139OYPE   O2212477   3.082   6.748   4.112
  139OYPE   C2212478   2.867   6.634   4.105
  139OYPE   H2R12479   2.868   6.553   4.030
  139OYPE   H2S12480   2.767   6.683   4.101
  139OYPE    C312481   3.041   7.013   3.930
  139OYPE    HX12482   2.941   7.058   3.908
  139OYPE    HY12483   3.116   7.066   3.866
  139OYPE   O3112484   3.082   7.028   4.069
  139OYPE   C3112485   2.985   7.054   4.156
  139OYPE   O3212486   2.868   7.072   4.127
  139OYPE   C3212487   3.038   7.064   4.300
  139OYPE   H2X12488   3.089   6.969   4.326
  139OYPE   H2Y12489   3.114   7.146   4.301
  139OYPE   C2312490   2.899   6.568   4.243
  139OYPE   H3R12491   3.004   6.532   4.236
  139OYPE   H3S12492   2.832   6.480   4.256
  139OYPE   C2412493   2.886   6.656   4.370
  139OYPE   H4R12494   2.784   6.701   4.374
  139OYPE   H4S12495   2.960   6.739   4.362
  139OYPE   C2512496   2.906   6.585   4.506
  139OYPE   H5R12497   2.819   6.519   4.526
  139OYPE   H5S12498   2.907   6.662   4.587
  139OYPE   C2612499   3.039   6.509   4.515
  139OYPE   H6R12500   3.120   6.584   4.506
  139OYPE   H6S12501   3.047   6.437   4.430
  139OYPE   C2712502   3.063   6.433   4.647
  139OYPE   H7R12503   3.070   6.504   4.732
  139OYPE   H7S12504   3.162   6.385   4.636
  139OYPE   C2812505   2.964   6.321   4.676
  139OYPE   H8R12506   2.938   6.268   4.582
  139OYPE   H8S12507   2.872   6.368   4.717
  139OYPE   C2912508   3.022   6.218   4.768
  139OYPE   H9R12509   3.081   6.139   4.719
  139OYPE  C21012510   3.011   6.218   4.901
  139OYPE  H10R12511   3.064   6.142   4.961
  139OYPE  C21112512   2.937   6.322   4.980
  139OYPE  H11R12513   2.842   6.279   5.019
  139OYPE  H11S12514   2.911   6.414   4.925
  139OYPE  C21212515   3.030   6.370   5.092
  139OYPE  H12R12516   3.084   6.276   5.122
  139OYPE  H12S12517   2.968   6.415   5.173
  139OYPE  C21312518   3.154   6.453   5.067
  139OYPE  H13R12519   3.118   6.551   5.036
  139OYPE  H13S12520   3.207   6.395   4.989
  139OYPE  C21412521   3.255   6.466   5.182
  139OYPE  H14R12522   3.354   6.498   5.145
  139OYPE  H14S12523   3.267   6.363   5.223
  139OYPE  C21512524   3.227   6.571   5.291
  139OYPE  H15R12525   3.293   6.551   5.380
  139OYPE  H15S12526   3.120   6.555   5.310
  139OYPE  C21612527   3.208   6.719   5.272
  139OYPE  H16R12528   3.155   6.760   5.362
  139OYPE  H16S12529   3.147   6.737   5.182
  139OYPE  H16T12530   3.303   6.772   5.262
  139OYPE   C3312531   2.925   7.091   4.404
  139OYPE   H3X12532   2.855   7.170   4.370
  139OYPE   H3Y12533   2.974   7.125   4.498
  139OYPE   C3412534   2.839   6.968   4.444
  139OYPE   H4X12535   2.787   6.930   4.353
  139OYPE   H4Y12536   2.907   6.890   4.484
  139OYPE   C3512537   2.738   6.990   4.559
  139OYPE   H5X12538   2.688   6.894   4.582
  139OYPE   H5Y12539   2.658   7.058   4.523
  139OYPE   C3612540   2.798   7.049   4.689
  139OYPE   H6X12541   2.841   7.150   4.668
  139OYPE   H6Y12542   2.712   7.065   4.756
  139OYPE   C3712543   2.899   6.961   4.766
  139OYPE   H7X12544   2.865   6.856   4.757
  139OYPE   H7Y12545   3.000   6.967   4.718
  139OYPE   C3812546   2.915   6.994   4.917
  139OYPE   H8X12547   2.995   6.930   4.962
  139OYPE   H8Y12548   2.951   7.098   4.927
  139OYPE   C3912549   2.789   6.988   5.000
  139OYPE   H9X12550   2.747   7.085   5.029
  139OYPE  C31012551   2.723   6.877   5.036
  139OYPE  H10X12552   2.630   6.889   5.094
  139OYPE  C31112553   2.757   6.734   5.004
  139OYPE  H11X12554   2.663   6.677   4.989
  139OYPE  H11Y12555   2.819   6.723   4.913
  139OYPE  C31212556   2.829   6.660   5.117
  139OYPE  H12X12557   2.936   6.688   5.125
  139OYPE  H12Y12558   2.822   6.550   5.099
  139OYPE  C31312559   2.770   6.686   5.252
  139OYPE  H13X12560   2.788   6.792   5.279
  139OYPE  H13Y12561   2.659   6.685   5.240
  139OYPE  C31412562   2.844   6.591   5.348
  139OYPE  H14X12563   2.845   6.604   5.453
  139OYPE  H14Y12564   2.948   6.616   5.360
  139OYPE  C31512565   2.782   6.458   5.373
  139OYPE  H15X12566   2.772   6.399   5.281
  139OYPE  H15Y12567   2.695   6.460   5.423
  139OYPE  C31612568   2.779   6.388   5.513
  139OYPE  H16X12569   2.875   6.424   5.535
  139OYPE  H16Y12570   2.736   6.286   5.500
  139OYPE  C31712571   2.729   6.374   5.650
  139OYPE  H17X12572   2.637   6.315   5.653
  139OYPE  H17Y12573   2.735   6.474   5.637
  139OYPE  C31812574   2.785   6.379   5.782
  139OYPE  H18X12575   2.727   6.368   5.875
  139OYPE  H18Y12576   2.797   6.277   5.764
  139OYPE  H18Z12577   2.866   6.453   5.793
  140OYPE     N12578   5.512   1.452   3.727
  140OYPE   HN112579   5.429   1.496   3.772
  140OYPE   HN212580   5.598   1.494   3.766
  140OYPE   HN312581   5.503   1.469   3.624
  140OYPE   C1212582   5.511   1.303   3.747
  140OYPE  H12A12583   5.530   1.281   3.854
  140OYPE  H12B12584   5.592   1.259   3.685
  140OYPE   C1112585   5.375   1.248   3.704
  140OYPE  H11A12586   5.298   1.297   3.768
  140OYPE  H11B12587   5.373   1.139   3.723
  140OYPE     P12588   5.227   1.349   3.508
  140OYPE   O1312589   5.166   1.276   3.395
  140OYPE   O1412590   5.263   1.492   3.494
  140OYPE   O1112591   5.121   1.340   3.624
  140OYPE   O1212592   5.353   1.272   3.565
  140OYPE    C112593   5.002   1.413   3.593
  140OYPE    HA12594   4.925   1.345   3.548
  140OYPE    HB12595   5.014   1.502   3.527
  140OYPE    C212596   4.943   1.474   3.718
  140OYPE    HS12597   4.876   1.561   3.696
  140OYPE   O2112598   5.037   1.500   3.825
  140OYPE   C2112599   5.100   1.612   3.822
  140OYPE   O2212600   5.088   1.700   3.738
  140OYPE   C2212601   5.185   1.622   3.951
  140OYPE   H2R12602   5.239   1.527   3.967
  140OYPE   H2S12603   5.116   1.633   4.037
  140OYPE    C312604   4.851   1.368   3.766
  140OYPE    HX12605   4.755   1.356   3.711
  140OYPE    HY12606   4.838   1.435   3.848
  140OYPE   O3112607   4.922   1.247   3.797
  140OYPE   C3112608   4.986   1.238   3.914
  140OYPE   O3212609   4.956   1.295   4.017
  140OYPE   C3212610   5.093   1.129   3.905
  140OYPE   H2X12611   5.056   1.035   3.859
  140OYPE   H2Y12612   5.165   1.169   3.834
  140OYPE   C2312613   5.287   1.739   3.947
  140OYPE   H3R12614   5.233   1.835   3.931
  140OYPE   H3S12615   5.355   1.725   3.860
  140OYPE   C2412616   5.371   1.756   4.075
  140OYPE   H4R12617   5.309   1.811   4.151
  140OYPE   H4S12618   5.456   1.823   4.050
  140OYPE   C2512619   5.426   1.626   4.136
  140OYPE   H5R12620   5.486   1.575   4.058
  140OYPE   H5S12621   5.343   1.559   4.166
  140OYPE   C2612622   5.522   1.649   4.253
  140OYPE   H6R12623   5.587   1.733   4.225
  140OYPE   H6S12624   5.586   1.559   4.265
  140OYPE   C2712625   5.463   1.673   4.393
  140OYPE   H7R12626   5.408   1.582   4.425
  140OYPE   H7S12627   5.389   1.756   4.391
  140OYPE   C2812628   5.576   1.698   4.493
  140OYPE   H8R12629   5.650   1.765   4.445
  140OYPE   H8S12630   5.630   1.604   4.516
  140OYPE   C2912631   5.536   1.770   4.616
  140OYPE   H9R12632   5.483   1.864   4.595
  140OYPE  C21012633   5.555   1.735   4.743
  140OYPE  H10R12634   5.543   1.812   4.819
  140OYPE  C21112635   5.619   1.614   4.801
  140OYPE  H11R12636   5.705   1.651   4.859
  140OYPE  H11S12637   5.653   1.547   4.719
  140OYPE  C21212638   5.523   1.535   4.891
  140OYPE  H12R12639   5.547   1.427   4.893
  140OYPE  H12S12640   5.418   1.545   4.853
  140OYPE  C21312641   5.525   1.574   5.038
  140OYPE  H13R12642   5.504   1.680   5.028
  140OYPE  H13S12643   5.623   1.573   5.090
  140OYPE  C21412644   5.421   1.486   5.113
  140OYPE  H14R12645   5.448   1.382   5.092
  140OYPE  H14S12646   5.320   1.509   5.076
  140OYPE  C21512647   5.416   1.487   5.266
  140OYPE  H15R12648   5.519   1.500   5.309
  140OYPE  H15S12649   5.347   1.422   5.320
  140OYPE  C21612650   5.349   1.599   5.319
  140OYPE  H16R12651   5.255   1.647   5.291
  140OYPE  H16S12652   5.422   1.645   5.249
  140OYPE  H16T12653   5.375   1.630   5.420
  140OYPE   C3312654   5.154   1.102   4.043
  140OYPE   H3X12655   5.074   1.080   4.118
  140OYPE   H3Y12656   5.196   1.198   4.078
  140OYPE   C3412657   5.255   0.985   4.048
  140OYPE   H4X12658   5.197   0.890   4.034
  140OYPE   H4Y12659   5.326   0.990   3.962
  140OYPE   C3512660   5.336   0.979   4.179
  140OYPE   H5X12661   5.369   0.875   4.203
  140OYPE   H5Y12662   5.271   1.010   4.263
  140OYPE   C3612663   5.465   1.064   4.173
  140OYPE   H6X12664   5.548   0.997   4.141
  140OYPE   H6Y12665   5.454   1.141   4.094
  140OYPE   C3712666   5.503   1.132   4.305
  140OYPE   H7X12667   5.501   1.060   4.390
  140OYPE   H7Y12668   5.608   1.168   4.293
  140OYPE   C3812669   5.416   1.255   4.337
  140OYPE   H8X12670   5.423   1.322   4.248
  140OYPE   H8Y12671   5.310   1.221   4.343
  140OYPE   C3912672   5.459   1.331   4.460
  140OYPE   H9X12673   5.543   1.400   4.444
  140OYPE  C31012674   5.397   1.336   4.579
  140OYPE  H10X12675   5.441   1.400   4.658
  140OYPE  C31112676   5.270   1.266   4.618
  140OYPE  H11X12677   5.262   1.164   4.576
  140OYPE  H11Y12678   5.263   1.259   4.729
  140OYPE  C31212679   5.152   1.345   4.563
  140OYPE  H12X12680   5.056   1.291   4.581
  140OYPE  H12Y12681   5.161   1.356   4.452
  140OYPE  C31312682   5.145   1.485   4.624
  140OYPE  H13X12683   5.230   1.551   4.596
  140OYPE  H13Y12684   5.061   1.526   4.568
  140OYPE  C31412685   5.131   1.485   4.777
  140OYPE  H14X12686   5.219   1.443   4.829
  140OYPE  H14Y12687   5.055   1.406   4.798
  140OYPE  C31512688   5.112   1.629   4.834
  140OYPE  H15X12689   5.031   1.680   4.777
  140OYPE  H15Y12690   5.196   1.691   4.808
  140OYPE  C31612691   5.083   1.647   4.985
  140OYPE  H16X12692   5.045   1.750   5.007
  140OYPE  H16Y12693   5.159   1.607   5.053
  140OYPE  C31712694   4.967   1.583   5.043
  140OYPE  H17X12695   4.976   1.471   5.034
  140OYPE  H17Y12696   4.886   1.638   4.990
  140OYPE  C31812697   4.916   1.628   5.169
  140OYPE  H18X12698   4.990   1.616   5.248
  140OYPE  H18Y12699   4.849   1.713   5.184
  140OYPE  H18Z12700   4.838   1.546   5.168
  141OYPE     N12701   0.561   2.851   3.392
  141OYPE   HN112702   0.608   2.916   3.458
  141OYPE   HN212703   0.565   2.755   3.431
  141OYPE   HN312704   0.608   2.853   3.299
  141OYPE   C1212705   0.417   2.889   3.375
  141OYPE  H12A12706   0.371   2.819   3.303
  141OYPE  H12B12707   0.415   2.988   3.332
  141OYPE   C1112708   0.340   2.887   3.506
  141OYPE  H11A12709   0.238   2.928   3.487
  141OYPE  H11B12710   0.387   2.956   3.581
  141OYPE     P12711   0.291   2.741   3.707
  141OYPE   O1312712   0.232   2.611   3.726
  141OYPE   O1412713   0.197   2.847   3.746
  141OYPE   O1112714   0.434   2.755   3.775
  141OYPE   O1212715   0.331   2.753   3.552
  141OYPE    C112716   0.565   2.719   3.729
  141OYPE    HA12717   0.601   2.792   3.652
  141OYPE    HB12718   0.567   2.617   3.686
  141OYPE    C212719   0.670   2.725   3.845
  141OYPE    HS12720   0.766   2.676   3.816
  141OYPE   O2112721   0.621   2.674   3.969
  141OYPE   C2112722   0.595   2.546   3.967
  141OYPE   O2212723   0.630   2.471   3.877
  141OYPE   C2212724   0.538   2.508   4.103
  141OYPE   H2R12725   0.488   2.410   4.102
  141OYPE   H2S12726   0.459   2.580   4.127
  141OYPE    C312727   0.705   2.869   3.873
  141OYPE    HX12728   0.755   2.916   3.786
  141OYPE    HY12729   0.780   2.874   3.956
  141OYPE   O3112730   0.579   2.930   3.909
  141OYPE   C3112731   0.528   3.023   3.828
  141OYPE   O3212732   0.573   3.050   3.717
  141OYPE   C3212733   0.409   3.090   3.897
  141OYPE   H2X12734   0.437   3.190   3.931
  141OYPE   H2Y12735   0.336   3.118   3.819
  141OYPE   C2312736   0.647   2.509   4.213
  141OYPE   H3R12737   0.738   2.460   4.174
  141OYPE   H3S12738   0.612   2.442   4.295
  141OYPE   C2412739   0.665   2.653   4.268
  141OYPE   H4R12740   0.564   2.690   4.296
  141OYPE   H4S12741   0.706   2.720   4.190
  141OYPE   C2512742   0.759   2.669   4.388
  141OYPE   H5R12743   0.860   2.649   4.348
  141OYPE   H5S12744   0.728   2.608   4.474
  141OYPE   C2612745   0.775   2.801   4.459
  141OYPE   H6R12746   0.675   2.848   4.463
  141OYPE   H6S12747   0.845   2.859   4.396
  141OYPE   C2712748   0.830   2.783   4.603
  141OYPE   H7R12749   0.871   2.880   4.637
  141OYPE   H7S12750   0.916   2.711   4.603
  141OYPE   C2812751   0.728   2.737   4.711
  141OYPE   H8R12752   0.789   2.720   4.803
  141OYPE   H8S12753   0.686   2.638   4.685
  141OYPE   C2912754   0.611   2.830   4.733
  141OYPE   H9R12755   0.555   2.854   4.643
  141OYPE  C21012756   0.568   2.887   4.848
  141OYPE  H10R12757   0.499   2.971   4.847
  141OYPE  C21112758   0.629   2.871   4.980
  141OYPE  H11R12759   0.647   2.763   4.987
  141OYPE  H11S12760   0.571   2.891   5.073
  141OYPE  C21212761   0.738   2.982   4.967
  141OYPE  H12R12762   0.716   3.069   5.028
  141OYPE  H12S12763   0.792   2.991   4.866
  141OYPE  C21312764   0.836   2.963   5.079
  141OYPE  H13R12765   0.859   2.888   4.997
  141OYPE  H13S12766   0.775   2.906   5.151
  141OYPE  C21412767   0.972   3.037   5.151
  141OYPE  H14R12768   0.957   3.143   5.163
  141OYPE  H14S12769   1.038   3.041   5.062
  141OYPE  C21512770   1.069   2.991   5.290
  141OYPE  H15R12771   1.165   3.042   5.308
  141OYPE  H15S12772   1.138   2.903   5.305
  141OYPE  C21612773   1.024   2.961   5.423
  141OYPE  H16R12774   0.939   3.026   5.417
  141OYPE  H16S12775   1.113   2.994   5.487
  141OYPE  H16T12776   1.008   2.849   5.426
  141OYPE   C3312777   0.352   2.999   4.011
  141OYPE   H3X12778   0.401   3.009   4.109
  141OYPE   H3Y12779   0.366   2.893   3.980
  141OYPE   C3412780   0.204   3.010   4.043
  141OYPE   H4X12781   0.190   3.097   4.108
  141OYPE   H4Y12782   0.154   3.026   3.945
  141OYPE   C3512783   0.157   2.884   4.118
  141OYPE   H5X12784   0.205   2.796   4.072
  141OYPE   H5Y12785   0.051   2.861   4.108
  141OYPE   C3612786   0.162   2.895   4.271
  141OYPE   H6X12787   0.258   2.941   4.303
  141OYPE   H6Y12788   0.077   2.959   4.300
  141OYPE   C3712789   0.135   2.765   4.346
  141OYPE   H7X12790   0.117   2.789   4.453
  141OYPE   H7Y12791   0.042   2.718   4.306
  141OYPE   C3812792   0.261   2.678   4.334
  141OYPE   H8X12793   0.308   2.698   4.235
  141OYPE   H8Y12794   0.330   2.720   4.410
  141OYPE   C3912795   0.252   2.529   4.346
  141OYPE   H9X12796   0.240   2.478   4.249
  141OYPE  C31012797   0.274   2.458   4.458
  141OYPE  H10X12798   0.264   2.348   4.450
  141OYPE  C31112799   0.311   2.513   4.594
  141OYPE  H11X12800   0.327   2.623   4.593
  141OYPE  H11Y12801   0.230   2.492   4.667
  141OYPE  C31212802   0.439   2.456   4.654
  141OYPE  H12X12803   0.527   2.485   4.591
  141OYPE  H12Y12804   0.440   2.347   4.656
  141OYPE  C31312805   0.461   2.507   4.798
  141OYPE  H13X12806   0.568   2.485   4.809
  141OYPE  H13Y12807   0.450   2.617   4.801
  141OYPE  C31412808   0.377   2.444   4.911
  141OYPE  H14X12809   0.405   2.337   4.921
  141OYPE  H14Y12810   0.271   2.444   4.877
  141OYPE  C31512811   0.376   2.520   5.050
  141OYPE  H15X12812   0.306   2.471   5.120
  141OYPE  H15Y12813   0.344   2.624   5.030
  141OYPE  C31612814   0.507   2.534   5.130
  141OYPE  H16X12815   0.566   2.601   5.063
  141OYPE  H16Y12816   0.549   2.432   5.142
  141OYPE  C31712817   0.513   2.613   5.262
  141OYPE  H17X12818   0.423   2.573   5.310
  141OYPE  H17Y12819   0.504   2.720   5.230
  141OYPE  C31812820   0.621   2.595   5.373
  141OYPE  H18X12821   0.665   2.494   5.386
  141OYPE  H18Y12822   0.722   2.617   5.355
  141OYPE  H18Z12823   0.634   2.683   5.438
  142OYPE     N12824   6.249   1.035   3.635
  142OYPE   HN112825   6.304   1.120   3.612
  142OYPE   HN212826   6.297   0.981   3.710
  142OYPE   HN312827   6.243   0.973   3.551
  142OYPE   C1212828   6.109   1.070   3.675
  142OYPE  H12A12829   6.069   1.136   3.595
  142OYPE  H12B12830   6.112   1.124   3.772
  142OYPE   C1112831   6.024   0.944   3.688
  142OYPE  H11A12832   5.923   0.970   3.727
  142OYPE  H11B12833   6.074   0.878   3.763
  142OYPE     P12834   6.007   0.729   3.537
  142OYPE   O1312835   6.138   0.696   3.480
  142OYPE   O1412836   5.883   0.692   3.467
  142OYPE   O1112837   6.005   0.681   3.684
  142OYPE   O1212838   6.007   0.885   3.560
  142OYPE    C112839   5.904   0.592   3.723
  142OYPE    HA12840   5.912   0.494   3.669
  142OYPE    HB12841   5.799   0.629   3.710
  142OYPE    C212842   5.930   0.571   3.870
  142OYPE    HS12843   5.853   0.501   3.892
  142OYPE   O2112844   5.918   0.683   3.956
  142OYPE   C2112845   5.798   0.722   3.989
  142OYPE   O2212846   5.693   0.680   3.945
  142OYPE   C2212847   5.818   0.833   4.091
  142OYPE   H2R12848   5.738   0.822   4.167
  142OYPE   H2S12849   5.805   0.929   4.038
  142OYPE    C312850   6.070   0.514   3.899
  142OYPE    HX12851   6.150   0.576   3.856
  142OYPE    HY12852   6.069   0.424   3.832
  142OYPE   O3112853   6.108   0.495   4.040
  142OYPE   C3112854   6.017   0.440   4.121
  142OYPE   O3212855   5.901   0.427   4.087
  142OYPE   C3212856   6.061   0.378   4.259
  142OYPE   H2X12857   6.068   0.267   4.275
  142OYPE   H2Y12858   6.160   0.402   4.290
  142OYPE   C2312859   5.957   0.830   4.161
  142OYPE   H3R12860   6.037   0.846   4.085
  142OYPE   H3S12861   5.979   0.732   4.207
  142OYPE   C2412862   5.967   0.943   4.263
  142OYPE   H4R12863   5.931   1.036   4.214
  142OYPE   H4S12864   6.074   0.959   4.289
  142OYPE   C2512865   5.889   0.922   4.394
  142OYPE   H5R12866   5.910   0.820   4.432
  142OYPE   H5S12867   5.779   0.933   4.382
  142OYPE   C2612868   5.940   1.017   4.503
  142OYPE   H6R12869   6.050   1.000   4.508
  142OYPE   H6S12870   5.898   0.987   4.602
  142OYPE   C2712871   5.907   1.164   4.475
  142OYPE   H7R12872   5.804   1.170   4.432
  142OYPE   H7S12873   5.976   1.203   4.397
  142OYPE   C2812874   5.912   1.254   4.601
  142OYPE   H8R12875   5.840   1.214   4.676
  142OYPE   H8S12876   5.872   1.354   4.570
  142OYPE   C2912877   6.052   1.266   4.656
  142OYPE   H9R12878   6.128   1.295   4.581
  142OYPE  C21012879   6.097   1.240   4.780
  142OYPE  H10R12880   6.204   1.256   4.800
  142OYPE  C21112881   6.021   1.191   4.901
  142OYPE  H11R12882   5.925   1.145   4.875
  142OYPE  H11S12883   5.998   1.276   4.971
  142OYPE  C21212884   6.105   1.087   4.979
  142OYPE  H12R12885   6.152   1.009   4.917
  142OYPE  H12S12886   6.036   1.040   5.053
  142OYPE  C21312887   6.212   1.162   5.055
  142OYPE  H13R12888   6.138   1.226   5.107
  142OYPE  H13S12889   6.278   1.221   4.988
  142OYPE  C21412890   6.297   1.097   5.164
  142OYPE  H14R12891   6.372   1.171   5.201
  142OYPE  H14S12892   6.357   1.015   5.120
  142OYPE  C21512893   6.213   1.050   5.283
  142OYPE  H15R12894   6.145   0.971   5.246
  142OYPE  H15S12895   6.150   1.135   5.320
  142OYPE  C21612896   6.297   0.998   5.400
  142OYPE  H16R12897   6.241   0.926   5.461
  142OYPE  H16S12898   6.317   1.082   5.469
  142OYPE  H16T12899   6.393   0.953   5.366
  142OYPE   C3312900   5.949   0.433   4.343
  142OYPE   H3X12901   5.848   0.405   4.305
  142OYPE   H3Y12902   5.971   0.541   4.327
  142OYPE   C3412903   5.961   0.413   4.491
  142OYPE   H4X12904   5.869   0.452   4.540
  142OYPE   H4Y12905   5.968   0.304   4.516
  142OYPE   C3512906   6.078   0.506   4.528
  142OYPE   H5X12907   6.091   0.602   4.479
  142OYPE   H5Y12908   6.158   0.452   4.475
  142OYPE   C3612909   6.099   0.540   4.678
  142OYPE   H6X12910   6.021   0.576   4.743
  142OYPE   H6Y12911   6.056   0.442   4.709
  142OYPE   C3712912   6.253   0.593   4.716
  142OYPE   H7X12913   6.342   0.533   4.684
  142OYPE   H7Y12914   6.269   0.677   4.647
  142OYPE   C3812915   6.310   0.613   4.861
  142OYPE   H8X12916   6.321   0.528   4.933
  142OYPE   H8Y12917   6.417   0.645   4.865
  142OYPE   C3912918   6.211   0.700   4.923
  142OYPE   H9X12919   6.123   0.721   4.862
  142OYPE  C31012920   6.221   0.738   5.049
  142OYPE  H10X12921   6.145   0.801   5.094
  142OYPE  C31112922   6.335   0.696   5.135
  142OYPE  H11X12923   6.420   0.650   5.079
  142OYPE  H11Y12924   6.377   0.784   5.187
  142OYPE  C31212925   6.294   0.595   5.241
  142OYPE  H12X12926   6.358   0.598   5.328
  142OYPE  H12Y12927   6.323   0.492   5.214
  142OYPE  C31312928   6.182   0.641   5.328
  142OYPE  H13X12929   6.209   0.597   5.427
  142OYPE  H13Y12930   6.186   0.749   5.338
  142OYPE  C31412931   6.044   0.596   5.282
  142OYPE  H14X12932   6.086   0.511   5.330
  142OYPE  H14Y12933   6.023   0.600   5.175
  142OYPE  C31512934   5.922   0.560   5.367
  142OYPE  H15X12935   5.946   0.494   5.452
  142OYPE  H15Y12936   5.836   0.503   5.332
  142OYPE  C31612937   5.885   0.690   5.413
  142OYPE  H16X12938   5.980   0.738   5.404
  142OYPE  H16Y12939   5.848   0.677   5.512
  142OYPE  C31712940   5.852   0.808   5.334
  142OYPE  H17X12941   5.913   0.812   5.240
  142OYPE  H17Y12942   5.873   0.899   5.395
  142OYPE  C31812943   5.709   0.781   5.322
  142OYPE  H18X12944   5.670   0.867   5.266
  142OYPE  H18Y12945   5.700   0.681   5.272
  142OYPE  H18Z12946   5.665   0.773   5.425
  143OYPE     N12947   7.406   2.208   3.611
  143OYPE   HN112948   7.354   2.270   3.676
  143OYPE   HN212949   7.432   2.267   3.530
  143OYPE   HN312950   7.353   2.125   3.577
  143OYPE   C1212951   7.533   2.159   3.673
  143OYPE  H12A12952   7.571   2.079   3.606
  143OYPE  H12B12953   7.512   2.118   3.774
  143OYPE   C1112954   7.628   2.278   3.686
  143OYPE  H11A12955   7.730   2.237   3.706
  143OYPE  H11B12956   7.596   2.337   3.775
  143OYPE     P12957   7.647   2.514   3.557
  143OYPE   O1312958   7.530   2.557   3.478
  143OYPE   O1412959   7.779   2.546   3.500
  143OYPE   O1112960   7.634   2.564   3.705
  143OYPE   O1212961   7.627   2.356   3.568
  143OYPE    C112962   7.754   2.577   3.784
  143OYPE    HA12963   7.833   2.638   3.734
  143OYPE    HB12964   7.795   2.476   3.808
  143OYPE    C212965   7.726   2.647   3.918
  143OYPE    HS12966   7.807   2.616   3.989
  143OYPE   O2112967   7.598   2.612   3.974
  143OYPE   C2112968   7.587   2.488   4.014
  143OYPE   O2212969   7.675   2.405   4.019
  143OYPE   C2212970   7.442   2.457   4.047
  143OYPE   H2R12971   7.435   2.354   4.086
  143OYPE   H2S12972   7.387   2.468   3.951
  143OYPE    C312973   7.731   2.800   3.907
  143OYPE    HX12974   7.681   2.847   3.821
  143OYPE    HY12975   7.839   2.825   3.893
  143OYPE   O3112976   7.676   2.841   4.034
  143OYPE   C3112977   7.587   2.934   4.055
  143OYPE   O3212978   7.544   3.014   3.975
  143OYPE   C3212979   7.548   2.934   4.209
  143OYPE   H2X12980   7.606   2.985   4.280
  143OYPE   H2Y12981   7.498   3.029   4.229
  143OYPE   C2312982   7.379   2.552   4.148
  143OYPE   H3R12983   7.270   2.526   4.145
  143OYPE   H3S12984   7.396   2.657   4.116
  143OYPE   C2412985   7.421   2.542   4.295
  143OYPE   H4R12986   7.374   2.623   4.355
  143OYPE   H4S12987   7.530   2.563   4.301
  143OYPE   C2512988   7.388   2.411   4.362
  143OYPE   H5R12989   7.448   2.329   4.317
  143OYPE   H5S12990   7.280   2.386   4.354
  143OYPE   C2612991   7.426   2.420   4.508
  143OYPE   H6R12992   7.522   2.477   4.516
  143OYPE   H6S12993   7.444   2.316   4.543
  143OYPE   C2712994   7.316   2.487   4.590
  143OYPE   H7R12995   7.223   2.427   4.577
  143OYPE   H7S12996   7.297   2.589   4.549
  143OYPE   C2812997   7.347   2.497   4.739
  143OYPE   H8R12998   7.371   2.395   4.777
  143OYPE   H8S12999   7.253   2.530   4.789
  143OYPE   C2913000   7.460   2.591   4.771
  143OYPE   H9R13001   7.560   2.557   4.740
  143OYPE  C21013002   7.447   2.711   4.831
  143OYPE  H10R13003   7.539   2.769   4.848
  143OYPE  C21113004   7.319   2.776   4.880
  143OYPE  H11R13005   7.253   2.798   4.793
  143OYPE  H11S13006   7.347   2.875   4.922
  143OYPE  C21213007   7.242   2.708   4.996
  143OYPE  H12R13008   7.247   2.597   4.989
  143OYPE  H12S13009   7.134   2.735   4.994
  143OYPE  C21313010   7.301   2.755   5.129
  143OYPE  H13R13011   7.278   2.862   5.145
  143OYPE  H13S13012   7.412   2.739   5.128
  143OYPE  C21413013   7.248   2.687   5.252
  143OYPE  H14R13014   7.136   2.688   5.253
  143OYPE  H14S13015   7.284   2.739   5.344
  143OYPE  C21513016   7.294   2.545   5.263
  143OYPE  H15R13017   7.257   2.484   5.176
  143OYPE  H15S13018   7.246   2.532   5.363
  143OYPE  C21613019   7.432   2.494   5.286
  143OYPE  H16R13020   7.424   2.389   5.325
  143OYPE  H16S13021   7.476   2.559   5.362
  143OYPE  H16T13022   7.485   2.495   5.189
  143OYPE   C3313023   7.601   2.817   4.303
  143OYPE   H3X13024   7.693   2.765   4.266
  143OYPE   H3Y13025   7.516   2.755   4.282
  143OYPE   C3413026   7.633   2.849   4.454
  143OYPE   H4X13027   7.690   2.944   4.472
  143OYPE   H4Y13028   7.535   2.862   4.504
  143OYPE   C3513029   7.719   2.743   4.529
  143OYPE   H5X13030   7.815   2.728   4.474
  143OYPE   H5Y13031   7.664   2.647   4.523
  143OYPE   C3613032   7.754   2.772   4.678
  143OYPE   H6X13033   7.689   2.855   4.715
  143OYPE   H6Y13034   7.732   2.683   4.740
  143OYPE   C3713035   7.903   2.799   4.706
  143OYPE   H7X13036   7.966   2.748   4.631
  143OYPE   H7Y13037   7.915   2.907   4.684
  143OYPE   C3813038   7.967   2.742   4.839
  143OYPE   H8X13039   7.968   2.635   4.844
  143OYPE   H8Y13040   8.071   2.780   4.838
  143OYPE   C3913041   7.910   2.788   4.966
  143OYPE   H9X13042   7.984   2.861   5.001
  143OYPE  C31013043   7.825   2.751   5.059
  143OYPE  H10X13044   7.767   2.825   5.120
  143OYPE  C31113045   7.763   2.623   5.048
  143OYPE  H11X13046   7.654   2.634   5.063
  143OYPE  H11Y13047   7.790   2.576   4.953
  143OYPE  C31213048   7.852   2.579   5.164
  143OYPE  H12X13049   7.962   2.605   5.168
  143OYPE  H12Y13050   7.854   2.469   5.159
  143OYPE  C31313051   7.796   2.632   5.293
  143OYPE  H13X13052   7.841   2.724   5.334
  143OYPE  H13Y13053   7.685   2.647   5.282
  143OYPE  C31413054   7.807   2.534   5.395
  143OYPE  H14X13055   7.907   2.499   5.432
  143OYPE  H14Y13056   7.739   2.453   5.356
  143OYPE  C31513057   7.723   2.591   5.496
  143OYPE  H15X13058   7.625   2.623   5.458
  143OYPE  H15Y13059   7.741   2.671   5.558
  143OYPE  C31613060   7.713   2.496   5.591
  143OYPE  H16X13061   7.790   2.422   5.622
  143OYPE  H16Y13062   7.633   2.456   5.519
  143OYPE  C31713063   7.655   2.562   5.707
  143OYPE  H17X13064   7.702   2.606   5.794
  143OYPE  H17Y13065   7.680   2.476   5.774
  143OYPE  C31813066   7.515   2.628   5.662
  143OYPE  H18X13067   7.520   2.730   5.651
  143OYPE  H18Y13068   7.460   2.584   5.581
  143OYPE  H18Z13069   7.425   2.622   5.724
  144OYPE     N13070   7.217   6.192   3.533
  144OYPE   HN113071   7.300   6.129   3.532
  144OYPE   HN213072   7.132   6.145   3.499
  144OYPE   HN313073   7.242   6.270   3.467
  144OYPE   C1213074   7.202   6.244   3.674
  144OYPE  H12A13075   7.175   6.160   3.741
  144OYPE  H12B13076   7.125   6.323   3.673
  144OYPE   C1113077   7.335   6.298   3.724
  144OYPE  H11A13078   7.417   6.225   3.699
  144OYPE  H11B13079   7.336   6.308   3.834
  144OYPE     P13080   7.458   6.445   3.558
  144OYPE   O1313081   7.472   6.582   3.511
  144OYPE   O1413082   7.447   6.334   3.460
  144OYPE   O1113083   7.577   6.412   3.650
  144OYPE   O1213084   7.348   6.428   3.667
  144OYPE    C113085   7.701   6.441   3.592
  144OYPE    HA13086   7.702   6.477   3.487
  144OYPE    HB13087   7.737   6.338   3.565
  144OYPE    C213088   7.796   6.515   3.703
  144OYPE    HS13089   7.912   6.497   3.706
  144OYPE   O2113090   7.757   6.503   3.840
  144OYPE   C2113091   7.797   6.385   3.853
  144OYPE   O2213092   7.833   6.321   3.755
  144OYPE   C2213093   7.814   6.367   4.000
  144OYPE   H2R13094   7.860   6.458   4.042
  144OYPE   H2S13095   7.878   6.288   4.038
  144OYPE    C313096   7.815   6.650   3.685
  144OYPE    HX13097   7.875   6.689   3.612
  144OYPE    HY13098   7.883   6.671   3.764
  144OYPE   O3113099   7.704   6.721   3.666
  144OYPE   C3113100   7.674   6.759   3.782
  144OYPE   O3213101   7.725   6.742   3.891
  144OYPE   C3213102   7.550   6.806   3.776
  144OYPE   H2X13103   7.570   6.896   3.840
  144OYPE   H2Y13104   7.524   6.830   3.670
  144OYPE   C2313105   7.673   6.337   4.041
  144OYPE   H3R13106   7.660   6.231   4.033
  144OYPE   H3S13107   7.597   6.383   3.974
  144OYPE   C2413108   7.646   6.348   4.188
  144OYPE   H4R13109   7.668   6.454   4.208
  144OYPE   H4S13110   7.719   6.284   4.243
  144OYPE   C2513111   7.498   6.323   4.228
  144OYPE   H5R13112   7.436   6.376   4.154
  144OYPE   H5S13113   7.487   6.353   4.333
  144OYPE   C2613114   7.444   6.182   4.239
  144OYPE   H6R13115   7.447   6.132   4.336
  144OYPE   H6S13116   7.537   6.148   4.204
  144OYPE   C2713117   7.316   6.148   4.159
  144OYPE   H7R13118   7.309   6.048   4.110
  144OYPE   H7S13119   7.312   6.216   4.072
  144OYPE   C2813120   7.200   6.162   4.257
  144OYPE   H8R13121   7.108   6.153   4.197
  144OYPE   H8S13122   7.215   6.266   4.295
  144OYPE   C2913123   7.197   6.061   4.369
  144OYPE   H9R13124   7.193   5.957   4.335
  144OYPE  C21013125   7.202   6.079   4.502
  144OYPE  H10R13126   7.195   5.989   4.565
  144OYPE  C21113127   7.212   6.207   4.579
  144OYPE  H11R13128   7.188   6.294   4.513
  144OYPE  H11S13129   7.313   6.223   4.622
  144OYPE  C21213130   7.104   6.204   4.688
  144OYPE  H12R13131   7.012   6.163   4.643
  144OYPE  H12S13132   7.085   6.309   4.721
  144OYPE  C21313133   7.133   6.124   4.814
  144OYPE  H13R13134   7.154   6.017   4.792
  144OYPE  H13S13135   7.042   6.125   4.878
  144OYPE  C21413136   7.248   6.187   4.892
  144OYPE  H14R13137   7.225   6.294   4.911
  144OYPE  H14S13138   7.340   6.185   4.828
  144OYPE  C21513139   7.276   6.112   5.021
  144OYPE  H15R13140   7.376   6.139   5.060
  144OYPE  H15S13141   7.276   6.004   4.998
  144OYPE  C21613142   7.173   6.126   5.131
  144OYPE  H16R13143   7.162   6.232   5.159
  144OYPE  H16S13144   7.210   6.067   5.219
  144OYPE  H16T13145   7.076   6.083   5.098
  144OYPE   C3313146   7.470   6.696   3.843
  144OYPE   H3X13147   7.525   6.600   3.862
  144OYPE   H3Y13148   7.392   6.672   3.768
  144OYPE   C3413149   7.415   6.746   3.976
  144OYPE   H4X13150   7.365   6.844   3.959
  144OYPE   H4Y13151   7.341   6.672   4.013
  144OYPE   C3513152   7.524   6.762   4.083
  144OYPE   H5X13153   7.592   6.846   4.055
  144OYPE   H5Y13154   7.582   6.668   4.085
  144OYPE   C3613155   7.472   6.781   4.225
  144OYPE   H6X13156   7.419   6.878   4.227
  144OYPE   H6Y13157   7.396   6.705   4.247
  144OYPE   C3713158   7.588   6.771   4.326
  144OYPE   H7X13159   7.646   6.677   4.311
  144OYPE   H7Y13160   7.660   6.855   4.314
  144OYPE   C3813161   7.551   6.774   4.472
  144OYPE   H8X13162   7.490   6.859   4.488
  144OYPE   H8Y13163   7.486   6.689   4.498
  144OYPE   C3913164   7.667   6.801   4.561
  144OYPE   H9X13165   7.701   6.907   4.561
  144OYPE  C31013166   7.733   6.709   4.630
  144OYPE  H10X13167   7.824   6.740   4.685
  144OYPE  C31113168   7.701   6.562   4.628
  144OYPE  H11X13169   7.631   6.539   4.544
  144OYPE  H11Y13170   7.793   6.504   4.608
  144OYPE  C31213171   7.632   6.510   4.755
  144OYPE  H12X13172   7.607   6.403   4.735
  144OYPE  H12Y13173   7.537   6.564   4.776
  144OYPE  C31313174   7.720   6.513   4.880
  144OYPE  H13X13175   7.827   6.502   4.851
  144OYPE  H13Y13176   7.710   6.613   4.928
  144OYPE  C31413177   7.686   6.395   4.974
  144OYPE  H14X13178   7.758   6.390   5.058
  144OYPE  H14Y13179   7.709   6.302   4.919
  144OYPE  C31513180   7.540   6.389   5.028
  144OYPE  H15X13181   7.533   6.292   5.083
  144OYPE  H15Y13182   7.465   6.394   4.947
  144OYPE  C31613183   7.498   6.494   5.129
  144OYPE  H16X13184   7.533   6.596   5.099
  144OYPE  H16Y13185   7.545   6.457   5.222
  144OYPE  C31713186   7.355   6.501   5.180
  144OYPE  H17X13187   7.329   6.397   5.211
  144OYPE  H17Y13188   7.290   6.546   5.104
  144OYPE  C31813189   7.340   6.581   5.306
  144OYPE  H18X13190   7.241   6.579   5.353
  144OYPE  H18Y13191   7.415   6.532   5.371
  144OYPE  H18Z13192   7.371   6.687   5.296
  145PYPG   C1313193   3.421   3.702   7.627
  145PYPG  H13A13194   3.424   3.621   7.551
  145PYPG  H13B13195   3.487   3.670   7.712
  145PYPG   OC313196   3.292   3.732   7.670
  145PYPG   HO313197   3.317   3.818   7.710
  145PYPG   C1213198   3.471   3.833   7.564
  145PYPG  H12A13199   3.573   3.823   7.533
  145PYPG   OC213200   3.477   3.941   7.651
  145PYPG   HO213201   3.547   3.993   7.607
  145PYPG   C1113202   3.408   3.873   7.436
  145PYPG  H11A13203   3.307   3.911   7.452
  145PYPG  H11B13204   3.395   3.786   7.371
  145PYPG     P13205   3.514   3.963   7.224
  145PYPG   O1313206   3.610   4.069   7.216
  145PYPG   O1413207   3.383   3.968   7.161
  145PYPG   O1113208   3.582   3.834   7.166
  145PYPG   O1213209   3.495   3.965   7.378
  145PYPG    C113210   3.723   3.823   7.178
  145PYPG    HA13211   3.765   3.745   7.243
  145PYPG    HB13212   3.748   3.854   7.276
  145PYPG    C213213   3.788   3.731   7.080
  145PYPG    HS13214   3.877   3.678   7.121
  145PYPG   O2113215   3.811   3.832   6.989
  145PYPG   C2113216   3.917   3.819   6.929
  145PYPG   O2213217   4.009   3.740   6.948
  145PYPG   C2213218   3.896   3.915   6.820
  145PYPG   H2R13219   3.912   4.020   6.853
  145PYPG   H2S13220   3.796   3.906   6.775
  145PYPG    C313221   3.721   3.607   7.023
  145PYPG    HX13222   3.713   3.531   7.102
  145PYPG    HY13223   3.795   3.566   6.950
  145PYPG   O3113224   3.590   3.632   6.970
  145PYPG   C3113225   3.595   3.657   6.842
  145PYPG   O3213226   3.696   3.661   6.773
  145PYPG   C3213227   3.454   3.668   6.792
  145PYPG   H2X13228   3.395   3.578   6.815
  145PYPG   H2Y13229   3.401   3.737   6.858
  145PYPG   C2313230   3.995   3.875   6.720
  145PYPG   H3R13231   4.012   3.775   6.681
  145PYPG   H3S13232   4.090   3.886   6.781
  145PYPG   C2413233   3.975   3.975   6.610
  145PYPG   H4R13234   4.073   3.949   6.562
  145PYPG   H4S13235   3.955   4.076   6.653
  145PYPG   C2513236   3.908   3.986   6.482
  145PYPG   H5R13237   3.943   4.063   6.409
  145PYPG   H5S13238   3.813   4.025   6.518
  145PYPG   C2613239   3.950   3.870   6.404
  145PYPG   H6R13240   3.928   3.783   6.469
  145PYPG   H6S13241   4.061   3.873   6.382
  145PYPG   C2713242   3.870   3.887   6.280
  145PYPG   H7R13243   3.881   3.989   6.235
  145PYPG   H7S13244   3.765   3.876   6.315
  145PYPG   C2813245   3.905   3.780   6.182
  145PYPG   H8R13246   3.818   3.781   6.113
  145PYPG   H8S13247   3.905   3.685   6.240
  145PYPG   C2913248   4.037   3.799   6.112
  145PYPG   H9R13249   4.086   3.897   6.126
  145PYPG  C21013250   4.091   3.711   6.026
  145PYPG  H10R13251   4.194   3.729   5.992
  145PYPG  C21113252   4.034   3.578   5.980
  145PYPG  H11R13253   4.035   3.503   6.062
  145PYPG  H11S13254   4.098   3.537   5.899
  145PYPG  C21213255   3.890   3.584   5.923
  145PYPG  H12R13256   3.819   3.599   6.007
  145PYPG  H12S13257   3.866   3.487   5.876
  145PYPG  C21313258   3.869   3.698   5.823
  145PYPG  H13R13259   3.958   3.710   5.758
  145PYPG  H13S13260   3.862   3.791   5.885
  145PYPG  C21413261   3.744   3.687   5.732
  145PYPG  H14R13262   3.779   3.699   5.627
  145PYPG  H14S13263   3.695   3.587   5.738
  145PYPG  C21513264   3.640   3.797   5.759
  145PYPG  H15R13265   3.698   3.892   5.764
  145PYPG  H15S13266   3.592   3.781   5.858
  145PYPG  C21613267   3.537   3.810   5.647
  145PYPG  H16R13268   3.592   3.829   5.552
  145PYPG  H16S13269   3.467   3.896   5.662
  145PYPG  H16T13270   3.476   3.718   5.634
  145PYPG   C3313271   3.453   3.710   6.642
  145PYPG   H3X13272   3.344   3.727   6.629
  145PYPG   H3Y13273   3.473   3.625   6.576
  145PYPG   C3413274   3.548   3.829   6.595
  145PYPG   H4X13275   3.655   3.812   6.608
  145PYPG   H4Y13276   3.537   3.921   6.653
  145PYPG   C3513277   3.521   3.889   6.455
  145PYPG   H5X13278   3.416   3.868   6.454
  145PYPG   H5Y13279   3.543   3.816   6.375
  145PYPG   C3613280   3.567   4.045   6.437
  145PYPG   H6X13281   3.672   4.042   6.411
  145PYPG   H6Y13282   3.547   4.108   6.523
  145PYPG   C3713283   3.543   4.127   6.308
  145PYPG   H7X13284   3.507   4.028   6.292
  145PYPG   H7Y13285   3.450   4.170   6.286
  145PYPG   C3813286   3.497   4.273   6.269
  145PYPG   H8X13287   3.471   4.328   6.364
  145PYPG   H8Y13288   3.423   4.314   6.187
  145PYPG   C3913289   3.623   4.275   6.191
  145PYPG   H9X13290   3.706   4.251   6.261
  145PYPG   H9Y13291   3.613   4.375   6.149
  145PYPG  C31013292   3.635   4.183   6.072
  145PYPG  H10X13293   3.540   4.196   6.026
  145PYPG  H10Y13294   3.648   4.075   6.090
  145PYPG  C31113295   3.734   4.236   5.973
  145PYPG  H11X13296   3.743   4.160   5.892
  145PYPG  H11Y13297   3.830   4.244   6.029
  145PYPG  C31213298   3.691   4.368   5.907
  145PYPG  H12X13299   3.598   4.357   5.851
  145PYPG  H12Y13300   3.657   4.449   5.972
  145PYPG  C31313301   3.804   4.417   5.821
  145PYPG  H13X13302   3.805   4.527   5.813
  145PYPG  H13Y13303   3.901   4.384   5.865
  145PYPG  C31413304   3.788   4.351   5.688
  145PYPG  H14X13305   3.783   4.240   5.699
  145PYPG  H14Y13306   3.695   4.384   5.635
  145PYPG  C31513307   3.908   4.372   5.606
  145PYPG  H15X13308   3.918   4.477   5.578
  145PYPG  H15Y13309   4.005   4.346   5.655
  145PYPG  C31613310   3.888   4.291   5.484
  145PYPG  H16X13311   3.796   4.323   5.429
  145PYPG  H16Y13312   3.896   4.183   5.485
  145PYPG  H16Z13313   3.982   4.319   5.437
  146PYPG   C1313314   3.412   5.827   7.581
  146PYPG  H13A13315   3.513   5.802   7.541
  146PYPG  H13B13316   3.406   5.791   7.686
  146PYPG   OC313317   3.322   5.761   7.493
  146PYPG   HO313318   3.296   5.834   7.434
  146PYPG   C1213319   3.396   5.981   7.574
  146PYPG  H12A13320   3.458   6.028   7.653
  146PYPG   OC213321   3.264   6.027   7.601
  146PYPG   HO213322   3.252   6.110   7.550
  146PYPG   C1113323   3.448   6.027   7.438
  146PYPG  H11A13324   3.542   5.975   7.413
  146PYPG  H11B13325   3.479   6.133   7.450
  146PYPG     P13326   3.290   6.114   7.250
  146PYPG   O1313327   3.223   6.199   7.351
  146PYPG   O1413328   3.224   6.077   7.124
  146PYPG   O1113329   3.434   6.164   7.215
  146PYPG   O1213330   3.352   5.998   7.334
  146PYPG    C113331   3.534   6.086   7.155
  146PYPG    HA13332   3.505   5.993   7.105
  146PYPG    HB13333   3.636   6.102   7.205
  146PYPG    C213334   3.551   6.163   7.038
  146PYPG    HS13335   3.612   6.238   7.074
  146PYPG   O2113336   3.411   6.203   6.979
  146PYPG   C2113337   3.334   6.329   6.972
  146PYPG   O2213338   3.361   6.442   6.997
  146PYPG   C2213339   3.251   6.336   6.855
  146PYPG   H2R13340   3.212   6.238   6.827
  146PYPG   H2S13341   3.323   6.361   6.784
  146PYPG    C313342   3.657   6.101   6.920
  146PYPG    HX13343   3.751   6.069   6.970
  146PYPG    HY13344   3.714   6.179   6.861
  146PYPG   O3113345   3.602   6.007   6.827
  146PYPG   C3113346   3.548   6.034   6.708
  146PYPG   O3213347   3.576   6.117   6.627
  146PYPG   C3213348   3.462   5.919   6.666
  146PYPG   H2X13349   3.511   5.883   6.573
  146PYPG   H2Y13350   3.470   5.845   6.747
  146PYPG   C2313351   3.209   6.480   6.801
  146PYPG   H3R13352   3.136   6.533   6.860
  146PYPG   H3S13353   3.182   6.445   6.699
  146PYPG   C2413354   3.254   6.573   6.692
  146PYPG   H4R13355   3.358   6.593   6.713
  146PYPG   H4S13356   3.197   6.656   6.730
  146PYPG   C2513357   3.186   6.608   6.556
  146PYPG   H5R13358   3.192   6.713   6.549
  146PYPG   H5S13359   3.077   6.602   6.555
  146PYPG   C2613360   3.265   6.564   6.437
  146PYPG   H6R13361   3.231   6.468   6.418
  146PYPG   H6S13362   3.366   6.577   6.463
  146PYPG   C2713363   3.280   6.614   6.296
  146PYPG   H7R13364   3.341   6.699   6.329
  146PYPG   H7S13365   3.175   6.630   6.261
  146PYPG   C2813366   3.380   6.581   6.187
  146PYPG   H8R13367   3.480   6.559   6.209
  146PYPG   H8S13368   3.417   6.643   6.109
  146PYPG   C2913369   3.301   6.509   6.096
  146PYPG   H9R13370   3.212   6.487   6.148
  146PYPG  C21013371   3.313   6.481   5.970
  146PYPG  H10R13372   3.306   6.381   5.929
  146PYPG  C21113373   3.408   6.518   5.884
  146PYPG  H11R13374   3.435   6.614   5.914
  146PYPG  H11S13375   3.328   6.547   5.823
  146PYPG  C21213376   3.500   6.416   5.827
  146PYPG  H12R13377   3.475   6.307   5.821
  146PYPG  H12S13378   3.576   6.428   5.900
  146PYPG  C21313379   3.577   6.474   5.714
  146PYPG  H13R13380   3.678   6.431   5.713
  146PYPG  H13S13381   3.597   6.577   5.743
  146PYPG  C21413382   3.498   6.462   5.589
  146PYPG  H14R13383   3.404   6.509   5.601
  146PYPG  H14S13384   3.541   6.522   5.509
  146PYPG  C21513385   3.479   6.319   5.553
  146PYPG  H15R13386   3.451   6.247   5.631
  146PYPG  H15S13387   3.587   6.303   5.533
  146PYPG  C21613388   3.386   6.294   5.434
  146PYPG  H16R13389   3.407   6.367   5.355
  146PYPG  H16S13390   3.282   6.284   5.448
  146PYPG  H16T13391   3.381   6.189   5.402
  146PYPG   C3313392   3.315   5.952   6.630
  146PYPG   H3X13393   3.269   6.018   6.708
  146PYPG   H3Y13394   3.262   5.855   6.627
  146PYPG   C3413395   3.294   5.988   6.481
  146PYPG   H4X13396   3.326   5.921   6.405
  146PYPG   H4Y13397   3.389   6.034   6.448
  146PYPG   C3513398   3.141   5.979   6.425
  146PYPG   H5X13399   3.117   6.041   6.512
  146PYPG   H5Y13400   3.079   5.905   6.471
  146PYPG   C3613401   3.075   6.012   6.272
  146PYPG   H6X13402   3.131   5.941   6.214
  146PYPG   H6Y13403   3.111   6.038   6.170
  146PYPG   C3713404   2.957   6.129   6.258
  146PYPG   H7X13405   2.952   6.042   6.309
  146PYPG   H7Y13406   2.894   6.177   6.336
  146PYPG   C3813407   2.901   6.200   6.141
  146PYPG   H8X13408   2.958   6.299   6.143
  146PYPG   H8Y13409   2.798   6.236   6.143
  146PYPG   C3913410   2.918   6.097   6.034
  146PYPG   H9X13411   2.946   5.992   6.044
  146PYPG   H9Y13412   3.013   6.137   6.046
  146PYPG  C31013413   2.864   6.124   5.899
  146PYPG  H10X13414   2.901   6.221   5.888
  146PYPG  H10Y13415   2.760   6.154   5.916
  146PYPG  C31113416   2.913   6.043   5.775
  146PYPG  H11X13417   2.900   5.938   5.801
  146PYPG  H11Y13418   3.019   6.041   5.744
  146PYPG  C31213419   2.853   6.086   5.641
  146PYPG  H12X13420   2.860   6.017   5.556
  146PYPG  H12Y13421   2.749   6.120   5.658
  146PYPG  C31313422   2.946   6.186   5.580
  146PYPG  H13X13423   2.937   6.276   5.637
  146PYPG  H13Y13424   3.044   6.188   5.620
  146PYPG  C31413425   2.927   6.208   5.426
  146PYPG  H14X13426   2.827   6.187   5.381
  146PYPG  H14Y13427   2.943   6.314   5.396
  146PYPG  C31513428   3.025   6.211   5.330
  146PYPG  H15X13429   2.962   6.226   5.241
  146PYPG  H15Y13430   3.128   6.251   5.343
  146PYPG  C31613431   3.044   6.087   5.329
  146PYPG  H16X13432   2.951   6.027   5.326
  146PYPG  H16Y13433   3.090   6.076   5.433
  146PYPG  H16Z13434   3.118   6.064   5.250
  147PYPG   C1313435   6.295   3.921   7.564
  147PYPG  H13A13436   6.362   3.872   7.490
  147PYPG  H13B13437   6.354   3.996   7.622
  147PYPG   OC313438   6.246   3.823   7.656
  147PYPG   HO313439   6.224   3.878   7.734
  147PYPG   C1213440   6.181   3.994   7.489
  147PYPG  H12A13441   6.226   4.069   7.420
  147PYPG   OC213442   6.096   4.067   7.578
  147PYPG   HO213443   6.015   4.072   7.525
  147PYPG   C1113444   6.095   3.901   7.401
  147PYPG  H11A13445   6.056   3.816   7.461
  147PYPG  H11B13446   6.160   3.857   7.322
  147PYPG     P13447   5.883   3.895   7.255
  147PYPG   O1313448   5.776   3.842   7.342
  147PYPG   O1413449   5.955   3.799   7.169
  147PYPG   O1113450   5.823   4.013   7.168
  147PYPG   O1213451   5.987   3.977   7.344
  147PYPG    C113452   5.754   4.120   7.232
  147PYPG    HA13453   5.775   4.130   7.341
  147PYPG    HB13454   5.645   4.099   7.225
  147PYPG    C213455   5.787   4.255   7.161
  147PYPG    HS13456   5.720   4.334   7.203
  147PYPG   O2113457   5.759   4.241   7.023
  147PYPG   C2113458   5.633   4.216   7.000
  147PYPG   O2213459   5.538   4.241   7.074
  147PYPG   C2213460   5.625   4.177   6.856
  147PYPG   H2R13461   5.522   4.151   6.824
  147PYPG   H2S13462   5.703   4.104   6.829
  147PYPG    C313463   5.934   4.304   7.178
  147PYPG    HX13464   5.945   4.324   7.286
  147PYPG    HY13465   5.948   4.402   7.126
  147PYPG   O3113466   6.035   4.207   7.148
  147PYPG   C3113467   6.097   4.214   7.032
  147PYPG   O3213468   6.080   4.299   6.945
  147PYPG   C3213469   6.204   4.107   7.028
  147PYPG   H2X13470   6.302   4.153   7.049
  147PYPG   H2Y13471   6.182   4.029   7.105
  147PYPG   C2313472   5.664   4.298   6.779
  147PYPG   H3R13473   5.762   4.349   6.789
  147PYPG   H3S13474   5.595   4.366   6.834
  147PYPG   C2413475   5.642   4.268   6.630
  147PYPG   H4R13476   5.674   4.356   6.574
  147PYPG   H4S13477   5.538   4.240   6.601
  147PYPG   C2513478   5.742   4.183   6.572
  147PYPG   H5R13479   5.710   4.084   6.608
  147PYPG   H5S13480   5.838   4.219   6.616
  147PYPG   C2613481   5.745   4.191   6.420
  147PYPG   H6R13482   5.768   4.294   6.382
  147PYPG   H6S13483   5.646   4.161   6.379
  147PYPG   C2713484   5.853   4.090   6.385
  147PYPG   H7R13485   5.804   3.991   6.397
  147PYPG   H7S13486   5.932   4.095   6.463
  147PYPG   C2813487   5.918   4.105   6.249
  147PYPG   H8R13488   5.993   4.023   6.240
  147PYPG   H8S13489   5.975   4.201   6.247
  147PYPG   C2913490   5.813   4.094   6.142
  147PYPG   H9R13491   5.745   4.009   6.151
  147PYPG  C21013492   5.789   4.181   6.044
  147PYPG  H10R13493   5.701   4.170   5.980
  147PYPG  C21113494   5.863   4.307   6.020
  147PYPG  H11R13495   5.937   4.330   6.099
  147PYPG  H11S13496   5.781   4.379   6.028
  147PYPG  C21213497   5.928   4.317   5.880
  147PYPG  H12R13498   5.978   4.225   5.849
  147PYPG  H12S13499   6.009   4.394   5.887
  147PYPG  C21313500   5.828   4.351   5.767
  147PYPG  H13R13501   5.761   4.431   5.798
  147PYPG  H13S13502   5.749   4.278   5.754
  147PYPG  C21413503   5.902   4.397   5.639
  147PYPG  H14R13504   5.965   4.470   5.694
  147PYPG  H14S13505   5.996   4.344   5.614
  147PYPG  C21513506   5.806   4.440   5.507
  147PYPG  H15R13507   5.736   4.360   5.531
  147PYPG  H15S13508   5.879   4.422   5.426
  147PYPG  C21613509   5.687   4.551   5.458
  147PYPG  H16R13510   5.699   4.660   5.474
  147PYPG  H16S13511   5.607   4.572   5.531
  147PYPG  H16T13512   5.703   4.607   5.363
  147PYPG   C3313513   6.196   4.039   6.894
  147PYPG   H3X13514   6.287   3.979   6.871
  147PYPG   H3Y13515   6.181   4.107   6.806
  147PYPG   C3413516   6.069   3.956   6.908
  147PYPG   H4X13517   5.974   4.011   6.904
  147PYPG   H4Y13518   6.073   3.880   6.990
  147PYPG   C3513519   6.059   3.886   6.785
  147PYPG   H5X13520   6.142   3.811   6.815
  147PYPG   H5Y13521   6.120   3.942   6.712
  147PYPG   C3613522   5.907   3.840   6.725
  147PYPG   H6X13523   5.833   3.914   6.716
  147PYPG   H6Y13524   5.889   3.788   6.822
  147PYPG   C3713525   5.866   3.763   6.576
  147PYPG   H7X13526   5.919   3.820   6.502
  147PYPG   H7Y13527   5.912   3.666   6.553
  147PYPG   C3813528   5.779   3.644   6.514
  147PYPG   H8X13529   5.702   3.589   6.567
  147PYPG   H8Y13530   5.819   3.542   6.477
  147PYPG   C3913531   5.739   3.732   6.411
  147PYPG   H9X13532   5.817   3.788   6.353
  147PYPG   H9Y13533   5.692   3.811   6.472
  147PYPG  C31013534   5.664   3.646   6.325
  147PYPG  H10X13535   5.605   3.579   6.389
  147PYPG  H10Y13536   5.722   3.582   6.258
  147PYPG  C31113537   5.593   3.747   6.250
  147PYPG  H11X13538   5.664   3.821   6.206
  147PYPG  H11Y13539   5.529   3.796   6.327
  147PYPG  C31213540   5.520   3.675   6.145
  147PYPG  H12X13541   5.584   3.636   6.063
  147PYPG  H12Y13542   5.467   3.588   6.190
  147PYPG  C31313543   5.423   3.772   6.094
  147PYPG  H13X13544   5.360   3.710   6.031
  147PYPG  H13Y13545   5.366   3.822   6.177
  147PYPG  C31413546   5.479   3.872   5.998
  147PYPG  H14X13547   5.381   3.901   5.960
  147PYPG  H14Y13548   5.533   3.954   6.049
  147PYPG  C31513549   5.558   3.815   5.884
  147PYPG  H15X13550   5.658   3.793   5.927
  147PYPG  H15Y13551   5.508   3.722   5.847
  147PYPG  C31613552   5.577   3.912   5.769
  147PYPG  H16X13553   5.484   3.911   5.711
  147PYPG  H16Y13554   5.657   3.876   5.703
  147PYPG  H16Z13555   5.602   4.016   5.798
  148PYPG   C1313556   4.947   1.955   7.427
  148PYPG  H13A13557   4.898   1.858   7.449
  148PYPG  H13B13558   5.008   1.987   7.514
  148PYPG   OC313559   4.845   2.051   7.400
  148PYPG   HO313560   4.823   2.104   7.477
  148PYPG   C1213561   5.044   1.930   7.307
  148PYPG  H12A13562   5.113   2.017   7.298
  148PYPG   OC213563   4.976   1.914   7.185
  148PYPG   HO213564   5.040   1.902   7.115
  148PYPG   C1113565   5.119   1.797   7.317
  148PYPG  H11A13566   5.200   1.801   7.239
  148PYPG  H11B13567   5.051   1.713   7.288
  148PYPG     P13568   5.318   1.772   7.477
  148PYPG   O1313569   5.375   1.648   7.422
  148PYPG   O1413570   5.347   1.806   7.617
  148PYPG   O1113571   5.368   1.891   7.387
  148PYPG   O1213572   5.162   1.774   7.451
  148PYPG    C113573   5.506   1.925   7.406
  148PYPG    HA13574   5.569   1.837   7.438
  148PYPG    HB13575   5.516   2.006   7.480
  148PYPG    C213576   5.575   1.967   7.277
  148PYPG    HS13577   5.661   2.031   7.307
  148PYPG   O2113578   5.492   2.041   7.186
  148PYPG   C2113579   5.444   2.160   7.215
  148PYPG   O2213580   5.438   2.215   7.323
  148PYPG   C2213581   5.380   2.222   7.089
  148PYPG   H2R13582   5.453   2.290   7.040
  148PYPG   H2S13583   5.292   2.282   7.122
  148PYPG    C313584   5.628   1.833   7.208
  148PYPG    HX13585   5.697   1.785   7.280
  148PYPG    HY13586   5.703   1.852   7.134
  148PYPG   O3113587   5.534   1.730   7.163
  148PYPG   C3113588   5.457   1.760   7.060
  148PYPG   O3213589   5.449   1.866   7.006
  148PYPG   C3213590   5.360   1.667   6.995
  148PYPG   H2X13591   5.380   1.563   7.024
  148PYPG   H2Y13592   5.268   1.712   7.039
  148PYPG   C2313593   5.329   2.120   6.986
  148PYPG   H3R13594   5.283   2.033   7.038
  148PYPG   H3S13595   5.418   2.080   6.934
  148PYPG   C2413596   5.227   2.185   6.890
  148PYPG   H4R13597   5.150   2.237   6.948
  148PYPG   H4S13598   5.174   2.103   6.837
  148PYPG   C2513599   5.282   2.290   6.792
  148PYPG   H5R13600   5.327   2.379   6.843
  148PYPG   H5S13601   5.209   2.321   6.714
  148PYPG   C2613602   5.391   2.227   6.715
  148PYPG   H6R13603   5.471   2.229   6.793
  148PYPG   H6S13604   5.427   2.299   6.636
  148PYPG   C2713605   5.336   2.087   6.663
  148PYPG   H7R13606   5.273   2.107   6.573
  148PYPG   H7S13607   5.300   2.020   6.743
  148PYPG   C2813608   5.411   1.949   6.644
  148PYPG   H8R13609   5.513   1.931   6.659
  148PYPG   H8S13610   5.435   2.044   6.613
  148PYPG   C2913611   5.401   1.846   6.536
  148PYPG   H9R13612   5.504   1.794   6.540
  148PYPG  C21013613   5.375   1.853   6.403
  148PYPG  H10R13614   5.390   1.746   6.377
  148PYPG  C21113615   5.343   1.956   6.277
  148PYPG  H11R13616   5.359   2.063   6.297
  148PYPG  H11S13617   5.244   1.934   6.235
  148PYPG  C21213618   5.406   1.970   6.123
  148PYPG  H12R13619   5.379   1.874   6.082
  148PYPG  H12S13620   5.513   1.981   6.102
  148PYPG  C21313621   5.405   2.084   6.019
  148PYPG  H13R13622   5.423   2.178   6.075
  148PYPG  H13S13623   5.307   2.069   5.974
  148PYPG  C21413624   5.517   2.086   5.904
  148PYPG  H14R13625   5.496   2.177   5.849
  148PYPG  H14S13626   5.614   2.090   5.949
  148PYPG  C21513627   5.532   1.984   5.790
  148PYPG  H15R13628   5.610   1.909   5.811
  148PYPG  H15S13629   5.595   2.009   5.705
  148PYPG  C21613630   5.395   1.935   5.746
  148PYPG  H16R13631   5.341   1.890   5.832
  148PYPG  H16S13632   5.405   1.852   5.672
  148PYPG  H16T13633   5.339   2.019   5.704
  148PYPG   C3313634   5.353   1.692   6.838
  148PYPG   H3X13635   5.453   1.693   6.790
  148PYPG   H3Y13636   5.306   1.791   6.815
  148PYPG   C3413637   5.266   1.588   6.772
  148PYPG   H4X13638   5.177   1.599   6.838
  148PYPG   H4Y13639   5.314   1.488   6.777
  148PYPG   C3513640   5.203   1.610   6.634
  148PYPG   H5X13641   5.142   1.519   6.613
  148PYPG   H5Y13642   5.279   1.607   6.555
  148PYPG   C3613643   5.116   1.738   6.630
  148PYPG   H6X13644   5.179   1.826   6.650
  148PYPG   H6Y13645   5.040   1.742   6.712
  148PYPG   C3713646   5.049   1.756   6.494
  148PYPG   H7X13647   5.127   1.751   6.416
  148PYPG   H7Y13648   4.971   1.684   6.476
  148PYPG   C3813649   4.970   1.884   6.482
  148PYPG   H8X13650   4.903   1.886   6.569
  148PYPG   H8Y13651   4.904   1.883   6.392
  148PYPG   C3913652   5.070   1.995   6.482
  148PYPG   H9X13653   5.158   1.967   6.424
  148PYPG   H9Y13654   5.100   2.018   6.585
  148PYPG  C31013655   5.023   2.118   6.419
  148PYPG  H10X13656   4.979   2.183   6.500
  148PYPG  H10Y13657   4.953   2.099   6.332
  148PYPG  C31113658   5.127   2.208   6.375
  148PYPG  H11X13659   5.203   2.162   6.310
  148PYPG  H11Y13660   5.175   2.265   6.460
  148PYPG  C31213661   5.048   2.297   6.292
  148PYPG  H12X13662   4.996   2.262   6.201
  148PYPG  H12Y13663   4.976   2.348   6.361
  148PYPG  C31313664   5.155   2.374   6.237
  148PYPG  H13X13665   5.145   2.452   6.311
  148PYPG  H13Y13666   5.257   2.349   6.267
  148PYPG  C31413667   5.127   2.426   6.097
  148PYPG  H14X13668   5.047   2.471   6.143
  148PYPG  H14Y13669   5.153   2.523   6.051
  148PYPG  C31513670   5.139   2.348   5.975
  148PYPG  H15X13671   5.237   2.306   5.970
  148PYPG  H15Y13672   5.080   2.261   5.999
  148PYPG  C31613673   5.121   2.420   5.840
  148PYPG  H16X13674   5.149   2.335   5.775
  148PYPG  H16Y13675   5.176   2.507   5.805
  148PYPG  H16Z13676   5.026   2.466   5.814
  149PYPG   C1313677   3.382   1.791   7.628
  149PYPG  H13A13678   3.403   1.734   7.722
  149PYPG  H13B13679   3.430   1.891   7.637
  149PYPG   OC313680   3.239   1.804   7.610
  149PYPG   HO313681   3.214   1.873   7.671
  149PYPG   C1213682   3.449   1.710   7.515
  149PYPG  H12A13683   3.555   1.693   7.537
  149PYPG   OC213684   3.455   1.783   7.393
  149PYPG   HO213685   3.460   1.710   7.327
  149PYPG   C1113686   3.385   1.570   7.503
  149PYPG  H11A13687   3.274   1.577   7.508
  149PYPG  H11B13688   3.412   1.508   7.591
  149PYPG     P13689   3.331   1.498   7.264
  149PYPG   O1313690   3.324   1.629   7.195
  149PYPG   O1413691   3.206   1.428   7.299
  149PYPG   O1113692   3.414   1.406   7.182
  149PYPG   O1213693   3.431   1.508   7.386
  149PYPG    C113694   3.514   1.316   7.235
  149PYPG    HA13695   3.474   1.248   7.312
  149PYPG    HB13696   3.605   1.370   7.271
  149PYPG    C213697   3.563   1.236   7.121
  149PYPG    HS13698   3.666   1.194   7.139
  149PYPG   O2113699   3.542   1.336   7.014
  149PYPG   C2113700   3.594   1.468   6.977
  149PYPG   O2213701   3.651   1.526   7.068
  149PYPG   C2213702   3.629   1.497   6.788
  149PYPG   H2R13703   3.703   1.576   6.778
  149PYPG   H2S13704   3.531   1.512   6.750
  149PYPG    C313705   3.477   1.105   7.100
  149PYPG    HX13706   3.480   1.042   7.193
  149PYPG    HY13707   3.510   1.035   7.017
  149PYPG   O3113708   3.346   1.161   7.087
  149PYPG   C3113709   3.298   1.157   6.967
  149PYPG   O3213710   3.313   1.059   6.896
  149PYPG   C3213711   3.209   1.280   6.932
  149PYPG   H2X13712   3.112   1.243   6.974
  149PYPG   H2Y13713   3.245   1.368   6.988
  149PYPG   C2313714   3.727   1.405   6.658
  149PYPG   H3R13715   3.672   1.320   6.610
  149PYPG   H3S13716   3.812   1.338   6.692
  149PYPG   C2413717   3.802   1.435   6.535
  149PYPG   H4R13718   3.900   1.468   6.578
  149PYPG   H4S13719   3.726   1.503   6.496
  149PYPG   C2513720   3.833   1.307   6.449
  149PYPG   H5R13721   3.876   1.219   6.504
  149PYPG   H5S13722   3.909   1.340   6.376
  149PYPG   C2613723   3.718   1.253   6.365
  149PYPG   H6R13724   3.658   1.334   6.320
  149PYPG   H6S13725   3.649   1.200   6.430
  149PYPG   C2713726   3.769   1.153   6.262
  149PYPG   H7R13727   3.685   1.088   6.248
  149PYPG   H7S13728   3.851   1.092   6.304
  149PYPG   C2813729   3.806   1.214   6.127
  149PYPG   H8R13730   3.859   1.142   6.062
  149PYPG   H8S13731   3.874   1.296   6.154
  149PYPG   C2913732   3.685   1.266   6.056
  149PYPG   H9R13733   3.612   1.193   6.027
  149PYPG  C21013734   3.661   1.391   6.019
  149PYPG  H10R13735   3.564   1.413   5.972
  149PYPG  C21113736   3.757   1.503   6.044
  149PYPG  H11R13737   3.801   1.498   6.147
  149PYPG  H11S13738   3.705   1.601   6.038
  149PYPG  C21213739   3.876   1.501   5.947
  149PYPG  H12R13740   3.926   1.402   5.944
  149PYPG  H12S13741   3.949   1.577   5.983
  149PYPG  C21313742   3.837   1.540   5.806
  149PYPG  H13R13743   3.793   1.641   5.812
  149PYPG  H13S13744   3.762   1.472   5.760
  149PYPG  C21413745   3.962   1.546   5.721
  149PYPG  H14R13746   4.041   1.604   5.775
  149PYPG  H14S13747   4.002   1.445   5.700
  149PYPG  C21513748   3.939   1.618   5.592
  149PYPG  H15R13749   3.890   1.715   5.610
  149PYPG  H15S13750   3.868   1.571   5.521
  149PYPG  C21613751   4.075   1.645   5.536
  149PYPG  H16R13752   4.092   1.679   5.437
  149PYPG  H16S13753   4.130   1.554   5.506
  149PYPG  H16T13754   4.121   1.740   5.573
  149PYPG   C3313755   3.180   1.326   6.784
  149PYPG   H3X13756   3.077   1.369   6.778
  149PYPG   H3Y13757   3.186   1.244   6.712
  149PYPG   C3413758   3.281   1.426   6.730
  149PYPG   H4X13759   3.369   1.367   6.711
  149PYPG   H4Y13760   3.313   1.497   6.808
  149PYPG   C3513761   3.250   1.490   6.594
  149PYPG   H5X13762   3.179   1.573   6.613
  149PYPG   H5Y13763   3.201   1.417   6.525
  149PYPG   C3613764   3.375   1.547   6.523
  149PYPG   H6X13765   3.439   1.466   6.482
  149PYPG   H6Y13766   3.436   1.605   6.595
  149PYPG   C3713767   3.337   1.641   6.406
  149PYPG   H7X13768   3.270   1.584   6.339
  149PYPG   H7Y13769   3.281   1.729   6.445
  149PYPG   C3813770   3.462   1.692   6.334
  149PYPG   H8X13771   3.534   1.608   6.321
  149PYPG   H8Y13772   3.509   1.771   6.397
  149PYPG   C3913773   3.443   1.755   6.196
  149PYPG   H9X13774   3.543   1.750   6.148
  149PYPG   H9Y13775   3.410   1.861   6.202
  149PYPG  C31013776   3.353   1.682   6.098
  149PYPG  H10X13777   3.249   1.698   6.134
  149PYPG  H10Y13778   3.379   1.574   6.102
  149PYPG  C31113779   3.368   1.740   5.956
  149PYPG  H11X13780   3.362   1.851   5.958
  149PYPG  H11Y13781   3.283   1.701   5.895
  149PYPG  C31213782   3.496   1.699   5.883
  149PYPG  H12X13783   3.581   1.755   5.925
  149PYPG  H12Y13784   3.516   1.593   5.910
  149PYPG  C31313785   3.488   1.708   5.728
  149PYPG  H13X13786   3.584   1.665   5.688
  149PYPG  H13Y13787   3.406   1.641   5.697
  149PYPG  C31413788   3.450   1.843   5.657
  149PYPG  H14X13789   3.447   1.831   5.546
  149PYPG  H14Y13790   3.362   1.891   5.703
  149PYPG  C31513791   3.561   1.940   5.673
  149PYPG  H15X13792   3.572   1.914   5.781
  149PYPG  H15Y13793   3.631   1.888   5.603
  149PYPG  C31613794   3.585   2.090   5.644
  149PYPG  H16X13795   3.688   2.124   5.674
  149PYPG  H16Y13796   3.518   2.154   5.704
  149PYPG  H16Z13797   3.586   2.105   5.535
  150PYPG   C1313798   1.445   4.758   7.580
  150PYPG  H13A13799   1.393   4.691   7.647
  150PYPG  H13B13800   1.442   4.862   7.622
  150PYPG   OC313801   1.369   4.742   7.461
  150PYPG   HO313802   1.318   4.663   7.475
  150PYPG   C1213803   1.586   4.696   7.579
  150PYPG  H12A13804   1.607   4.681   7.687
  150PYPG   OC213805   1.688   4.786   7.537
  150PYPG   HO213806   1.749   4.733   7.484
  150PYPG   C1113807   1.598   4.556   7.511
  150PYPG  H11A13808   1.496   4.520   7.480
  150PYPG  H11B13809   1.632   4.479   7.583
  150PYPG     P13810   1.648   4.594   7.254
  150PYPG   O1313811   1.644   4.740   7.233
  150PYPG   O1413812   1.532   4.511   7.221
  150PYPG   O1113813   1.772   4.538   7.174
  150PYPG   O1213814   1.692   4.560   7.404
  150PYPG    C113815   1.894   4.518   7.247
  150PYPG    HA13816   1.880   4.463   7.344
  150PYPG    HB13817   1.944   4.615   7.266
  150PYPG    C213818   1.993   4.434   7.168
  150PYPG    HS13819   2.093   4.440   7.219
  150PYPG   O2113820   2.004   4.468   7.032
  150PYPG   C2113821   2.071   4.573   7.008
  150PYPG   O2213822   2.124   4.648   7.088
  150PYPG   C2213823   2.075   4.590   6.859
  150PYPG   H2R13824   2.027   4.688   6.842
  150PYPG   H2S13825   2.015   4.513   6.807
  150PYPG    C313826   1.947   4.291   7.172
  150PYPG    HX13827   1.943   4.271   7.281
  150PYPG    HY13828   2.026   4.232   7.119
  150PYPG   O3113829   1.815   4.256   7.128
  150PYPG   C3113830   1.806   4.230   7.002
  150PYPG   O3213831   1.895   4.244   6.919
  150PYPG   C3213832   1.662   4.203   6.966
  150PYPG   H2X13833   1.650   4.098   6.931
  150PYPG   H2Y13834   1.598   4.217   7.056
  150PYPG   C2313835   2.221   4.575   6.813
  150PYPG   H3R13836   2.273   4.484   6.842
  150PYPG   H3S13837   2.288   4.640   6.870
  150PYPG   C2413838   2.231   4.594   6.664
  150PYPG   H4R13839   2.331   4.638   6.636
  150PYPG   H4S13840   2.154   4.666   6.629
  150PYPG   C2513841   2.203   4.459   6.597
  150PYPG   H5R13842   2.162   4.391   6.673
  150PYPG   H5S13843   2.303   4.422   6.562
  150PYPG   C2613844   2.090   4.457   6.490
  150PYPG   H6R13845   2.118   4.478   6.390
  150PYPG   H6S13846   2.022   4.543   6.486
  150PYPG   C2713847   2.083   4.332   6.412
  150PYPG   H7R13848   2.013   4.280   6.478
  150PYPG   H7S13849   2.183   4.283   6.411
  150PYPG   C2813850   2.029   4.334   6.265
  150PYPG   H8R13851   1.964   4.248   6.277
  150PYPG   H8S13852   2.114   4.302   6.197
  150PYPG   C2913853   1.951   4.447   6.199
  150PYPG   H9R13854   2.008   4.538   6.186
  150PYPG  C21013855   1.843   4.453   6.121
  150PYPG  H10R13856   1.804   4.553   6.097
  150PYPG  C21113857   1.761   4.340   6.073
  150PYPG  H11R13858   1.661   4.342   6.118
  150PYPG  H11S13859   1.806   4.251   6.116
  150PYPG  C21213860   1.745   4.327   5.919
  150PYPG  H12R13861   1.688   4.409   5.873
  150PYPG  H12S13862   1.701   4.226   5.900
  150PYPG  C21313863   1.871   4.325   5.840
  150PYPG  H13R13864   1.862   4.276   5.740
  150PYPG  H13S13865   1.925   4.262   5.907
  150PYPG  C21413866   1.937   4.458   5.825
  150PYPG  H14R13867   1.866   4.541   5.814
  150PYPG  H14S13868   2.011   4.479   5.908
  150PYPG  C21513869   2.004   4.453   5.697
  150PYPG  H15R13870   2.061   4.536   5.693
  150PYPG  H15S13871   1.970   4.422   5.596
  150PYPG  C21613872   2.129   4.403   5.714
  150PYPG  H16R13873   2.170   4.415   5.613
  150PYPG  H16S13874   2.127   4.296   5.722
  150PYPG  H16T13875   2.197   4.455   5.788
  150PYPG   C3313876   1.631   4.303   6.854
  150PYPG   H3X13877   1.525   4.298   6.823
  150PYPG   H3Y13878   1.694   4.275   6.766
  150PYPG   C3413879   1.659   4.449   6.890
  150PYPG   H4X13880   1.762   4.463   6.930
  150PYPG   H4Y13881   1.591   4.486   6.969
  150PYPG   C3513882   1.645   4.534   6.764
  150PYPG   H5X13883   1.538   4.552   6.740
  150PYPG   H5Y13884   1.693   4.479   6.679
  150PYPG   C3613885   1.714   4.668   6.779
  150PYPG   H6X13886   1.816   4.653   6.821
  150PYPG   H6Y13887   1.658   4.734   6.849
  150PYPG   C3713888   1.720   4.738   6.646
  150PYPG   H7X13889   1.775   4.673   6.572
  150PYPG   H7Y13890   1.619   4.760   6.606
  150PYPG   C3813891   1.785   4.871   6.669
  150PYPG   H8X13892   1.875   4.844   6.727
  150PYPG   H8Y13893   1.735   4.945   6.733
  150PYPG   C3913894   1.811   4.934   6.534
  150PYPG   H9X13895   1.882   4.856   6.521
  150PYPG   H9Y13896   1.861   5.033   6.541
  150PYPG  C31013897   1.715   4.909   6.416
  150PYPG  H10X13898   1.623   4.959   6.447
  150PYPG  H10Y13899   1.697   4.801   6.396
  150PYPG  C31113900   1.752   4.967   6.278
  150PYPG  H11X13901   1.790   5.072   6.292
  150PYPG  H11Y13902   1.669   4.962   6.206
  150PYPG  C31213903   1.854   4.881   6.214
  150PYPG  H12X13904   1.922   4.933   6.279
  150PYPG  H12Y13905   1.863   4.773   6.239
  150PYPG  C31313906   1.912   4.915   6.080
  150PYPG  H13X13907   1.842   4.904   5.997
  150PYPG  H13Y13908   1.961   5.017   6.080
  150PYPG  C31413909   2.019   4.813   6.065
  150PYPG  H14X13910   2.106   4.856   6.109
  150PYPG  H14Y13911   2.015   4.704   6.076
  150PYPG  C31513912   2.098   4.830   5.962
  150PYPG  H15X13913   2.019   4.822   5.886
  150PYPG  H15Y13914   2.149   4.939   5.971
  150PYPG  C31613915   2.186   4.713   5.937
  150PYPG  H16X13916   2.178   4.632   5.867
  150PYPG  H16Y13917   2.280   4.743   5.984
  150PYPG  H16Z13918   2.208   4.733   5.833
  151PYPG   C1313919   7.039   5.003   7.444
  151PYPG  H13A13920   7.089   4.960   7.355
  151PYPG  H13B13921   7.091   4.970   7.536
  151PYPG   OC313922   6.905   4.954   7.440
  151PYPG   HO313923   6.866   5.011   7.372
  151PYPG   C1213924   7.039   5.158   7.438
  151PYPG  H12A13925   6.998   5.195   7.535
  151PYPG   OC213926   6.953   5.204   7.335
  151PYPG   HO213927   6.979   5.297   7.330
  151PYPG   C1113928   7.176   5.226   7.421
  151PYPG  H11A13929   7.220   5.207   7.320
  151PYPG  H11B13930   7.248   5.179   7.492
  151PYPG     P13931   7.253   5.471   7.379
  151PYPG   O1313932   7.390   5.424   7.404
  151PYPG   O1413933   7.215   5.605   7.426
  151PYPG   O1113934   7.214   5.446   7.226
  151PYPG   O1213935   7.159   5.365   7.451
  151PYPG    C113936   7.079   5.454   7.175
  151PYPG    HA13937   7.060   5.557   7.139
  151PYPG    HB13938   7.006   5.432   7.256
  151PYPG    C213939   7.041   5.355   7.059
  151PYPG    HS13940   6.931   5.334   7.063
  151PYPG   O2113941   7.114   5.234   7.086
  151PYPG   C2113942   7.080   5.126   7.025
  151PYPG   O2213943   7.007   5.116   6.928
  151PYPG   C2213944   7.151   5.014   7.097
  151PYPG   H2R13945   7.075   4.943   7.137
  151PYPG   H2S13946   7.211   5.045   7.183
  151PYPG    C313947   7.070   5.416   6.913
  151PYPG    HX13948   7.013   5.509   6.915
  151PYPG    HY13949   7.034   5.342   6.836
  151PYPG   O3113950   7.200   5.469   6.891
  151PYPG   C3113951   7.268   5.548   6.792
  151PYPG   O3213952   7.191   5.583   6.703
  151PYPG   C3213953   7.458   5.552   6.800
  151PYPG   H2X13954   7.503   5.577   6.889
  151PYPG   H2Y13955   7.520   5.460   6.784
  151PYPG   C2313956   7.240   4.946   6.997
  151PYPG   H3R13957   7.169   4.916   6.915
  151PYPG   H3S13958   7.289   4.862   7.050
  151PYPG   C2413959   7.367   5.012   6.938
  151PYPG   H4R13960   7.438   5.021   7.020
  151PYPG   H4S13961   7.323   5.101   6.910
  151PYPG   C2513962   7.452   4.958   6.819
  151PYPG   H5R13963   7.489   4.856   6.848
  151PYPG   H5S13964   7.539   5.019   6.791
  151PYPG   C2613965   7.387   4.948   6.683
  151PYPG   H6R13966   7.320   5.022   6.637
  151PYPG   H6S13967   7.295   4.908   6.721
  151PYPG   C2713968   7.477   4.872   6.579
  151PYPG   H7R13969   7.461   4.768   6.549
  151PYPG   H7S13970   7.576   4.854   6.622
  151PYPG   C2813971   7.471   4.934   6.441
  151PYPG   H8R13972   7.371   4.926   6.396
  151PYPG   H8S13973   7.540   4.881   6.374
  151PYPG   C2913974   7.493   5.077   6.455
  151PYPG   H9R13975   7.578   5.106   6.519
  151PYPG  C21013976   7.408   5.167   6.406
  151PYPG  H10R13977   7.428   5.262   6.442
  151PYPG  C21113978   7.278   5.159   6.329
  151PYPG  H11R13979   7.208   5.241   6.358
  151PYPG  H11S13980   7.226   5.063   6.345
  151PYPG  C21213981   7.310   5.176   6.181
  151PYPG  H12R13982   7.351   5.277   6.159
  151PYPG  H12S13983   7.216   5.167   6.122
  151PYPG  C21313984   7.405   5.067   6.136
  151PYPG  H13R13985   7.378   4.969   6.181
  151PYPG  H13S13986   7.509   5.089   6.170
  151PYPG  C21413987   7.393   5.055   5.988
  151PYPG  H14R13988   7.286   5.046   5.958
  151PYPG  H14S13989   7.433   5.147   5.940
  151PYPG  C21513990   7.454   4.931   5.932
  151PYPG  H15R13991   7.426   4.835   5.976
  151PYPG  H15S13992   7.565   4.934   5.952
  151PYPG  C21613993   7.405   4.936   5.787
  151PYPG  H16R13994   7.432   5.037   5.746
  151PYPG  H16S13995   7.304   4.940   5.761
  151PYPG  H16T13996   7.453   4.856   5.727
  151PYPG   C3313997   7.582   5.544   6.699
  151PYPG   H3X13998   7.541   5.642   6.685
  151PYPG   H3Y13999   7.559   5.464   6.617
  151PYPG   C3414000   7.693   5.459   6.641
  151PYPG   H4X14001   7.686   5.346   6.656
  151PYPG   H4Y14002   7.750   5.517   6.712
  151PYPG   C3514003   7.730   5.494   6.491
  151PYPG   H5X14004   7.667   5.433   6.421
  151PYPG   H5Y14005   7.827   5.448   6.484
  151PYPG   C3614006   7.749   5.647   6.449
  151PYPG   H6X14007   7.767   5.706   6.539
  151PYPG   H6Y14008   7.661   5.712   6.462
  151PYPG   C3714009   7.760   5.686   6.289
  151PYPG   H7X14010   7.750   5.796   6.289
  151PYPG   H7Y14011   7.861   5.649   6.264
  151PYPG   C3814012   7.675   5.635   6.155
  151PYPG   H8X14013   7.677   5.526   6.149
  151PYPG   H8Y14014   7.719   5.688   6.068
  151PYPG   C3914015   7.525   5.662   6.115
  151PYPG   H9X14016   7.511   5.763   6.140
  151PYPG   H9Y14017   7.433   5.622   6.161
  151PYPG  C31014018   7.449   5.588   6.015
  151PYPG  H10X14019   7.351   5.639   6.004
  151PYPG  H10Y14020   7.397   5.492   6.029
  151PYPG  C31114021   7.527   5.638   5.906
  151PYPG  H11X14022   7.621   5.592   5.886
  151PYPG  H11Y14023   7.553   5.749   5.929
  151PYPG  C31214024   7.443   5.613   5.787
  151PYPG  H12X14025   7.391   5.684   5.840
  151PYPG  H12Y14026   7.469   5.676   5.712
  151PYPG  C31314027   7.302   5.562   5.767
  151PYPG  H13X14028   7.340   5.464   5.798
  151PYPG  H13Y14029   7.215   5.589   5.832
  151PYPG  C31414030   7.267   5.573   5.618
  151PYPG  H14X14031   7.209   5.664   5.589
  151PYPG  H14Y14032   7.359   5.571   5.558
  151PYPG  C31514033   7.200   5.447   5.575
  151PYPG  H15X14034   7.169   5.458   5.469
  151PYPG  H15Y14035   7.268   5.360   5.593
  151PYPG  C31614036   7.082   5.429   5.661
  151PYPG  H16X14037   7.112   5.417   5.766
  151PYPG  H16Y14038   7.020   5.341   5.634
  151PYPG  H16Z14039   7.023   5.524   5.652
  152PYPG   C1314040   6.086   0.128   7.292
  152PYPG  H13A14041   6.158   0.179   7.224
  152PYPG  H13B14042   6.139   0.046   7.344
  152PYPG   OC314043   5.980   0.068   7.219
  152PYPG   HO314044   5.911   0.060   7.286
  152PYPG   C1214045   6.028   0.225   7.396
  152PYPG  H12A14046   6.109   0.263   7.462
  152PYPG   OC214047   5.937   0.154   7.480
  152PYPG   HO214048   5.877   0.225   7.510
  152PYPG   C1114049   5.959   0.351   7.335
  152PYPG  H11A14050   5.897   0.324   7.246
  152PYPG  H11B14051   6.040   0.419   7.298
  152PYPG     P14052   5.732   0.412   7.457
  152PYPG   O1314053   5.691   0.520   7.549
  152PYPG   O1414054   5.696   0.274   7.496
  152PYPG   O1114055   5.686   0.439   7.312
  152PYPG   O1214056   5.887   0.420   7.436
  152PYPG    C114057   5.669   0.569   7.256
  152PYPG    HA14058   5.745   0.641   7.292
  152PYPG    HB14059   5.572   0.611   7.293
  152PYPG    C214060   5.668   0.556   7.097
  152PYPG    HS14061   5.618   0.646   7.057
  152PYPG   O2114062   5.614   0.441   7.027
  152PYPG   C2114063   5.516   0.389   7.090
  152PYPG   O2214064   5.471   0.430   7.194
  152PYPG   C2214065   5.442   0.278   7.019
  152PYPG   H2R14066   5.395   0.291   6.921
  152PYPG   H2S14067   5.363   0.241   7.086
  152PYPG    C314068   5.810   0.552   7.051
  152PYPG    HX14069   5.846   0.454   7.090
  152PYPG    HY14070   5.856   0.634   7.106
  152PYPG   O3114071   5.823   0.566   6.907
  152PYPG   C3114072   5.950   0.536   6.877
  152PYPG   O3214073   6.032   0.499   6.959
  152PYPG   C3214074   5.979   0.569   6.729
  152PYPG   H2X14075   5.892   0.535   6.668
  152PYPG   H2Y14076   5.986   0.679   6.722
  152PYPG   C2314077   5.529   0.180   6.956
  152PYPG   H3R14078   5.459   0.095   6.942
  152PYPG   H3S14079   5.602   0.163   7.038
  152PYPG   C2414080   5.584   0.236   6.822
  152PYPG   H4R14081   5.654   0.158   6.791
  152PYPG   H4S14082   5.640   0.332   6.837
  152PYPG   C2514083   5.490   0.263   6.701
  152PYPG   H5R14084   5.415   0.341   6.718
  152PYPG   H5S14085   5.436   0.171   6.672
  152PYPG   C2614086   5.568   0.322   6.584
  152PYPG   H6R14087   5.644   0.250   6.550
  152PYPG   H6S14088   5.620   0.414   6.619
  152PYPG   C2714089   5.475   0.365   6.469
  152PYPG   H7R14090   5.391   0.425   6.511
  152PYPG   H7S14091   5.428   0.277   6.420
  152PYPG   C2814092   5.549   0.458   6.372
  152PYPG   H8R14093   5.570   0.552   6.428
  152PYPG   H8S14094   5.482   0.484   6.287
  152PYPG   C2914095   5.679   0.401   6.325
  152PYPG   H9R14096   5.761   0.398   6.399
  152PYPG  C21014097   5.698   0.348   6.205
  152PYPG  H10R14098   5.796   0.308   6.186
  152PYPG  C21114099   5.599   0.333   6.093
  152PYPG  H11R14100   5.497   0.317   6.134
  152PYPG  H11S14101   5.622   0.241   6.035
  152PYPG  C21214102   5.590   0.454   5.999
  152PYPG  H12R14103   5.576   0.549   6.056
  152PYPG  H12S14104   5.503   0.444   5.930
  152PYPG  C21314105   5.711   0.477   5.910
  152PYPG  H13R14106   5.799   0.506   5.972
  152PYPG  H13S14107   5.680   0.569   5.853
  152PYPG  C21414108   5.746   0.359   5.817
  152PYPG  H14R14109   5.766   0.267   5.873
  152PYPG  H14S14110   5.666   0.344   5.741
  152PYPG  C21514111   5.871   0.382   5.739
  152PYPG  H15R14112   5.886   0.316   5.650
  152PYPG  H15S14113   5.963   0.380   5.803
  152PYPG  C21614114   5.854   0.518   5.686
  152PYPG  H16R14115   5.844   0.597   5.761
  152PYPG  H16S14116   5.770   0.532   5.616
  152PYPG  H16T14117   5.950   0.530   5.638
  152PYPG   C3314118   6.112   0.508   6.675
  152PYPG   H3X14119   6.121   0.402   6.707
  152PYPG   H3Y14120   6.200   0.563   6.717
  152PYPG   C3414121   6.125   0.508   6.522
  152PYPG   H4X14122   6.135   0.610   6.479
  152PYPG   H4Y14123   6.029   0.468   6.481
  152PYPG   C3514124   6.239   0.417   6.475
  152PYPG   H5X14125   6.300   0.384   6.563
  152PYPG   H5Y14126   6.312   0.468   6.408
  152PYPG   C3614127   6.180   0.295   6.404
  152PYPG   H6X14128   6.109   0.239   6.467
  152PYPG   H6Y14129   6.258   0.220   6.388
  152PYPG   C3714130   6.123   0.335   6.268
  152PYPG   H7X14131   6.019   0.371   6.273
  152PYPG   H7Y14132   6.194   0.409   6.223
  152PYPG   C3814133   6.120   0.226   6.165
  152PYPG   H8X14134   6.195   0.159   6.201
  152PYPG   H8Y14135   6.153   0.275   6.071
  152PYPG   C3914136   5.994   0.144   6.151
  152PYPG   H9X14137   5.915   0.208   6.118
  152PYPG   H9Y14138   5.975   0.087   6.245
  152PYPG  C31014139   5.985   0.055   6.030
  152PYPG  H10X14140   6.005  -0.041   6.073
  152PYPG  H10Y14141   6.054   0.079   5.949
  152PYPG  C31114142   5.858   0.001   5.981
  152PYPG  H11X14143   5.882  -0.065   5.898
  152PYPG  H11Y14144   5.805   0.077   5.926
  152PYPG  C31214145   5.799  -0.096   6.085
  152PYPG  H12X14146   5.871  -0.163   6.140
  152PYPG  H12Y14147   5.760  -0.032   6.166
  152PYPG  C31314148   5.694  -0.183   6.017
  152PYPG  H13X14149   5.646  -0.243   6.097
  152PYPG  H13Y14150   5.629  -0.104   5.975
  152PYPG  C31414151   5.729  -0.275   5.897
  152PYPG  H14X14152   5.758  -0.214   5.808
  152PYPG  H14Y14153   5.813  -0.344   5.921
  152PYPG  C31514154   5.613  -0.364   5.850
  152PYPG  H15X14155   5.650  -0.418   5.760
  152PYPG  H15Y14156   5.591  -0.440   5.928
  152PYPG  C31614157   5.481  -0.291   5.820
  152PYPG  H16X14158   5.400  -0.364   5.800
  152PYPG  H16Y14159   5.489  -0.223   5.733
  152PYPG  H16Z14160   5.448  -0.234   5.909
  153PYPG   C1314161   0.227   2.260   7.584
  153PYPG  H13A14162   0.216   2.318   7.490
  153PYPG  H13B14163   0.189   2.320   7.669
  153PYPG   OC314164   0.367   2.237   7.602
  153PYPG   HO314165   0.392   2.190   7.522
  153PYPG   C1214166   0.144   2.129   7.573
  153PYPG  H12A14167   0.037   2.157   7.554
  153PYPG   OC214168   0.147   2.052   7.693
  153PYPG   HO214169   0.113   1.967   7.666
  153PYPG   C1114170   0.190   2.039   7.457
  153PYPG  H11A14171   0.122   1.951   7.444
  153PYPG  H11B14172   0.291   2.000   7.483
  153PYPG     P14173   0.255   2.043   7.208
  153PYPG   O1314174   0.259   1.898   7.237
  153PYPG   O1414175   0.379   2.109   7.161
  153PYPG   O1114176   0.138   2.068   7.104
  153PYPG   O1214177   0.197   2.117   7.337
  153PYPG    C114178   0.002   2.050   7.139
  153PYPG    HA14179  -0.021   2.087   7.242
  153PYPG    HB14180  -0.025   1.942   7.134
  153PYPG    C214181  -0.089   2.127   7.039
  153PYPG    HS14182  -0.192   2.095   7.063
  153PYPG   O2114183  -0.055   2.089   6.904
  153PYPG   C2114184  -0.137   2.132   6.812
  153PYPG   O2214185  -0.247   2.183   6.832
  153PYPG   C2214186  -0.083   2.091   6.676
  153PYPG   H2R14187  -0.119   1.989   6.664
  153PYPG   H2S14188   0.027   2.085   6.671
  153PYPG    C314189  -0.075   2.281   7.060
  153PYPG    HX14190  -0.064   2.303   7.169
  153PYPG    HY14191  -0.165   2.335   7.023
  153PYPG   O3114192   0.037   2.326   6.984
  153PYPG   C3114193   0.071   2.450   7.008
  153PYPG   O3214194   0.025   2.521   7.094
  153PYPG   C3214195   0.186   2.485   6.912
  153PYPG   H2X14196   0.154   2.537   6.821
  153PYPG   H2Y14197   0.222   2.573   6.968
  153PYPG   C2314198  -0.138   2.178   6.564
  153PYPG   H3R14199  -0.246   2.204   6.573
  153PYPG   H3S14200  -0.125   2.123   6.467
  153PYPG   C2414201  -0.056   2.302   6.557
  153PYPG   H4R14202   0.052   2.275   6.546
  153PYPG   H4S14203  -0.062   2.370   6.644
  153PYPG   C2514204  -0.094   2.377   6.437
  153PYPG   H5R14205  -0.176   2.449   6.468
  153PYPG   H5S14206  -0.133   2.324   6.347
  153PYPG   C2614207   0.044   2.438   6.406
  153PYPG   H6R14208   0.091   2.494   6.489
  153PYPG   H6S14209  -0.029   2.494   6.360
  153PYPG   C2714210   0.132   2.409   6.283
  153PYPG   H7R14211   0.065   2.377   6.200
  153PYPG   H7S14212   0.192   2.329   6.324
  153PYPG   C2814213   0.230   2.517   6.225
  153PYPG   H8R14214   0.181   2.593   6.162
  153PYPG   H8S14215   0.291   2.473   6.144
  153PYPG   C2914216   0.317   2.577   6.334
  153PYPG   H9R14217   0.264   2.618   6.422
  153PYPG  C21014218   0.452   2.585   6.327
  153PYPG  H10R14219   0.507   2.620   6.415
  153PYPG  C21114220   0.537   2.536   6.212
  153PYPG  H11R14221   0.638   2.583   6.216
  153PYPG  H11S14222   0.492   2.570   6.116
  153PYPG  C21214223   0.553   2.382   6.205
  153PYPG  H12R14224   0.453   2.338   6.185
  153PYPG  H12S14225   0.586   2.343   6.304
  153PYPG  C21314226   0.648   2.327   6.096
  153PYPG  H13R14227   0.646   2.216   6.106
  153PYPG  H13S14228   0.753   2.360   6.112
  153PYPG  C21414229   0.617   2.361   5.948
  153PYPG  H14R14230   0.642   2.468   5.927
  153PYPG  H14S14231   0.686   2.298   5.888
  153PYPG  C21514232   0.476   2.334   5.894
  153PYPG  H15R14233   0.397   2.379   5.958
  153PYPG  H15S14234   0.459   2.224   5.894
  153PYPG  C21614235   0.461   2.383   5.750
  153PYPG  H16R14236   0.495   2.489   5.739
  153PYPG  H16S14237   0.356   2.376   5.717
  153PYPG  H16T14238   0.524   2.320   5.684
  153PYPG   C3314239   0.271   2.357   6.874
  153PYPG   H3X14240   0.209   2.297   6.805
  153PYPG   H3Y14241   0.291   2.295   6.965
  153PYPG   C3414242   0.408   2.371   6.806
  153PYPG   H4X14243   0.467   2.417   6.884
  153PYPG   H4Y14244   0.410   2.436   6.716
  153PYPG   C3514245   0.503   2.254   6.787
  153PYPG   H5X14246   0.453   2.168   6.834
  153PYPG   H5Y14247   0.599   2.272   6.843
  153PYPG   C3614248   0.535   2.236   6.638
  153PYPG   H6X14249   0.604   2.150   6.632
  153PYPG   H6Y14250   0.588   2.327   6.602
  153PYPG   C3714251   0.410   2.210   6.550
  153PYPG   H7X14252   0.331   2.171   6.618
  153PYPG   H7Y14253   0.372   2.307   6.509
  153PYPG   C3814254   0.430   2.108   6.435
  153PYPG   H8X14255   0.451   2.007   6.478
  153PYPG   H8Y14256   0.519   2.141   6.376
  153PYPG   C3914257   0.315   2.090   6.334
  153PYPG   H9X14258   0.305   2.187   6.281
  153PYPG   H9Y14259   0.217   2.068   6.381
  153PYPG  C31014260   0.345   1.985   6.225
  153PYPG  H10X14261   0.329   1.882   6.263
  153PYPG  H10Y14262   0.452   1.992   6.194
  153PYPG  C31114263   0.260   2.011   6.102
  153PYPG  H11X14264   0.309   2.092   6.044
  153PYPG  H11Y14265   0.158   2.047   6.130
  153PYPG  C31214266   0.246   1.893   6.007
  153PYPG  H12X14267   0.345   1.844   5.992
  153PYPG  H12Y14268   0.180   1.814   6.051
  153PYPG  C31314269   0.195   1.956   5.874
  153PYPG  H13X14270   0.095   2.003   5.889
  153PYPG  H13Y14271   0.273   2.017   5.826
  153PYPG  C31414272   0.178   1.857   5.767
  153PYPG  H14X14273   0.264   1.800   5.799
  153PYPG  H14Y14274   0.075   1.831   5.790
  153PYPG  C31514275   0.174   1.874   5.617
  153PYPG  H15X14276   0.270   1.910   5.584
  153PYPG  H15Y14277   0.137   1.787   5.554
  153PYPG  C31614278   0.084   1.981   5.594
  153PYPG  H16X14279   0.129   2.071   5.641
  153PYPG  H16Y14280  -0.003   1.942   5.652
  153PYPG  H16Z14281   0.060   1.997   5.487
  154PYPG   C1314282   3.658   4.920   3.539
  154PYPG  H13A14283   3.612   4.856   3.461
  154PYPG  H13B14284   3.610   5.020   3.540
  154PYPG   OC314285   3.794   4.932   3.511
  154PYPG   HO314286   3.818   4.993   3.441
  154PYPG   C1214287   3.638   4.855   3.679
  154PYPG  H12A14288   3.659   4.930   3.757
  154PYPG   OC214289   3.729   4.748   3.709
  154PYPG   HO214290   3.684   4.688   3.767
  154PYPG   C1114291   3.493   4.809   3.685
  154PYPG  H11A14292   3.427   4.897   3.665
  154PYPG  H11B14293   3.469   4.771   3.785
  154PYPG     P14294   3.331   4.661   3.545
  154PYPG   O1314295   3.316   4.513   3.553
  154PYPG   O1414296   3.267   4.741   3.438
  154PYPG   O1114297   3.263   4.697   3.677
  154PYPG   O1214298   3.475   4.709   3.584
  154PYPG    C114299   3.131   4.737   3.663
  154PYPG    HA14300   3.062   4.650   3.659
  154PYPG    HB14301   3.105   4.816   3.588
  154PYPG    C214302   3.122   4.810   3.786
  154PYPG    HS14303   3.022   4.856   3.779
  154PYPG   O2114304   3.224   4.921   3.783
  154PYPG   C2114305   3.211   4.984   3.899
  154PYPG   O2214306   3.143   4.932   3.980
  154PYPG   C2214307   3.287   5.127   3.924
  154PYPG   H2R14308   3.294   5.169   3.824
  154PYPG   H2S14309   3.377   5.077   3.965
  154PYPG    C314310   3.141   4.681   3.890
  154PYPG    HX14311   3.095   4.584   3.864
  154PYPG    HY14312   3.063   4.666   3.958
  154PYPG   O3114313   3.257   4.668   3.966
  154PYPG   C3114314   3.306   4.728   4.068
  154PYPG   O3214315   3.270   4.813   4.147
  154PYPG   C3214316   3.440   4.681   4.067
  154PYPG   H2X14317   3.445   4.589   4.129
  154PYPG   H2Y14318   3.469   4.663   3.961
  154PYPG   C2314319   3.273   5.257   4.027
  154PYPG   H3R14320   3.257   5.241   4.135
  154PYPG   H3S14321   3.189   5.325   4.026
  154PYPG   C2414322   3.393   5.331   4.070
  154PYPG   H4R14323   3.354   5.435   4.089
  154PYPG   H4S14324   3.456   5.318   3.982
  154PYPG   C2514325   3.451   5.276   4.200
  154PYPG   H5R14326   3.558   5.301   4.192
  154PYPG   H5S14327   3.441   5.165   4.212
  154PYPG   C2614328   3.389   5.341   4.324
  154PYPG   H6R14329   3.286   5.306   4.338
  154PYPG   H6S14330   3.384   5.451   4.315
  154PYPG   C2714331   3.475   5.304   4.441
  154PYPG   H7R14332   3.582   5.311   4.406
  154PYPG   H7S14333   3.453   5.197   4.467
  154PYPG   C2814334   3.461   5.392   4.564
  154PYPG   H8R14335   3.354   5.381   4.593
  154PYPG   H8S14336   3.479   5.498   4.537
  154PYPG   C2914337   3.564   5.340   4.661
  154PYPG   H9R14338   3.669   5.361   4.634
  154PYPG  C21014339   3.548   5.258   4.765
  154PYPG  H10R14340   3.631   5.249   4.838
  154PYPG  C21114341   3.415   5.199   4.811
  154PYPG  H11R14342   3.400   5.112   4.880
  154PYPG  H11S14343   3.326   5.223   4.748
  154PYPG  C21214344   3.396   5.274   4.931
  154PYPG  H12R14345   3.457   5.374   4.917
  154PYPG  H12S14346   3.486   5.280   4.999
  154PYPG  C21314347   3.229   5.274   4.987
  154PYPG  H13R14348   3.132   5.312   4.940
  154PYPG  H13S14349   3.169   5.370   5.025
  154PYPG  C21414350   3.239   5.205   5.114
  154PYPG  H14R14351   3.286   5.116   5.074
  154PYPG  H14S14352   3.282   5.245   5.208
  154PYPG  C21514353   3.112   5.189   5.161
  154PYPG  H15R14354   3.068   5.166   5.060
  154PYPG  H15S14355   3.090   5.295   5.196
  154PYPG  C21614356   3.103   5.083   5.267
  154PYPG  H16R14357   3.189   5.016   5.248
  154PYPG  H16S14358   3.012   5.019   5.264
  154PYPG  H16T14359   3.102   5.133   5.366
  154PYPG   C3314360   3.517   4.792   4.128
  154PYPG   H3X14361   3.488   4.792   4.235
  154PYPG   H3Y14362   3.488   4.895   4.092
  154PYPG   C3414363   3.658   4.742   4.091
  154PYPG   H4X14364   3.678   4.781   3.986
  154PYPG   H4Y14365   3.673   4.636   4.109
  154PYPG   C3514366   3.781   4.786   4.164
  154PYPG   H5X14367   3.712   4.871   4.161
  154PYPG   H5Y14368   3.864   4.800   4.093
  154PYPG   C3614369   3.837   4.752   4.305
  154PYPG   H6X14370   3.884   4.654   4.301
  154PYPG   H6Y14371   3.752   4.726   4.370
  154PYPG   C3714372   3.929   4.851   4.393
  154PYPG   H7X14373   4.017   4.900   4.348
  154PYPG   H7Y14374   3.899   4.952   4.431
  154PYPG   C3814375   3.933   4.770   4.526
  154PYPG   H8X14376   4.009   4.823   4.588
  154PYPG   H8Y14377   3.978   4.678   4.485
  154PYPG   C3914378   3.802   4.728   4.614
  154PYPG   H9X14379   3.827   4.686   4.709
  154PYPG   H9Y14380   3.713   4.687   4.567
  154PYPG  C31014381   3.732   4.831   4.698
  154PYPG  H10X14382   3.645   4.878   4.675
  154PYPG  H10Y14383   3.798   4.888   4.630
  154PYPG  C31114384   3.682   4.850   4.849
  154PYPG  H11X14385   3.591   4.789   4.856
  154PYPG  H11Y14386   3.635   4.953   4.858
  154PYPG  C31214387   3.770   4.855   4.978
  154PYPG  H12X14388   3.833   4.768   4.987
  154PYPG  H12Y14389   3.861   4.903   4.966
  154PYPG  C31314390   3.716   4.918   5.113
  154PYPG  H13X14391   3.796   4.914   5.192
  154PYPG  H13Y14392   3.691   5.026   5.106
  154PYPG  C31414393   3.589   4.849   5.157
  154PYPG  H14X14394   3.531   4.897   5.237
  154PYPG  H14Y14395   3.530   4.839   5.062
  154PYPG  C31514396   3.611   4.705   5.182
  154PYPG  H15X14397   3.520   4.643   5.173
  154PYPG  H15Y14398   3.692   4.693   5.109
  154PYPG  C31614399   3.694   4.646   5.285
  154PYPG  H16X14400   3.629   4.694   5.345
  154PYPG  H16Y14401   3.794   4.687   5.281
  154PYPG  H16Z14402   3.689   4.551   5.340
  155PYPG   C1314403   4.495   4.639   3.734
  155PYPG  H13A14404   4.453   4.607   3.832
  155PYPG  H13B14405   4.581   4.573   3.708
  155PYPG   OC314406   4.538   4.776   3.747
  155PYPG   HO314407   4.633   4.771   3.757
  155PYPG   C1214408   4.388   4.617   3.624
  155PYPG  H12A14409   4.375   4.509   3.602
  155PYPG   OC214410   4.432   4.676   3.502
  155PYPG   HO214411   4.350   4.685   3.453
  155PYPG   C1114412   4.249   4.672   3.665
  155PYPG  H11A14413   4.265   4.751   3.743
  155PYPG  H11B14414   4.192   4.590   3.716
  155PYPG     P14415   4.145   4.874   3.533
  155PYPG   O1314416   4.045   4.887   3.426
  155PYPG   O1414417   4.269   4.952   3.509
  155PYPG   O1114418   4.086   4.903   3.674
  155PYPG   O1214419   4.178   4.719   3.551
  155PYPG    C114420   3.990   5.002   3.707
  155PYPG    HA14421   3.911   4.952   3.767
  155PYPG    HB14422   3.944   5.052   3.620
  155PYPG    C214423   4.057   5.119   3.780
  155PYPG    HS14424   4.105   5.182   3.701
  155PYPG   O2114425   4.152   5.063   3.870
  155PYPG   C2114426   4.262   5.129   3.885
  155PYPG   O2214427   4.291   5.239   3.844
  155PYPG   C2214428   4.351   5.052   3.979
  155PYPG   H2R14429   4.435   5.006   3.924
  155PYPG   H2S14430   4.289   4.973   4.025
  155PYPG    C314431   3.955   5.208   3.853
  155PYPG    HX14432   3.881   5.248   3.781
  155PYPG    HY14433   4.009   5.292   3.902
  155PYPG   O3114434   3.880   5.137   3.948
  155PYPG   C3114435   3.930   5.137   4.072
  155PYPG   O3214436   4.031   5.190   4.112
  155PYPG   C3214437   3.851   5.040   4.150
  155PYPG   H2X14438   3.795   4.993   4.064
  155PYPG   H2Y14439   3.934   4.971   4.178
  155PYPG   C2314440   4.398   5.143   4.093
  155PYPG   H3R14441   4.312   5.189   4.147
  155PYPG   H3S14442   4.448   5.230   4.047
  155PYPG   C2414443   4.496   5.067   4.183
  155PYPG   H4R14444   4.564   5.139   4.226
  155PYPG   H4S14445   4.567   5.008   4.123
  155PYPG   C2514446   4.437   4.987   4.300
  155PYPG   H5R14447   4.378   5.053   4.367
  155PYPG   H5S14448   4.522   4.948   4.360
  155PYPG   C2614449   4.352   4.868   4.257
  155PYPG   H6R14450   4.405   4.818   4.173
  155PYPG   H6S14451   4.255   4.906   4.218
  155PYPG   C2714452   4.328   4.764   4.368
  155PYPG   H7R14453   4.422   4.716   4.401
  155PYPG   H7S14454   4.262   4.684   4.323
  155PYPG   C2814455   4.258   4.820   4.492
  155PYPG   H8R14456   4.156   4.791   4.467
  155PYPG   H8S14457   4.257   4.931   4.490
  155PYPG   C2914458   4.296   4.773   4.631
  155PYPG   H9R14459   4.377   4.833   4.675
  155PYPG  C21014460   4.253   4.666   4.701
  155PYPG  H10R14461   4.282   4.656   4.806
  155PYPG  C21114462   4.152   4.562   4.658
  155PYPG  H11R14463   4.189   4.459   4.673
  155PYPG  H11S14464   4.130   4.575   4.550
  155PYPG  C21214465   4.021   4.571   4.732
  155PYPG  H12R14466   3.940   4.523   4.670
  155PYPG  H12S14467   4.005   4.680   4.747
  155PYPG  C21314468   4.006   4.519   4.872
  155PYPG  H13R14469   4.068   4.579   4.942
  155PYPG  H13S14470   4.035   4.412   4.876
  155PYPG  C21414471   3.856   4.530   4.903
  155PYPG  H14R14472   3.806   4.623   4.880
  155PYPG  H14S14473   3.807   4.448   4.851
  155PYPG  C21514474   3.819   4.504   5.040
  155PYPG  H15R14475   3.871   4.582   5.105
  155PYPG  H15S14476   3.856   4.403   5.043
  155PYPG  C21614477   3.681   4.462   5.079
  155PYPG  H16R14478   3.616   4.539   5.035
  155PYPG  H16S14479   3.687   4.444   5.188
  155PYPG  H16T14480   3.630   4.372   5.055
  155PYPG   C3314481   3.750   5.069   4.274
  155PYPG   H3X14482   3.662   5.115   4.227
  155PYPG   H3Y14483   3.811   5.134   4.339
  155PYPG   C3414484   3.670   4.959   4.361
  155PYPG   H4X14485   3.729   4.914   4.437
  155PYPG   H4Y14486   3.626   4.872   4.319
  155PYPG   C3514487   3.587   4.968   4.477
  155PYPG   H5X14488   3.575   4.861   4.517
  155PYPG   H5Y14489   3.485   4.970   4.437
  155PYPG   C3614490   3.654   5.075   4.571
  155PYPG   H6X14491   3.575   5.064   4.646
  155PYPG   H6Y14492   3.644   5.161   4.507
  155PYPG   C3714493   3.806   5.110   4.629
  155PYPG   H7X14494   3.881   5.117   4.551
  155PYPG   H7Y14495   3.795   5.206   4.684
  155PYPG   C3814496   3.870   5.048   4.757
  155PYPG   H8X14497   3.900   4.947   4.753
  155PYPG   H8Y14498   3.786   5.048   4.823
  155PYPG   C3914499   4.000   5.029   4.826
  155PYPG   H9X14500   4.081   5.062   4.761
  155PYPG   H9Y14501   4.031   4.919   4.857
  155PYPG  C31014502   3.946   5.111   4.941
  155PYPG  H10X14503   3.863   5.078   5.007
  155PYPG  H10Y14504   3.887   5.199   4.906
  155PYPG  C31114505   4.062   5.127   5.022
  155PYPG  H11X14506   4.024   5.178   5.112
  155PYPG  H11Y14507   4.121   5.188   4.950
  155PYPG  C31214508   4.136   4.998   5.056
  155PYPG  H12X14509   4.174   4.931   4.975
  155PYPG  H12Y14510   4.224   5.031   5.111
  155PYPG  C31314511   4.058   4.911   5.146
  155PYPG  H13X14512   3.999   4.974   5.218
  155PYPG  H13Y14513   3.987   4.840   5.097
  155PYPG  C31414514   4.153   4.820   5.214
  155PYPG  H14X14515   4.192   4.736   5.154
  155PYPG  H14Y14516   4.231   4.870   5.277
  155PYPG  C31514517   4.054   4.766   5.299
  155PYPG  H15X14518   4.040   4.857   5.368
  155PYPG  H15Y14519   3.966   4.725   5.251
  155PYPG  C31614520   4.092   4.647   5.365
  155PYPG  H16X14521   4.050   4.580   5.445
  155PYPG  H16Y14522   4.132   4.718   5.426
  155PYPG  H16Z14523   4.182   4.615   5.344
  156PYPG   C1314524   2.469   3.131   3.506
  156PYPG  H13A14525   2.399   3.049   3.481
  156PYPG  H13B14526   2.468   3.150   3.615
  156PYPG   OC314527   2.424   3.248   3.437
  156PYPG   HO314528   2.466   3.326   3.475
  156PYPG   C1214529   2.611   3.084   3.464
  156PYPG  H12A14530   2.684   3.156   3.507
  156PYPG   OC214531   2.626   3.075   3.322
  156PYPG   HO214532   2.718   3.052   3.309
  156PYPG   C1114533   2.645   2.944   3.521
  156PYPG  H11A14534   2.743   2.914   3.478
  156PYPG  H11B14535   2.568   2.870   3.485
  156PYPG     P14536   2.663   2.806   3.737
  156PYPG   O1314537   2.806   2.766   3.735
  156PYPG   O1414538   2.563   2.716   3.677
  156PYPG   O1114539   2.618   2.837   3.885
  156PYPG   O1214540   2.655   2.947   3.664
  156PYPG    C114541   2.625   2.964   3.945
  156PYPG    HA14542   2.532   3.021   3.920
  156PYPG    HB14543   2.712   3.022   3.906
  156PYPG    C214544   2.634   2.951   4.100
  156PYPG    HS14545   2.649   3.053   4.140
  156PYPG   O2114546   2.745   2.869   4.144
  156PYPG   C2114547   2.862   2.928   4.132
  156PYPG   O2214548   2.882   3.038   4.085
  156PYPG   C2214549   2.971   2.841   4.191
  156PYPG   H2R14550   3.054   2.843   4.118
  156PYPG   H2S14551   2.937   2.737   4.205
  156PYPG    C314552   2.501   2.893   4.158
  156PYPG    HX14553   2.480   2.799   4.104
  156PYPG    HY14554   2.415   2.960   4.133
  156PYPG   O3114555   2.516   2.860   4.299
  156PYPG   C3114556   2.456   2.948   4.378
  156PYPG   O3214557   2.383   3.036   4.340
  156PYPG   C3214558   2.485   2.925   4.524
  156PYPG   H2X14559   2.481   2.816   4.542
  156PYPG   H2Y14560   2.585   2.965   4.550
  156PYPG   C2314561   3.025   2.898   4.323
  156PYPG   H3R14562   3.052   3.006   4.315
  156PYPG   H3S14563   3.119   2.847   4.351
  156PYPG   C2414564   2.925   2.888   4.437
  156PYPG   H4R14565   2.881   2.786   4.453
  156PYPG   H4S14566   2.839   2.958   4.420
  156PYPG   C2514567   2.997   2.933   4.560
  156PYPG   H5R14568   3.027   3.039   4.548
  156PYPG   H5S14569   3.090   2.874   4.577
  156PYPG   C2614570   2.906   2.912   4.676
  156PYPG   H6R14571   2.886   2.806   4.700
  156PYPG   H6S14572   2.808   2.966   4.661
  156PYPG   C2714573   2.971   2.965   4.796
  156PYPG   H7R14574   3.005   3.062   4.756
  156PYPG   H7S14575   3.070   2.927   4.829
  156PYPG   C2814576   2.859   2.939   4.896
  156PYPG   H8R14577   2.839   2.836   4.921
  156PYPG   H8S14578   2.766   2.991   4.876
  156PYPG   C2914579   2.903   2.980   5.020
  156PYPG   H9R14580   2.984   3.043   4.988
  156PYPG  C21014581   2.875   2.957   5.145
  156PYPG  H10R14582   2.948   2.985   5.216
  156PYPG  C21114583   2.780   2.874   5.205
  156PYPG  H11R14584   2.844   2.792   5.168
  156PYPG  H11S14585   2.683   2.881   5.158
  156PYPG  C21214586   2.772   2.877   5.357
  156PYPG  H12R14587   2.873   2.865   5.407
  156PYPG  H12S14588   2.708   2.785   5.373
  156PYPG  C21314589   2.699   2.987   5.428
  156PYPG  H13R14590   2.593   2.996   5.400
  156PYPG  H13S14591   2.755   3.078   5.435
  156PYPG  C21414592   2.698   2.948   5.567
  156PYPG  H14R14593   2.619   2.868   5.556
  156PYPG  H14S14594   2.801   2.907   5.588
  156PYPG  C21514595   2.644   3.033   5.681
  156PYPG  H15R14596   2.601   2.980   5.770
  156PYPG  H15S14597   2.562   3.092   5.638
  156PYPG  C21614598   2.741   3.122   5.743
  156PYPG  H16R14599   2.812   3.072   5.812
  156PYPG  H16S14600   2.677   3.194   5.796
  156PYPG  H16T14601   2.792   3.166   5.656
  156PYPG   C3314602   2.379   2.995   4.612
  156PYPG   H3X14603   2.279   2.950   4.598
  156PYPG   H3Y14604   2.367   3.103   4.586
  156PYPG   C3414605   2.421   2.989   4.758
  156PYPG   H4X14606   2.370   3.071   4.814
  156PYPG   H4Y14607   2.530   3.009   4.762
  156PYPG   C3514608   2.397   2.855   4.830
  156PYPG   H5X14609   2.446   2.769   4.780
  156PYPG   H5Y14610   2.293   2.820   4.832
  156PYPG   C3614611   2.445   2.871   4.974
  156PYPG   H6X14612   2.449   2.974   5.008
  156PYPG   H6Y14613   2.552   2.843   4.971
  156PYPG   C3714614   2.357   2.794   5.073
  156PYPG   H7X14615   2.390   2.803   5.179
  156PYPG   H7Y14616   2.250   2.820   5.061
  156PYPG   C3814617   2.366   2.651   5.045
  156PYPG   H8X14618   2.321   2.641   4.943
  156PYPG   H8Y14619   2.299   2.597   5.113
  156PYPG   C3914620   2.515   2.617   5.050
  156PYPG   H9X14621   2.568   2.632   5.147
  156PYPG   H9Y14622   2.553   2.670   4.961
  156PYPG  C31014623   2.571   2.513   4.961
  156PYPG  H10X14624   2.678   2.553   4.940
  156PYPG  H10Y14625   2.524   2.474   5.058
  156PYPG  C31114626   2.643   2.388   4.978
  156PYPG  H11X14627   2.632   2.393   4.869
  156PYPG  H11Y14628   2.626   2.277   4.972
  156PYPG  C31214629   2.724   2.426   5.091
  156PYPG  H12X14630   2.761   2.529   5.108
  156PYPG  H12Y14631   2.669   2.399   5.184
  156PYPG  C31314632   2.821   2.340   5.047
  156PYPG  H13X14633   2.788   2.242   5.075
  156PYPG  H13Y14634   2.879   2.359   4.953
  156PYPG  C31414635   2.910   2.346   5.136
  156PYPG  H14X14636   3.014   2.329   5.084
  156PYPG  H14Y14637   2.945   2.453   5.100
  156PYPG  C31514638   2.864   2.281   5.322
  156PYPG  H15X14639   2.768   2.308   5.305
  156PYPG  H15Y14640   2.850   2.182   5.357
  156PYPG  C31614641   2.954   2.297   5.481
  156PYPG  H16X14642   2.919   2.299   5.581
  156PYPG  H16Y14643   2.976   2.399   5.493
  156PYPG  H16Z14644   3.067   2.318   5.481
  157PYPG   C1314645   1.684   2.622   3.435
  157PYPG  H13A14646   1.599   2.586   3.497
  157PYPG  H13B14647   1.729   2.707   3.492
  157PYPG   OC314648   1.641   2.672   3.309
  157PYPG   HO314649   1.587   2.603   3.269
  157PYPG   C1214650   1.789   2.509   3.416
  157PYPG  H12A14651   1.874   2.552   3.357
  157PYPG   OC214652   1.738   2.400   3.337
  157PYPG   HO214653   1.798   2.328   3.345
  157PYPG   C1114654   1.840   2.459   3.553
  157PYPG  H11A14655   1.913   2.377   3.542
  157PYPG  H11B14656   1.751   2.419   3.607
  157PYPG     P14657   1.886   2.575   3.786
  157PYPG   O1314658   1.760   2.512   3.831
  157PYPG   O1414659   1.914   2.715   3.822
  157PYPG   O1114660   2.003   2.479   3.830
  157PYPG   O1214661   1.900   2.566   3.626
  157PYPG    C114662   2.140   2.504   3.806
  157PYPG    HA14663   2.157   2.590   3.737
  157PYPG    HB14664   2.181   2.413   3.756
  157PYPG    C214665   2.223   2.526   3.937
  157PYPG    HS14666   2.329   2.503   3.910
  157PYPG   O2114667   2.175   2.433   4.036
  157PYPG   C2114668   2.218   2.446   4.159
  157PYPG   O2214669   2.318   2.504   4.195
  157PYPG   C2214670   2.127   2.370   4.253
  157PYPG   H2R14671   2.125   2.264   4.223
  157PYPG   H2S14672   2.026   2.412   4.245
  157PYPG    C314673   2.219   2.675   3.990
  157PYPG    HX14674   2.237   2.746   3.907
  157PYPG    HY14675   2.306   2.687   4.058
  157PYPG   O3114676   2.096   2.709   4.055
  157PYPG   C3114677   2.102   2.779   4.168
  157PYPG   O3214678   2.203   2.806   4.229
  157PYPG   C3214679   1.964   2.824   4.213
  157PYPG   H2X14680   1.945   2.778   4.311
  157PYPG   H2Y14681   1.961   2.933   4.229
  157PYPG   C2314682   2.175   2.385   4.397
  157PYPG   H3R14683   2.189   2.492   4.424
  157PYPG   H3S14684   2.274   2.334   4.406
  157PYPG   C2414685   2.068   2.325   4.487
  157PYPG   H4R14686   1.967   2.354   4.453
  157PYPG   H4S14687   2.063   2.366   4.589
  157PYPG   C2514688   2.078   2.175   4.488
  157PYPG   H5R14689   2.170   2.127   4.482
  157PYPG   H5S14690   2.034   2.135   4.394
  157PYPG   C2614691   2.021   2.110   4.609
  157PYPG   H6R14692   2.033   1.999   4.586
  157PYPG   H6S14693   1.925   2.167   4.606
  157PYPG   C2714694   2.048   2.119   4.755
  157PYPG   H7R14695   2.056   2.228   4.773
  157PYPG   H7S14696   2.136   2.050   4.749
  157PYPG   C2814697   1.986   2.050   4.875
  157PYPG   H8R14698   2.050   2.059   4.965
  157PYPG   H8S14699   1.970   1.941   4.854
  157PYPG   C2914700   1.866   2.134   4.892
  157PYPG   H9R14701   1.822   2.142   4.798
  157PYPG  C21014702   1.801   2.207   4.979
  157PYPG  H10R14703   1.692   2.215   4.964
  157PYPG  C21114704   1.846   2.224   5.114
  157PYPG  H11R14705   1.781   2.295   5.168
  157PYPG  H11S14706   1.952   2.255   5.109
  157PYPG  C21214707   1.836   2.088   5.172
  157PYPG  H12R14708   1.854   2.109   5.275
  157PYPG  H12S14709   1.893   2.008   5.122
  157PYPG  C21314710   1.711   2.036   5.223
  157PYPG  H13R14711   1.682   1.995   5.126
  157PYPG  H13S14712   1.656   2.122   5.269
  157PYPG  C21414713   1.688   1.907   5.308
  157PYPG  H14R14714   1.596   1.852   5.323
  157PYPG  H14S14715   1.729   1.825   5.254
  157PYPG  C21514716   1.672   1.929   5.455
  157PYPG  H15R14717   1.746   1.982   5.416
  157PYPG  H15S14718   1.731   1.858   5.518
  157PYPG  C21614719   1.637   2.062   5.519
  157PYPG  H16R14720   1.649   2.161   5.473
  157PYPG  H16S14721   1.724   2.076   5.586
  157PYPG  H16T14722   1.545   2.042   5.577
  157PYPG   C3314723   1.859   2.784   4.110
  157PYPG   H3X14724   1.880   2.685   4.064
  157PYPG   H3Y14725   1.848   2.859   4.030
  157PYPG   C3414726   1.729   2.782   4.172
  157PYPG   H4X14727   1.646   2.819   4.107
  157PYPG   H4Y14728   1.724   2.840   4.263
  157PYPG   C3514729   1.696   2.660   4.222
  157PYPG   H5X14730   1.707   2.562   4.157
  157PYPG   H5Y14731   1.573   2.732   4.234
  157PYPG   C3614732   1.784   2.556   4.324
  157PYPG   H6X14733   1.876   2.527   4.274
  157PYPG   H6Y14734   1.742   2.452   4.353
  157PYPG   C3714735   1.832   2.603   4.466
  157PYPG   H7X14736   1.863   2.704   4.461
  157PYPG   H7Y14737   1.745   2.612   4.519
  157PYPG   C3814738   1.856   2.530   4.603
  157PYPG   H8X14739   1.965   2.524   4.595
  157PYPG   H8Y14740   1.799   2.434   4.614
  157PYPG   C3914741   1.832   2.612   4.734
  157PYPG   H9X14742   1.733   2.654   4.751
  157PYPG   H9Y14743   1.884   2.707   4.734
  157PYPG  C31014744   1.894   2.543   4.856
  157PYPG  H10X14745   1.996   2.517   4.818
  157PYPG  H10Y14746   1.839   2.456   4.891
  157PYPG  C31114747   1.914   2.636   4.972
  157PYPG  H11X14748   1.978   2.693   4.908
  157PYPG  H11Y14749   1.983   2.608   5.054
  157PYPG  C31214750   1.789   2.701   5.030
  157PYPG  H12X14751   1.810   2.769   5.112
  157PYPG  H12Y14752   1.717   2.750   4.960
  157PYPG  C31314753   1.733   2.600   5.123
  157PYPG  H13X14754   1.722   2.519   5.050
  157PYPG  H13Y14755   1.811   2.567   5.194
  157PYPG  C31414756   1.612   2.654   5.201
  157PYPG  H14X14757   1.616   2.765   5.209
  157PYPG  H14Y14758   1.520   2.648   5.145
  157PYPG  C31514759   1.591   2.592   5.341
  157PYPG  H15X14760   1.668   2.641   5.404
  157PYPG  H15Y14761   1.490   2.627   5.372
  157PYPG  C31614762   1.601   2.439   5.364
  157PYPG  H16X14763   1.704   2.401   5.368
  157PYPG  H16Y14764   1.563   2.376   5.282
  157PYPG  H16Z14765   1.544   2.411   5.455
  158PYPG   C1314766   1.243   3.151   3.356
  158PYPG  H13A14767   1.304   3.119   3.270
  158PYPG  H13B14768   1.172   3.232   3.331
  158PYPG   OC314769   1.327   3.207   3.457
  158PYPG   HO314770   1.283   3.180   3.540
  158PYPG   C1214771   1.162   3.027   3.400
  158PYPG  H12A14772   1.228   2.944   3.435
  158PYPG   OC214773   1.066   2.986   3.301
  158PYPG   HO214774   1.017   2.918   3.348
  158PYPG   C1114775   1.087   3.062   3.520
  158PYPG  H11A14776   1.006   2.984   3.540
  158PYPG  H11B14777   1.029   3.156   3.498
  158PYPG     P14778   1.138   3.156   3.752
  158PYPG   O1314779   1.015   3.087   3.732
  158PYPG   O1414780   1.162   3.302   3.749
  158PYPG   O1114781   1.139   3.103   3.898
  158PYPG   O1214782   1.190   3.077   3.627
  158PYPG    C114783   1.245   3.031   3.945
  158PYPG    HA14784   1.331   3.039   3.876
  158PYPG    HB14785   1.216   2.925   3.956
  158PYPG    C214786   1.292   3.093   4.076
  158PYPG    HS14787   1.385   3.037   4.094
  158PYPG   O2114788   1.192   3.064   4.177
  158PYPG   C2114789   1.238   3.095   4.297
  158PYPG   O2214790   1.340   3.154   4.319
  158PYPG   C2214791   1.148   3.058   4.410
  158PYPG   H2R14792   1.207   3.011   4.492
  158PYPG   H2S14793   1.065   2.996   4.375
  158PYPG    C314794   1.319   3.250   4.055
  158PYPG    HX14795   1.220   3.298   4.061
  158PYPG    HY14796   1.363   3.262   3.953
  158PYPG   O3114797   1.409   3.310   4.150
  158PYPG   C3114798   1.394   3.441   4.174
  158PYPG   O3214799   1.335   3.517   4.101
  158PYPG   C3214800   1.457   3.486   4.307
  158PYPG   H2X14801   1.539   3.428   4.343
  158PYPG   H2Y14802   1.508   3.583   4.294
  158PYPG   C2314803   1.094   3.188   4.463
  158PYPG   H3R14804   1.172   3.256   4.505
  158PYPG   H3S14805   1.022   3.162   4.544
  158PYPG   C2414806   1.021   3.259   4.354
  158PYPG   H4R14807   0.925   3.206   4.330
  158PYPG   H4S14808   1.073   3.276   4.257
  158PYPG   C2514809   0.988   3.391   4.411
  158PYPG   H5R14810   0.931   3.417   4.320
  158PYPG   H5S14811   1.070   3.466   4.415
  158PYPG   C2614812   0.921   3.370   4.551
  158PYPG   H6R14813   0.994   3.359   4.634
  158PYPG   H6S14814   0.837   3.298   4.545
  158PYPG   C2714815   0.860   3.487   4.609
  158PYPG   H7R14816   0.761   3.478   4.554
  158PYPG   H7S14817   0.934   3.566   4.579
  158PYPG   C2814818   0.819   3.526   4.749
  158PYPG   H8R14819   0.792   3.634   4.759
  158PYPG   H8S14820   0.905   3.515   4.813
  158PYPG   C2914821   0.700   3.441   4.774
  158PYPG   H9R14822   0.609   3.446   4.712
  158PYPG  C21014823   0.701   3.348   4.856
  158PYPG  H10R14824   0.631   3.273   4.830
  158PYPG  C21114825   0.810   3.307   4.938
  158PYPG  H11R14826   0.903   3.322   4.882
  158PYPG  H11S14827   0.794   3.203   4.943
  158PYPG  C21214828   0.814   3.371   5.072
  158PYPG  H12R14829   0.811   3.483   5.067
  158PYPG  H12S14830   0.912   3.339   5.114
  158PYPG  C21314831   0.714   3.322   5.172
  158PYPG  H13R14832   0.708   3.211   5.181
  158PYPG  H13S14833   0.614   3.368   5.158
  158PYPG  C21414834   0.773   3.377   5.297
  158PYPG  H14R14835   0.847   3.310   5.349
  158PYPG  H14S14836   0.801   3.481   5.270
  158PYPG  C21514837   0.683   3.390   5.408
  158PYPG  H15R14838   0.580   3.370   5.404
  158PYPG  H15S14839   0.647   3.293   5.376
  158PYPG  C21614840   0.765   3.399   5.543
  158PYPG  H16R14841   0.749   3.310   5.605
  158PYPG  H16S14842   0.733   3.442   5.641
  158PYPG  H16T14843   0.728   3.503   5.547
  158PYPG   C3314844   1.367   3.460   4.428
  158PYPG   H3X14845   1.314   3.364   4.411
  158PYPG   H3Y14846   1.296   3.544   4.433
  158PYPG   C3414847   1.447   3.436   4.557
  158PYPG   H4X14848   1.480   3.538   4.583
  158PYPG   H4Y14849   1.536   3.371   4.542
  158PYPG   C3514850   1.372   3.371   4.674
  158PYPG   H5X14851   1.440   3.374   4.762
  158PYPG   H5Y14852   1.343   3.266   4.653
  158PYPG   C3614853   1.247   3.447   4.705
  158PYPG   H6X14854   1.178   3.452   4.620
  158PYPG   H6Y14855   1.291   3.546   4.716
  158PYPG   C3714856   1.168   3.399   4.827
  158PYPG   H7X14857   1.088   3.472   4.853
  158PYPG   H7Y14858   1.126   3.299   4.809
  158PYPG   C3814859   1.251   3.391   4.948
  158PYPG   H8X14860   1.338   3.322   4.940
  158PYPG   H8Y14861   1.188   3.361   5.035
  158PYPG   C3914862   1.301   3.528   4.974
  158PYPG   H9X14863   1.223   3.602   4.993
  158PYPG   H9Y14864   1.387   3.569   4.916
  158PYPG  C31014865   1.333   3.519   5.115
  158PYPG  H10X14866   1.251   3.484   5.172
  158PYPG  H10Y14867   1.362   3.627   5.134
  158PYPG  C31114868   1.398   3.388   5.165
  158PYPG  H11X14869   1.453   3.408   5.071
  158PYPG  H11Y14870   1.383   3.282   5.161
  158PYPG  C31214871   1.448   3.356   5.306
  158PYPG  H12X14872   1.563   3.369   5.311
  158PYPG  H12Y14873   1.559   3.399   5.318
  158PYPG  C31314874   1.341   3.401   5.447
  158PYPG  H13X14875   1.390   3.470   5.540
  158PYPG  H13Y14876   1.318   3.501   5.504
  158PYPG  C31414877   1.310   3.271   5.482
  158PYPG  H14X14878   1.319   3.190   5.411
  158PYPG  H14Y14879   1.398   3.211   5.499
  158PYPG  C31514880   1.252   3.281   5.611
  158PYPG  H15X14881   1.229   3.173   5.617
  158PYPG  H15Y14882   1.329   3.316   5.684
  158PYPG  C31614883   1.137   3.376   5.584
  158PYPG  H16X14884   1.061   3.349   5.655
  158PYPG  H16Y14885   1.102   3.363   5.477
  158PYPG  H16Z14886   1.159   3.485   5.594
  159PYPG   C1314887   6.214   4.943   3.684
  159PYPG  H13A14888   6.106   4.946   3.668
  159PYPG  H13B14889   6.253   4.850   3.636
  159PYPG   OC314890   6.236   4.943   3.824
  159PYPG   HO314891   6.203   4.858   3.856
  159PYPG   C1214892   6.279   5.066   3.620
  159PYPG  H12A14893   6.243   5.157   3.674
  159PYPG   OC214894   6.240   5.081   3.483
  159PYPG   HO214895   6.308   5.142   3.451
  159PYPG   C1114896   6.433   5.064   3.634
  159PYPG  H11A14897   6.472   4.965   3.601
  159PYPG  H11B14898   6.455   5.075   3.743
  159PYPG     P14899   6.647   5.169   3.535
  159PYPG   O1314900   6.699   5.305   3.508
  159PYPG   O1414901   6.678   5.066   3.432
  159PYPG   O1114902   6.700   5.116   3.674
  159PYPG   O1214903   6.491   5.170   3.558
  159PYPG    C114904   6.833   5.066   3.688
  159PYPG    HA14905   6.906   5.129   3.631
  159PYPG    HB14906   6.842   4.963   3.648
  159PYPG    C214907   6.882   5.072   3.837
  159PYPG    HS14908   6.985   5.027   3.840
  159PYPG   O2114909   6.794   5.007   3.930
  159PYPG   C2114910   6.799   4.879   3.917
  159PYPG   O2214911   6.879   4.814   3.852
  159PYPG   C2214912   6.695   4.815   4.004
  159PYPG   H2R14913   6.602   4.787   3.954
  159PYPG   H2S14914   6.671   4.881   4.090
  159PYPG    C314915   6.898   5.221   3.874
  159PYPG    HX14916   6.946   5.256   3.781
  159PYPG    HY14917   6.968   5.240   3.958
  159PYPG   O3114918   6.776   5.298   3.885
  159PYPG   C3114919   6.718   5.292   4.002
  159PYPG   O3214920   6.752   5.222   4.096
  159PYPG   C3214921   6.602   5.390   4.009
  159PYPG   H2X14922   6.628   5.469   4.081
  159PYPG   H2Y14923   6.588   5.439   3.910
  159PYPG   C2314924   6.752   4.677   4.034
  159PYPG   H3R14925   6.840   4.635   3.977
  159PYPG   H3S14926   6.682   4.606   4.045
  159PYPG   C2414927   6.807   4.656   4.168
  159PYPG   H4R14928   6.828   4.764   4.150
  159PYPG   H4S14929   6.882   4.580   4.165
  159PYPG   C2514930   6.768   4.635   4.319
  159PYPG   H5R14931   6.732   4.550   4.340
  159PYPG   H5S14932   6.671   4.700   4.272
  159PYPG   C2614933   6.867   4.706   4.493
  159PYPG   H6R14934   6.926   4.636   4.536
  159PYPG   H6S14935   6.819   4.771   4.560
  159PYPG   C2714936   6.890   4.877   4.549
  159PYPG   H7R14937   6.794   4.944   4.565
  159PYPG   H7S14938   6.942   4.943   4.472
  159PYPG   C2814939   6.966   4.895   4.656
  159PYPG   H8R14940   7.056   4.854   4.598
  159PYPG   H8S14941   6.958   4.826   4.737
  159PYPG   C2914942   6.942   5.042   4.693
  159PYPG   H9R14943   6.954   5.113   4.610
  159PYPG  C21014944   6.937   5.091   4.814
  159PYPG  H10R14945   6.986   5.187   4.831
  159PYPG  C21114946   6.954   5.004   4.929
  159PYPG  H11R14947   7.039   5.035   4.995
  159PYPG  H11S14948   6.965   4.894   4.909
  159PYPG  C21214949   6.823   4.988   4.980
  159PYPG  H12R14950   6.767   4.906   4.926
  159PYPG  H12S14951   6.764   5.082   4.983
  159PYPG  C21314952   6.866   4.948   5.115
  159PYPG  H13R14953   6.758   4.945   5.146
  159PYPG  H13S14954   6.907   5.030   5.172
  159PYPG  C21414955   6.968   4.823   5.140
  159PYPG  H14R14956   6.895   4.753   5.092
  159PYPG  H14S14957   7.019   4.758   5.073
  159PYPG  C21514958   7.031   4.799   5.297
  159PYPG  H15R14959   7.039   4.910   5.302
  159PYPG  H15S14960   7.117   4.740   5.293
  159PYPG  C21614961   6.979   4.729   5.447
  159PYPG  H16R14962   6.893   4.793   5.477
  159PYPG  H16S14963   6.963   4.770   5.549
  159PYPG  H16T14964   6.941   4.630   5.439
  159PYPG   C3314965   6.473   5.319   4.055
  159PYPG   H3X14966   6.469   5.217   4.012
  159PYPG   H3Y14967   6.389   5.376   4.007
  159PYPG   C3414968   6.449   5.317   4.209
  159PYPG   H4X14969   6.341   5.296   4.227
  159PYPG   H4Y14970   6.465   5.419   4.250
  159PYPG   C3514971   6.524   5.207   4.289
  159PYPG   H5X14972   6.628   5.237   4.315
  159PYPG   H5Y14973   6.531   5.115   4.226
  159PYPG   C3614974   6.450   5.170   4.420
  159PYPG   H6X14975   6.346   5.143   4.392
  159PYPG   H6Y14976   6.450   5.257   4.489
  159PYPG   C3714977   6.511   5.053   4.499
  159PYPG   H7X14978   6.527   4.977   4.420
  159PYPG   H7Y14979   6.612   5.081   4.538
  159PYPG   C3814980   6.421   4.996   4.612
  159PYPG   H8X14981   6.327   4.955   4.569
  159PYPG   H8Y14982   6.401   5.072   4.689
  159PYPG   C3914983   6.482   4.879   4.686
  159PYPG   H9X14984   6.588   4.906   4.708
  159PYPG   H9Y14985   6.467   4.795   4.615
  159PYPG  C31014986   6.408   4.804   4.793
  159PYPG  H10X14987   6.352   4.720   4.743
  159PYPG  H10Y14988   6.342   4.876   4.839
  159PYPG  C31114989   6.502   4.743   4.895
  159PYPG  H11X14990   6.576   4.816   4.936
  159PYPG  H11Y14991   6.549   4.666   4.835
  159PYPG  C31214992   6.439   4.656   5.000
  159PYPG  H12X14993   6.359   4.598   4.950
  159PYPG  H12Y14994   6.510   4.581   5.041
  159PYPG  C31314995   6.392   4.750   5.107
  159PYPG  H13X14996   6.479   4.800   5.153
  159PYPG  H13Y14997   6.327   4.825   5.057
  159PYPG  C31414998   6.313   4.680   5.213
  159PYPG  H14X14999   6.241   4.618   5.154
  159PYPG  H14Y15000   6.375   4.601   5.261
  159PYPG  C31515001   6.250   4.781   5.316
  159PYPG  H15X15002   6.204   4.723   5.399
  159PYPG  H15Y15003   6.300   4.832   5.389
  159PYPG  C31615004   6.178   4.912   5.281
  159PYPG  H16X15005   6.097   4.901   5.207
  159PYPG  H16Y15006   6.251   4.987   5.244
  159PYPG  H16Z15007   6.131   4.944   5.377
  160PYPG   C1315008   3.883   7.670   3.453
  160PYPG  H13A15009   3.929   7.724   3.539
  160PYPG  H13B15010   3.954   7.591   3.429
  160PYPG   OC315011   3.871   7.758   3.340
  160PYPG   HO315012   3.872   7.848   3.374
  160PYPG   C1215013   3.753   7.599   3.496
  160PYPG  H12A15014   3.777   7.529   3.579
  160PYPG   OC215015   3.690   7.521   3.393
  160PYPG   HO215016   3.597   7.518   3.419
  160PYPG   C1115017   3.659   7.701   3.556
  160PYPG  H11A15018   3.565   7.648   3.581
  160PYPG  H11B15019   3.635   7.781   3.481
  160PYPG     P15020   3.708   7.893   3.728
  160PYPG   O1315021   3.603   7.945   3.639
  160PYPG   O1415022   3.825   7.979   3.739
  160PYPG   O1115023   3.670   7.857   3.880
  160PYPG   O1215024   3.730   7.748   3.672
  160PYPG    C115025   3.564   7.776   3.924
  160PYPG    HA15026   3.537   7.719   3.836
  160PYPG    HB15027   3.487   7.848   3.959
  160PYPG    C215028   3.565   7.640   4.009
  160PYPG    HS15029   3.467   7.591   4.020
  160PYPG   O2115030   3.620   7.652   4.139
  160PYPG   C2115031   3.555   7.742   4.212
  160PYPG   O2215032   3.463   7.812   4.179
  160PYPG   C2215033   3.616   7.762   4.344
  160PYPG   H2R15034   3.723   7.771   4.319
  160PYPG   H2S15035   3.598   7.678   4.415
  160PYPG    C315036   3.635   7.528   3.931
  160PYPG    HX15037   3.579   7.507   3.835
  160PYPG    HY15038   3.621   7.437   3.994
  160PYPG   O3115039   3.768   7.565   3.898
  160PYPG   C3115040   3.857   7.522   3.985
  160PYPG   O3215041   3.833   7.439   4.071
  160PYPG   C3215042   3.990   7.586   3.952
  160PYPG   H2X15043   4.047   7.510   3.896
  160PYPG   H2Y15044   3.975   7.675   3.887
  160PYPG   C2315045   3.554   7.892   4.398
  160PYPG   H3R15046   3.445   7.889   4.421
  160PYPG   H3S15047   3.557   7.975   4.324
  160PYPG   C2415048   3.625   7.932   4.523
  160PYPG   H4R15049   3.731   7.944   4.498
  160PYPG   H4S15050   3.616   7.854   4.602
  160PYPG   C2515051   3.566   8.062   4.574
  160PYPG   H5R15052   3.463   8.041   4.611
  160PYPG   H5S15053   3.559   8.133   4.488
  160PYPG   C2615054   3.653   8.118   4.684
  160PYPG   H6R15055   3.743   8.155   4.630
  160PYPG   H6S15056   3.682   8.036   4.754
  160PYPG   C2715057   3.590   8.234   4.760
  160PYPG   H7R15058   3.489   8.207   4.795
  160PYPG   H7S15059   3.569   8.309   4.681
  160PYPG   C2815060   3.675   8.290   4.877
  160PYPG   H8R15061   3.654   8.397   4.899
  160PYPG   H8S15062   3.780   8.291   4.844
  160PYPG   C2915063   3.660   8.205   5.000
  160PYPG   H9R15064   3.739   8.131   5.017
  160PYPG  C21015065   3.565   8.223   5.094
  160PYPG  H10R15066   3.553   8.147   5.173
  160PYPG  C21115067   3.458   8.329   5.092
  160PYPG  H11R15068   3.359   8.282   5.079
  160PYPG  H11S15069   3.472   8.401   5.009
  160PYPG  C21215070   3.456   8.409   5.222
  160PYPG  H12R15071   3.460   8.341   5.311
  160PYPG  H12S15072   3.356   8.458   5.231
  160PYPG  C21315073   3.563   8.521   5.226
  160PYPG  H13R15074   3.507   8.615   5.202
  160PYPG  H13S15075   3.647   8.508   5.156
  160PYPG  C21415076   3.616   8.543   5.366
  160PYPG  H14R15077   3.627   8.650   5.397
  160PYPG  H14S15078   3.518   8.517   5.406
  160PYPG  C21515079   3.733   8.456   5.422
  160PYPG  H15R15080   3.791   8.521   5.495
  160PYPG  H15S15081   3.790   8.425   5.334
  160PYPG  C21615082   3.728   8.323   5.497
  160PYPG  H16R15083   3.747   8.341   5.603
  160PYPG  H16S15084   3.815   8.261   5.471
  160PYPG  H16T15085   3.633   8.270   5.481
  160PYPG   C3315086   4.070   7.629   4.077
  160PYPG   H3X15087   4.151   7.699   4.048
  160PYPG   H3Y15088   4.122   7.544   4.118
  160PYPG   C3415089   3.991   7.683   4.195
  160PYPG   H4X15090   3.900   7.623   4.217
  160PYPG   H4Y15091   3.960   7.787   4.170
  160PYPG   C3515092   4.078   7.671   4.321
  160PYPG   H5X15093   4.164   7.740   4.304
  160PYPG   H5Y15094   4.123   7.572   4.336
  160PYPG   C3615095   4.002   7.705   4.450
  160PYPG   H6X15096   3.934   7.788   4.419
  160PYPG   H6Y15097   4.074   7.734   4.530
  160PYPG   C3715098   3.901   7.613   4.509
  160PYPG   H7X15099   3.821   7.609   4.432
  160PYPG   H7Y15100   3.952   7.516   4.522
  160PYPG   C3815101   3.836   7.667   4.636
  160PYPG   H8X15102   3.744   7.609   4.656
  160PYPG   H8Y15103   3.808   7.773   4.621
  160PYPG   C3915104   3.924   7.660   4.759
  160PYPG   H9X15105   4.012   7.726   4.751
  160PYPG   H9Y15106   3.958   7.558   4.786
  160PYPG  C31015107   3.846   7.695   4.880
  160PYPG  H10X15108   3.755   7.633   4.884
  160PYPG  H10Y15109   3.806   7.800   4.882
  160PYPG  C31115110   3.934   7.658   4.995
  160PYPG  H11X15111   4.022   7.721   5.024
  160PYPG  H11Y15112   3.957   7.551   5.004
  160PYPG  C31215113   3.853   7.673   5.108
  160PYPG  H12X15114   3.816   7.779   5.092
  160PYPG  H12Y15115   3.753   7.622   5.105
  160PYPG  C31315116   3.949   7.629   5.229
  160PYPG  H13X15117   3.853   7.599   5.275
  160PYPG  H13Y15118   3.944   7.531   5.275
  160PYPG  C31415119   4.065   7.720   5.319
  160PYPG  H14X15120   4.130   7.737   5.236
  160PYPG  H14Y15121   4.054   7.826   5.328
  160PYPG  C31515122   4.106   7.706   5.493
  160PYPG  H15X15123   4.204   7.660   5.510
  160PYPG  H15Y15124   4.126   7.801   5.547
  160PYPG  C31615125   4.030   7.633   5.612
  160PYPG  H16X15126   4.064   7.658   5.714
  160PYPG  H16Y15127   3.970   7.545   5.587
  160PYPG  H16Z15128   3.948   7.654   5.679
  161PYPG   C1315129   5.916   0.189   3.376
  161PYPG  H13A15130   5.989   0.169   3.295
  161PYPG  H13B15131   5.832   0.249   3.333
  161PYPG   OC315132   5.987   0.257   3.478
  161PYPG   HO315133   6.042   0.190   3.521
  161PYPG   C1215134   5.863   0.051   3.419
  161PYPG  H12A15135   5.842   0.006   3.320
  161PYPG   OC215136   5.734   0.053   3.480
  161PYPG   HO215137   5.727  -0.030   3.529
  161PYPG   C1115138   5.963  -0.034   3.502
  161PYPG  H11A15139   6.064  -0.026   3.455
  161PYPG  H11B15140   5.934  -0.141   3.503
  161PYPG     P15141   6.041  -0.081   3.743
  161PYPG   O1315142   6.184  -0.093   3.712
  161PYPG   O1415143   5.962  -0.204   3.762
  161PYPG   O1115144   6.024   0.010   3.865
  161PYPG   O1215145   5.972   0.014   3.635
  161PYPG    C115146   6.012   0.148   3.854
  161PYPG    HA15147   5.906   0.182   3.840
  161PYPG    HB15148   6.072   0.197   3.772
  161PYPG    C215149   6.055   0.197   3.990
  161PYPG    HS15150   6.079   0.295   3.959
  161PYPG   O2115151   6.179   0.145   4.037
  161PYPG   C2115152   6.264   0.219   4.102
  161PYPG   O2215153   6.279   0.338   4.111
  161PYPG   C2215154   6.356   0.129   4.162
  161PYPG   H2R15155   6.427   0.111   4.077
  161PYPG   H2S15156   6.308   0.037   4.200
  161PYPG    C315157   5.939   0.169   4.097
  161PYPG    HX15158   5.844   0.219   4.087
  161PYPG    HY15159   5.924   0.216   4.190
  161PYPG   O3115160   5.928   0.043   4.148
  161PYPG   C3115161   5.831  -0.012   4.083
  161PYPG   O3215162   5.746   0.043   4.016
  161PYPG   C3215163   5.848  -0.154   4.111
  161PYPG   H2X15164   5.799  -0.166   4.210
  161PYPG   H2Y15165   5.797  -0.205   4.028
  161PYPG   C2315166   6.424   0.205   4.273
  161PYPG   H3R15167   6.461   0.307   4.253
  161PYPG   H3S15168   6.497   0.130   4.258
  161PYPG   C2415169   6.418   0.170   4.416
  161PYPG   H4R15170   6.506   0.207   4.474
  161PYPG   H4S15171   6.403   0.062   4.435
  161PYPG   C2515172   6.313   0.250   4.466
  161PYPG   H5R15173   6.217   0.202   4.438
  161PYPG   H5S15174   6.321   0.352   4.417
  161PYPG   C2615175   6.341   0.245   4.613
  161PYPG   H6R15176   6.429   0.309   4.641
  161PYPG   H6S15177   6.329   0.146   4.658
  161PYPG   C2715178   6.228   0.305   4.672
  161PYPG   H7R15179   6.135   0.271   4.626
  161PYPG   H7S15180   6.261   0.392   4.611
  161PYPG   C2815181   6.229   0.341   4.820
  161PYPG   H8R15182   6.161   0.418   4.863
  161PYPG   H8S15183   6.332   0.378   4.827
  161PYPG   C2915184   6.224   0.240   4.917
  161PYPG   H9R15185   6.294   0.166   4.883
  161PYPG  C21015186   6.151   0.224   5.025
  161PYPG  H10R15187   6.197   0.156   5.095
  161PYPG  C21115188   6.043   0.308   5.083
  161PYPG  H11R15189   5.948   0.256   5.098
  161PYPG  H11S15190   6.025   0.413   5.040
  161PYPG  C21215191   6.088   0.332   5.222
  161PYPG  H12R15192   5.988   0.375   5.249
  161PYPG  H12S15193   6.169   0.402   5.206
  161PYPG  C21315194   6.115   0.254   5.350
  161PYPG  H13R15195   6.209   0.201   5.328
  161PYPG  H13S15196   6.024   0.194   5.365
  161PYPG  C21415197   6.131   0.324   5.490
  161PYPG  H14R15198   6.084   0.415   5.524
  161PYPG  H14S15199   6.109   0.247   5.568
  161PYPG  C21515200   6.266   0.379   5.518
  161PYPG  H15R15201   6.319   0.434   5.438
  161PYPG  H15S15202   6.306   0.278   5.513
  161PYPG  C21615203   6.273   0.458   5.650
  161PYPG  H16R15204   6.200   0.523   5.660
  161PYPG  H16S15205   6.354   0.534   5.666
  161PYPG  H16T15206   6.256   0.399   5.737
  161PYPG   C3315207   6.000  -0.182   4.118
  161PYPG   H3X15208   6.051  -0.118   4.194
  161PYPG   H3Y15209   6.051  -0.162   4.022
  161PYPG   C3415210   6.029  -0.319   4.169
  161PYPG   H4X15211   6.024  -0.390   4.084
  161PYPG   H4Y15212   5.949  -0.343   4.241
  161PYPG   C3515213   6.168  -0.321   4.235
  161PYPG   H5X15214   6.240  -0.283   4.161
  161PYPG   H5Y15215   6.187  -0.430   4.251
  161PYPG   C3615216   6.197  -0.235   4.363
  161PYPG   H6X15217   6.171  -0.128   4.357
  161PYPG   H6Y15218   6.306  -0.250   4.383
  161PYPG   C3715219   6.128  -0.286   4.487
  161PYPG   H7X15220   6.018  -0.281   4.489
  161PYPG   H7Y15221   6.160  -0.379   4.440
  161PYPG   C3815222   6.185  -0.296   4.629
  161PYPG   H8X15223   6.283  -0.349   4.632
  161PYPG   H8Y15224   6.119  -0.356   4.695
  161PYPG   C3915225   6.190  -0.163   4.697
  161PYPG   H9X15226   6.102  -0.153   4.764
  161PYPG   H9Y15227   6.186  -0.085   4.618
  161PYPG  C31015228   6.321  -0.161   4.772
  161PYPG  H10X15229   6.336  -0.058   4.810
  161PYPG  H10Y15230   6.403  -0.185   4.699
  161PYPG  C31115231   6.324  -0.260   4.888
  161PYPG  H11X15232   6.340  -0.365   4.853
  161PYPG  H11Y15233   6.227  -0.259   4.943
  161PYPG  C31215234   6.435  -0.222   4.986
  161PYPG  H12X15235   6.462  -0.317   5.037
  161PYPG  H12Y15236   6.525  -0.188   4.932
  161PYPG  C31315237   6.392  -0.109   5.082
  161PYPG  H13X15238   6.396  -0.012   5.031
  161PYPG  H13Y15239   6.287  -0.126   5.115
  161PYPG  C31415240   6.481  -0.099   5.205
  161PYPG  H14X15241   6.505  -0.205   5.219
  161PYPG  H14Y15242   6.578  -0.052   5.183
  161PYPG  C31515243   6.415  -0.024   5.323
  161PYPG  H15X15244   6.401   0.079   5.283
  161PYPG  H15Y15245   6.314  -0.065   5.342
  161PYPG  C31615246   6.492  -0.012   5.456
  161PYPG  H16X15247   6.476  -0.100   5.522
  161PYPG  H16Y15248   6.461   0.077   5.513
  161PYPG  H16Z15249   6.601   0.001   5.437
  162PYPG   C1315250   7.443   7.066   3.306
  162PYPG  H13A15251   7.359   7.131   3.272
  162PYPG  H13B15252   7.527   7.077   3.235
  162PYPG   OC315253   7.398   6.931   3.307
  162PYPG   HO315254   7.347   6.923   3.388
  162PYPG   C1215255   7.488   7.116   3.447
  162PYPG  H12A15256   7.574   7.186   3.434
  162PYPG   OC215257   7.544   7.013   3.526
  162PYPG   HO215258   7.518   7.036   3.619
  162PYPG   C1115259   7.374   7.197   3.515
  162PYPG  H11A15260   7.275   7.148   3.498
  162PYPG  H11B15261   7.371   7.293   3.460
  162PYPG     P15262   7.333   7.129   3.764
  162PYPG   O1315263   7.423   7.020   3.760
  162PYPG   O1415264   7.191   7.099   3.745
  162PYPG   O1115265   7.357   7.203   3.899
  162PYPG   O1215266   7.394   7.227   3.653
  162PYPG    C115267   7.360   7.344   3.895
  162PYPG    HA15268   7.289   7.379   3.972
  162PYPG    HB15269   7.323   7.389   3.800
  162PYPG    C215270   7.503   7.393   3.921
  162PYPG    HS15271   7.569   7.368   3.835
  162PYPG   O2115272   7.547   7.332   4.040
  162PYPG   C2115273   7.670   7.357   4.066
  162PYPG   O2215274   7.754   7.406   3.992
  162PYPG   C2215275   7.696   7.302   4.198
  162PYPG   H2R15276   7.647   7.349   4.286
  162PYPG   H2S15277   7.804   7.310   4.195
  162PYPG    C315278   7.500   7.542   3.943
  162PYPG    HX15279   7.469   7.585   3.845
  162PYPG    HY15280   7.598   7.591   3.968
  162PYPG   O3115281   7.395   7.551   4.042
  162PYPG   C3115282   7.429   7.561   4.166
  162PYPG   O3215283   7.546   7.569   4.202
  162PYPG   C3215284   7.296   7.586   4.257
  162PYPG   H2X15285   7.237   7.677   4.232
  162PYPG   H2Y15286   7.220   7.512   4.238
  162PYPG   C2315287   7.673   7.155   4.203
  162PYPG   H3R15288   7.730   7.141   4.296
  162PYPG   H3S15289   7.717   7.100   4.116
  162PYPG   C2415290   7.545   7.096   4.252
  162PYPG   H4R15291   7.573   6.993   4.235
  162PYPG   H4S15292   7.463   7.116   4.183
  162PYPG   C2515293   7.519   7.116   4.402
  162PYPG   H5R15294   7.512   7.225   4.415
  162PYPG   H5S15295   7.605   7.080   4.463
  162PYPG   C2615296   7.385   7.059   4.451
  162PYPG   H6R15297   7.362   6.960   4.407
  162PYPG   H6S15298   7.301   7.115   4.409
  162PYPG   C2715299   7.378   7.049   4.605
  162PYPG   H7R15300   7.450   6.977   4.649
  162PYPG   H7S15301   7.280   7.003   4.626
  162PYPG   C2815302   7.405   7.184   4.678
  162PYPG   H8R15303   7.500   7.227   4.643
  162PYPG   H8S15304   7.419   7.163   4.787
  162PYPG   C2915305   7.299   7.288   4.661
  162PYPG   H9R15306   7.319   7.382   4.610
  162PYPG  C21015307   7.179   7.267   4.705
  162PYPG  H10R15308   7.097   7.340   4.705
  162PYPG  C21115309   7.155   7.138   4.770
  162PYPG  H11R15310   7.235   7.071   4.811
  162PYPG  H11S15311   7.096   7.079   4.697
  162PYPG  C21215312   7.084   7.185   4.888
  162PYPG  H12R15313   7.089   7.080   4.931
  162PYPG  H12S15314   6.988   7.220   4.842
  162PYPG  C21315315   7.128   7.260   5.013
  162PYPG  H13R15316   7.158   7.360   4.985
  162PYPG  H13S15317   7.181   7.189   5.082
  162PYPG  C21415318   7.031   7.316   5.114
  162PYPG  H14R15319   6.984   7.226   5.122
  162PYPG  H14S15320   7.058   7.333   5.222
  162PYPG  C21515321   6.912   7.385   5.074
  162PYPG  H15R15322   6.835   7.342   5.012
  162PYPG  H15S15323   6.923   7.461   5.008
  162PYPG  C21615324   6.860   7.402   5.210
  162PYPG  H16R15325   6.851   7.321   5.278
  162PYPG  H16S15326   6.772   7.470   5.188
  162PYPG  H16T15327   6.847   7.457   5.293
  162PYPG   C3315328   7.324   7.611   4.407
  162PYPG   H3X15329   7.333   7.719   4.442
  162PYPG   H3Y15330   7.408   7.556   4.446
  162PYPG   C3415331   7.209   7.599   4.487
  162PYPG   H4X15332   7.169   7.498   4.477
  162PYPG   H4Y15333   7.153   7.670   4.428
  162PYPG   C3515334   7.243   7.644   4.625
  162PYPG   H5X15335   7.249   7.757   4.629
  162PYPG   H5Y15336   7.331   7.594   4.670
  162PYPG   C3615337   7.138   7.608   4.717
  162PYPG   H6X15338   7.072   7.524   4.728
  162PYPG   H6Y15339   7.070   7.616   4.635
  162PYPG   C3715340   7.149   7.705   4.831
  162PYPG   H7X15341   7.184   7.809   4.828
  162PYPG   H7Y15342   7.047   7.727   4.833
  162PYPG   C3815343   7.197   7.632   4.948
  162PYPG   H8X15344   7.287   7.582   4.904
  162PYPG   H8Y15345   7.121   7.555   4.972
  162PYPG   C3915346   7.235   7.727   5.060
  162PYPG   H9X15347   7.155   7.768   5.117
  162PYPG   H9Y15348   7.267   7.826   5.025
  162PYPG  C31015349   7.350   7.669   5.139
  162PYPG  H10X15350   7.370   7.740   5.221
  162PYPG  H10Y15351   7.435   7.676   5.070
  162PYPG  C31115352   7.328   7.523   5.188
  162PYPG  H11X15353   7.345   7.454   5.103
  162PYPG  H11Y15354   7.220   7.511   5.218
  162PYPG  C31215355   7.414   7.486   5.312
  162PYPG  H12X15356   7.520   7.488   5.282
  162PYPG  H12Y15357   7.414   7.561   5.393
  162PYPG  C31315358   7.370   7.359   5.387
  162PYPG  H13X15359   7.436   7.349   5.476
  162PYPG  H13Y15360   7.267   7.370   5.427
  162PYPG  C31415361   7.379   7.235   5.299
  162PYPG  H14X15362   7.331   7.253   5.201
  162PYPG  H14Y15363   7.486   7.218   5.275
  162PYPG  C31515364   7.314   7.111   5.361
  162PYPG  H15X15365   7.347   7.094   5.465
  162PYPG  H15Y15366   7.206   7.129   5.374
  162PYPG  C31615367   7.341   6.987   5.276
  162PYPG  H16X15368   7.274   6.988   5.187
  162PYPG  H16Y15369   7.322   6.895   5.335
  162PYPG  H16Z15370   7.446   6.983   5.239
  163POPE     N15371   4.039   2.778   7.584
  163POPE   HN115372   4.114   2.713   7.610
  163POPE   HN215373   3.957   2.768   7.649
  163POPE   HN315374   4.005   2.761   7.488
  163POPE   C1215375   4.082   2.922   7.574
  163POPE  H12A15376   4.157   2.949   7.650
  163POPE  H12B15377   3.987   2.978   7.571
  163POPE   C1115378   4.185   2.968   7.477
  163POPE  H11A15379   4.271   2.900   7.495
  163POPE  H11B15380   4.216   3.074   7.503
  163POPE     P15381   4.075   3.089   7.281
  163POPE   O1315382   4.197   3.163   7.243
  163POPE   O1415383   3.976   3.156   7.367
  163POPE   O1115384   4.001   3.020   7.160
  163POPE   O1215385   4.123   2.955   7.353
  163POPE    C115386   4.045   2.894   7.107
  163POPE    HA15387   3.960   2.839   7.064
  163POPE    HB15388   4.095   2.827   7.181
  163POPE    C215389   4.141   2.918   6.990
  163POPE    HS15390   4.210   2.995   7.029
  163POPE   O2115391   4.070   2.968   6.876
  163POPE   C2115392   4.090   3.096   6.847
  163POPE   O2215393   4.151   3.178   6.913
  163POPE   C2215394   4.046   3.120   6.703
  163POPE   H2R15395   3.950   3.175   6.701
  163POPE   H2S15396   4.031   3.021   6.655
  163POPE    C315397   4.216   2.784   6.957
  163POPE    HX15398   4.144   2.700   6.949
  163POPE    HY15399   4.283   2.756   7.041
  163POPE   O3115400   4.299   2.796   6.840
  163POPE   C3115401   4.240   2.755   6.733
  163POPE   O3215402   4.136   2.694   6.728
  163POPE   C3215403   4.318   2.784   6.615
  163POPE   H2X15404   4.421   2.788   6.650
  163POPE   H2Y15405   4.282   2.881   6.574
  163POPE   C2315406   4.159   3.199   6.633
  163POPE   H3R15407   4.256   3.152   6.658
  163POPE   H3S15408   4.159   3.302   6.675
  163POPE   C2415409   4.150   3.210   6.480
  163POPE   H4R15410   4.234   3.276   6.447
  163POPE   H4S15411   4.055   3.260   6.453
  163POPE   C2515412   4.166   3.078   6.402
  163POPE   H5R15413   4.134   2.989   6.461
  163POPE   H5S15414   4.275   3.069   6.384
  163POPE   C2615415   4.100   3.079   6.263
  163POPE   H6R15416   4.155   3.154   6.203
  163POPE   H6S15417   3.994   3.112   6.271
  163POPE   C2715418   4.100   2.941   6.193
  163POPE   H7R15419   4.039   2.870   6.253
  163POPE   H7S15420   4.204   2.901   6.190
  163POPE   C2815421   4.053   2.944   6.046
  163POPE   H8R15422   4.100   2.854   5.999
  163POPE   H8S15423   4.101   3.030   5.996
  163POPE   C2915424   3.903   2.953   6.022
  163POPE   H9115425   3.854   3.050   6.013
  163POPE  C21015426   3.824   2.850   6.005
  163POPE  H10115427   3.718   2.849   5.974
  163POPE  C21115428   3.880   2.719   6.008
  163POPE  H11R15429   3.786   2.660   6.019
  163POPE  H11S15430   3.953   2.697   6.084
  163POPE  C21215431   3.952   2.685   5.886
  163POPE  H12R15432   3.996   2.585   5.905
  163POPE  H12S15433   4.044   2.733   5.851
  163POPE  C21315434   3.846   2.702   5.782
  163POPE  H13R15435   3.757   2.635   5.771
  163POPE  H13S15436   3.916   2.650   5.723
  163POPE  C21415437   3.857   2.811   5.688
  163POPE  H14R15438   3.826   2.902   5.737
  163POPE  H14S15439   3.772   2.774   5.630
  163POPE  C21515440   3.990   2.815   5.612
  163POPE  H15R15441   4.037   2.747   5.544
  163POPE  H15S15442   4.082   2.821   5.670
  163POPE  C21615443   3.962   2.889   5.492
  163POPE  H16R15444   3.955   2.975   5.552
  163POPE  H16S15445   3.863   2.885   5.442
  163POPE  C21715446   4.076   2.889   5.395
  163POPE  H17R15447   4.063   2.966   5.329
  163POPE  H17S15448   4.045   2.819   5.319
  163POPE  C21815449   4.219   2.903   5.449
  163POPE  H18R15450   4.287   2.943   5.370
  163POPE  H18S15451   4.257   2.805   5.482
  163POPE  H18T15452   4.222   2.968   5.539
  163POPE   C3315453   4.338   2.661   6.526
  163POPE   H3X15454   4.247   2.624   6.484
  163POPE   H3Y15455   4.419   2.592   6.571
  163POPE   C3415456   4.379   2.709   6.391
  163POPE   H4X15457   4.453   2.735   6.466
  163POPE   H4Y15458   4.330   2.792   6.340
  163POPE   C3515459   4.433   2.631   6.279
  163POPE   H5X15460   4.334   2.602   6.238
  163POPE   H5Y15461   4.491   2.550   6.324
  163POPE   C3615462   4.517   2.685   6.162
  163POPE   H6X15463   4.627   2.685   6.178
  163POPE   H6Y15464   4.528   2.779   6.126
  163POPE   C3715465   4.436   2.674   6.033
  163POPE   H7X15466   4.354   2.607   6.040
  163POPE   H7Y15467   4.507   2.596   6.045
  163POPE   C3815468   4.459   2.738   5.889
  163POPE   H8X15469   4.559   2.755   5.855
  163POPE   H8Y15470   4.435   2.840   5.882
  163POPE   C3915471   4.412   2.667   5.760
  163POPE   H9X15472   4.405   2.559   5.766
  163POPE   H9Y15473   4.468   2.685   5.664
  163POPE  C31015474   4.274   2.667   5.761
  163POPE  H10X15475   4.281   2.767   5.714
  163POPE  H10Y15476   4.253   2.658   5.870
  163POPE  C31115477   4.225   2.542   5.692
  163POPE  H11X15478   4.129   2.585   5.673
  163POPE  H11Y15479   4.224   2.451   5.758
  163POPE  C31215480   4.297   2.499   5.567
  163POPE  H12X15481   4.387   2.437   5.565
  163POPE  H12Y15482   4.318   2.590   5.509
  163POPE  C31315483   4.216   2.391   5.511
  163POPE  H13X15484   4.112   2.429   5.521
  163POPE  H13Y15485   4.211   2.307   5.571
  163POPE  C31415486   4.270   2.345   5.384
  163POPE  H14X15487   4.252   2.236   5.357
  163POPE  H14Y15488   4.373   2.370   5.355
  163POPE  C31515489   4.170   2.436   5.334
  163POPE  H15X15490   4.100   2.358   5.304
  163POPE  H15Y15491   4.140   2.387   5.242
  163POPE  C31615492   4.170   2.606   5.345
  163POPE  H16X15493   4.262   2.662   5.318
  163POPE  H16Y15494   4.122   2.645   5.428
  163POPE  H16Z15495   4.140   2.678   5.263
  164POPE     N15496   2.799   4.031   7.585
  164POPE   HN115497   2.767   3.938   7.617
  164POPE   HN215498   2.893   4.052   7.626
  164POPE   HN315499   2.731   4.103   7.619
  164POPE   C1215500   2.794   4.039   7.433
  164POPE  H12A15501   2.841   4.135   7.404
  164POPE  H12B15502   2.686   4.041   7.408
  164POPE   C1115503   2.854   3.918   7.359
  164POPE  H11A15504   2.965   3.924   7.354
  164POPE  H11B15505   2.817   3.920   7.253
  164POPE     P15506   2.794   3.659   7.362
  164POPE   O1315507   2.669   3.610   7.419
  164POPE   O1415508   2.918   3.583   7.386
  164POPE   O1115509   2.774   3.690   7.212
  164POPE   O1215510   2.816   3.801   7.427
  164POPE    C115511   2.649   3.666   7.145
  164POPE    HA15512   2.589   3.759   7.150
  164POPE    HB15513   2.589   3.582   7.187
  164POPE    C215514   2.677   3.630   7.000
  164POPE    HS15515   2.687   3.519   6.991
  164POPE   O2115516   2.804   3.697   6.971
  164POPE   C2115517   2.856   3.652   6.861
  164POPE   O2215518   2.805   3.559   6.801
  164POPE   C2215519   2.975   3.747   6.812
  164POPE   H2R15520   3.057   3.737   6.888
  164POPE   H2S15521   2.933   3.847   6.804
  164POPE    C315522   2.553   3.679   6.915
  164POPE    HX15523   2.465   3.617   6.948
  164POPE    HY15524   2.563   3.649   6.807
  164POPE   O3115525   2.524   3.824   6.939
  164POPE   C3115526   2.621   3.913   6.886
  164POPE   O3215527   2.715   3.871   6.825
  164POPE   C3215528   2.570   4.071   6.850
  164POPE   H2X15529   2.593   4.141   6.929
  164POPE   H2Y15530   2.474   4.044   6.901
  164POPE   C2315531   3.045   3.740   6.671
  164POPE   H3R15532   3.022   3.646   6.680
  164POPE   H3S15533   3.154   3.723   6.669
  164POPE   C2415534   2.976   3.762   6.531
  164POPE   H4R15535   2.972   3.871   6.527
  164POPE   H4S15536   2.869   3.732   6.532
  164POPE   C2515537   3.048   3.696   6.405
  164POPE   H5R15538   3.010   3.596   6.378
  164POPE   H5S15539   3.157   3.683   6.428
  164POPE   C2615540   3.019   3.737   6.261
  164POPE   H6R15541   2.911   3.734   6.238
  164POPE   H6S15542   3.083   3.675   6.193
  164POPE   C2715543   3.057   3.875   6.248
  164POPE   H7R15544   3.165   3.871   6.225
  164POPE   H7S15545   3.029   3.903   6.351
  164POPE   C2815546   2.984   3.984   6.179
  164POPE   H8R15547   3.034   4.082   6.205
  164POPE   H8S15548   2.883   3.987   6.222
  164POPE   C2915549   3.003   3.947   6.036
  164POPE   H9115550   3.104   3.929   5.999
  164POPE  C21015551   2.912   3.926   5.949
  164POPE  H10115552   2.945   3.919   5.845
  164POPE  C21115553   2.771   3.938   5.992
  164POPE  H11R15554   2.756   3.895   6.094
  164POPE  H11S15555   2.712   3.878   5.922
  164POPE  C21215556   2.724   4.082   5.997
  164POPE  H12R15557   2.785   4.144   6.068
  164POPE  H12S15558   2.621   4.088   6.035
  164POPE  C21315559   2.725   4.135   5.853
  164POPE  H13R15560   2.632   4.194   5.842
  164POPE  H13S15561   2.729   4.056   5.778
  164POPE  C21415562   2.850   4.216   5.826
  164POPE  H14R15563   2.950   4.180   5.853
  164POPE  H14S15564   2.825   4.266   5.919
  164POPE  C21515565   2.858   4.289   5.690
  164POPE  H15R15566   2.831   4.215   5.614
  164POPE  H15S15567   2.956   4.338   5.676
  164POPE  C21615568   2.758   4.399   5.671
  164POPE  H16R15569   2.794   4.503   5.697
  164POPE  H16S15570   2.683   4.360   5.742
  164POPE  C21715571   2.690   4.430   5.548
  164POPE  H17R15572   2.634   4.336   5.523
  164POPE  H17S15573   2.774   4.471   5.491
  164POPE  C21815574   2.603   4.542   5.541
  164POPE  H18R15575   2.577   4.595   5.467
  164POPE  H18S15576   2.634   4.636   5.587
  164POPE  H18T15577   2.501   4.508   5.559
  164POPE   C3315578   2.577   4.153   6.683
  164POPE   H3X15579   2.682   4.157   6.664
  164POPE   H3Y15580   2.534   4.255   6.688
  164POPE   C3415581   2.493   4.122   6.528
  164POPE   H4X15582   2.395   4.070   6.525
  164POPE   H4Y15583   2.552   4.067   6.459
  164POPE   C3515584   2.458   4.179   6.391
  164POPE   H5X15585   2.548   4.240   6.375
  164POPE   H5Y15586   2.359   4.222   6.413
  164POPE   C3615587   2.452   4.077   6.268
  164POPE   H6X15588   2.545   4.020   6.266
  164POPE   H6Y15589   2.469   4.133   6.178
  164POPE   C3715590   2.322   4.001   6.235
  164POPE   H7X15591   2.250   4.084   6.231
  164POPE   H7Y15592   2.284   3.929   6.310
  164POPE   C3815593   2.303   3.916   6.109
  164POPE   H8X15594   2.206   3.858   6.106
  164POPE   H8Y15595   2.372   3.840   6.114
  164POPE   C3915596   2.380   3.949   5.988
  164POPE   H9X15597   2.490   3.941   6.011
  164POPE   H9Y15598   2.344   4.047   5.962
  164POPE  C31015599   2.367   3.852   5.876
  164POPE  H10X15600   2.265   3.808   5.854
  164POPE  H10Y15601   2.440   3.775   5.895
  164POPE  C31115602   2.445   3.890   5.766
  164POPE  H11X15603   2.546   3.917   5.797
  164POPE  H11Y15604   2.387   3.975   5.727
  164POPE  C31215605   2.460   3.767   5.686
  164POPE  H12X15606   2.356   3.770   5.668
  164POPE  H12Y15607   2.438   3.662   5.700
  164POPE  C31315608   2.555   3.802   5.582
  164POPE  H13X15609   2.565   3.913   5.561
  164POPE  H13Y15610   2.522   3.746   5.493
  164POPE  C31415611   2.692   3.776   5.618
  164POPE  H14X15612   2.681   3.667   5.627
  164POPE  H14Y15613   2.714   3.832   5.708
  164POPE  C31515614   2.782   3.829   5.513
  164POPE  H15X15615   2.776   3.917   5.448
  164POPE  H15Y15616   2.703   3.798   5.445
  164POPE  C31615617   2.917   3.756   5.519
  164POPE  H16X15618   2.905   3.647   5.539
  164POPE  H16Y15619   2.978   3.803   5.597
  164POPE  H16Z15620   2.976   3.764   5.426
  165POPE     N15621   5.301   3.533   7.448
  165POPE   HN115622   5.197   3.528   7.457
  165POPE   HN215623   5.330   3.632   7.473
  165POPE   HN315624   5.328   3.517   7.349
  165POPE   C1215625   5.373   3.431   7.533
  165POPE  H12A15626   5.325   3.332   7.523
  165POPE  H12B15627   5.366   3.465   7.638
  165POPE   C1115628   5.522   3.417   7.497
  165POPE  H11A15629   5.564   3.349   7.576
  165POPE  H11B15630   5.571   3.516   7.506
  165POPE     P15631   5.701   3.334   7.335
  165POPE   O1315632   5.747   3.245   7.444
  165POPE   O1415633   5.769   3.461   7.311
  165POPE   O1115634   5.697   3.250   7.203
  165POPE   O1215635   5.545   3.365   7.366
  165POPE    C115636   5.585   3.233   7.119
  165POPE    HA15637   5.498   3.295   7.151
  165POPE    HB15638   5.557   3.127   7.122
  165POPE    C215639   5.615   3.272   6.972
  165POPE    HS15640   5.529   3.253   6.904
  165POPE   O2115641   5.733   3.204   6.921
  165POPE   C2115642   5.713   3.080   6.894
  165POPE   O2215643   5.603   3.028   6.892
  165POPE   C2215644   5.851   3.011   6.874
  165POPE   H2R15645   5.873   2.964   6.971
  165POPE   H2S15646   5.927   3.090   6.859
  165POPE    C315647   5.632   3.424   6.973
  165POPE    HX15648   5.698   3.455   7.059
  165POPE    HY15649   5.538   3.476   6.989
  165POPE   O3115650   5.677   3.469   6.846
  165POPE   C3115651   5.809   3.468   6.856
  165POPE   O3215652   5.874   3.401   6.931
  165POPE   C3215653   5.856   3.567   6.755
  165POPE   H2X15654   5.774   3.644   6.757
  165POPE   H2Y15655   5.835   3.494   6.674
  165POPE   C2315656   5.871   2.904   6.764
  165POPE   H3R15657   5.821   2.810   6.790
  165POPE   H3S15658   5.976   2.869   6.766
  165POPE   C2415659   5.840   2.951   6.622
  165POPE   H4R15660   5.730   2.961   6.603
  165POPE   H4S15661   5.881   2.880   6.547
  165POPE   C2515662   5.894   3.086   6.586
  165POPE   H5R15663   6.005   3.086   6.578
  165POPE   H5S15664   5.868   3.165   6.661
  165POPE   C2615665   5.828   3.129   6.457
  165POPE   H6R15666   5.718   3.122   6.450
  165POPE   H6S15667   5.879   3.086   6.367
  165POPE   C2715668   5.853   3.272   6.452
  165POPE   H7R15669   5.959   3.257   6.470
  165POPE   H7S15670   5.816   3.339   6.533
  165POPE   C2815671   5.843   3.321   6.314
  165POPE   H8R15672   5.927   3.288   6.250
  165POPE   H8S15673   5.866   3.418   6.340
  165POPE   C2915674   5.707   3.333   6.258
  165POPE   H9115675   5.641   3.393   6.320
  165POPE  C21015676   5.671   3.306   6.133
  165POPE  H10115677   5.564   3.305   6.113
  165POPE  C21115678   5.758   3.257   6.022
  165POPE  H11R15679   5.868   3.265   6.042
  165POPE  H11S15680   5.737   3.314   5.930
  165POPE  C21215681   5.723   3.110   6.000
  165POPE  H12R15682   5.622   3.104   5.953
  165POPE  H12S15683   5.725   3.050   6.093
  165POPE  C21315684   5.821   3.054   5.904
  165POPE  H13R15685   5.809   2.944   5.886
  165POPE  H13S15686   5.926   3.065   5.944
  165POPE  C21415687   5.808   3.133   5.774
  165POPE  H14R15688   5.905   3.093   5.745
  165POPE  H14S15689   5.832   3.237   5.762
  165POPE  C21515690   5.675   3.131   5.694
  165POPE  H15R15691   5.603   3.203   5.732
  165POPE  H15S15692   5.620   3.038   5.716
  165POPE  C21615693   5.686   3.156   5.541
  165POPE  H16R15694   5.607   3.156   5.464
  165POPE  H16S15695   5.707   3.056   5.522
  165POPE  C21715696   5.765   3.276   5.489
  165POPE  H17R15697   5.860   3.283   5.527
  165POPE  H17S15698   5.723   3.362   5.540
  165POPE  C21815699   5.799   3.290   5.340
  165POPE  H18R15700   5.708   3.273   5.279
  165POPE  H18S15701   5.876   3.227   5.297
  165POPE  H18T15702   5.833   3.396   5.329
  165POPE   C3315703   6.017   3.615   6.719
  165POPE   H3X15704   6.007   3.513   6.740
  165POPE   H3Y15705   6.055   3.662   6.799
  165POPE   C3415706   6.118   3.714   6.608
  165POPE   H4X15707   6.096   3.820   6.585
  165POPE   H4Y15708   6.087   3.748   6.517
  165POPE   C3515709   6.264   3.730   6.575
  165POPE   H5X15710   6.292   3.630   6.555
  165POPE   H5Y15711   6.310   3.756   6.670
  165POPE   C3615712   6.298   3.829   6.454
  165POPE   H6X15713   6.403   3.797   6.438
  165POPE   H6Y15714   6.279   3.929   6.499
  165POPE   C3715715   6.249   3.841   6.304
  165POPE   H7X15716   6.298   3.922   6.245
  165POPE   H7Y15717   6.140   3.866   6.301
  165POPE   C3815718   6.304   3.734   6.204
  165POPE   H8X15719   6.307   3.646   6.211
  165POPE   H8Y15720   6.373   3.665   6.249
  165POPE   C3915721   6.188   3.686   6.130
  165POPE   H9X15722   6.202   3.746   6.045
  165POPE   H9Y15723   6.105   3.758   6.150
  165POPE  C31015724   6.138   3.504   6.090
  165POPE  H10X15725   6.086   3.441   6.126
  165POPE  H10Y15726   6.230   3.447   6.139
  165POPE  C31115727   6.138   3.434   5.718
  165POPE  H11X15728   6.141   3.581   5.794
  165POPE  H11Y15729   6.000   3.593   5.783
  165POPE  C31215730   6.033   3.375   5.768
  165POPE  H12X15731   5.973   3.317   5.836
  165POPE  H12Y15732   6.093   3.279   5.778
  165POPE  C31315733   6.013   3.393   5.626
  165POPE  H13X15734   5.905   3.427   5.647
  165POPE  H13Y15735   6.025   3.282   5.608
  165POPE  C31415736   6.121   3.469   5.544
  165POPE  H14X15737   6.160   3.381   5.496
  165POPE  H14Y15738   6.200   3.523   5.597
  165POPE  C31515739   6.069   3.581   5.467
  165POPE  H15X15740   6.010   3.524   5.395
  165POPE  H15Y15741   6.157   3.632   5.427
  165POPE  C31615742   5.999   3.683   5.552
  165POPE  H16X15743   5.910   3.632   5.594
  165POPE  H16Y15744   5.977   3.773   5.494
  165POPE  H16Z15745   6.061   3.716   5.637
  166POPE     N15746   5.945   5.378   7.509
  166POPE   HN115747   5.962   5.275   7.509
  166POPE   HN215748   5.948   5.404   7.610
  166POPE   HN315749   5.846   5.392   7.474
  166POPE   C1215750   6.040   5.450   7.418
  166POPE  H12A15751   6.014   5.556   7.414
  166POPE  H12B15752   6.022   5.418   7.315
  166POPE   C1115753   6.183   5.416   7.459
  166POPE  H11A15754   6.194   5.307   7.481
  166POPE  H11B15755   6.208   5.474   7.551
  166POPE     P15756   6.423   5.412   7.357
  166POPE   O1315757   6.440   5.295   7.267
  166POPE   O1415758   6.465   5.394   7.497
  166POPE   O1115759   6.497   5.541   7.301
  166POPE   O1215760   6.269   5.455   7.355
  166POPE    C115761   6.431   5.665   7.278
  166POPE    HA15762   6.502   5.746   7.306
  166POPE    HB15763   6.342   5.680   7.343
  166POPE    C215764   6.398   5.682   7.127
  166POPE    HS15765   6.375   5.791   7.110
  166POPE   O2115766   6.295   5.593   7.083
  166POPE   C2115767   6.176   5.642   7.083
  166POPE   O2215768   6.146   5.757   7.111
  166POPE   C2215769   6.077   5.528   7.066
  166POPE   H2R15770   6.020   5.527   7.160
  166POPE   H2S15771   6.132   5.434   7.047
  166POPE    C315772   6.520   5.647   7.040
  166POPE    HX15773   6.554   5.545   7.067
  166POPE    HY15774   6.600   5.713   7.070
  166POPE   O3115775   6.495   5.647   6.899
  166POPE   C3115776   6.461   5.760   6.845
  166POPE   O3215777   6.460   5.869   6.899
  166POPE   C3215778   6.418   5.735   6.702
  166POPE   H2X15779   6.340   5.656   6.708
  166POPE   H2Y15780   6.501   5.694   6.641
  166POPE   C2315781   5.973   5.553   6.958
  166POPE   H3R15782   5.952   5.658   6.968
  166POPE   H3S15783   5.877   5.503   6.980
  166POPE   C2415784   6.022   5.527   6.816
  166POPE   H4R15785   6.119   5.577   6.798
  166POPE   H4S15786   5.951   5.573   6.745
  166POPE   C2515787   6.028   5.378   6.785
  166POPE   H5R15788   5.923   5.343   6.779
  166POPE   H5S15789   6.077   5.326   6.870
  166POPE   C2615790   6.105   5.344   6.655
  166POPE   H6R15791   6.076   5.241   6.625
  166POPE   H6S15792   6.213   5.344   6.680
  166POPE   C2715793   6.087   5.446   6.541
  166POPE   H7R15794   6.129   5.544   6.574
  166POPE   H7S15795   5.981   5.462   6.520
  166POPE   C2815796   6.146   5.412   6.402
  166POPE   H8R15797   6.256   5.430   6.402
  166POPE   H8S15798   6.104   5.491   6.335
  166POPE   C2915799   6.106   5.277   6.346
  166POPE   H9115800   5.997   5.262   6.341
  166POPE  C21015801   6.186   5.178   6.303
  166POPE  H10115802   6.140   5.087   6.260
  166POPE  C21115803   6.337   5.175   6.298
  166POPE  H11R15804   6.371   5.097   6.368
  166POPE  H11S15805   6.383   5.268   6.337
  166POPE  C21215806   6.396   5.142   6.159
  166POPE  H12R15807   6.374   5.039   6.125
  166POPE  H12S15808   6.506   5.151   6.167
  166POPE  C21315809   6.344   5.223   6.039
  166POPE  H13R15810   6.234   5.214   6.029
  166POPE  H13S15811   6.390   5.175   5.950
  166POPE  C21415812   6.388   5.369   6.048
  166POPE  H14R15813   6.491   5.369   6.090
  166POPE  H14S15814   6.322   5.424   6.118
  166POPE  C21515815   6.398   5.442   5.913
  166POPE  H15R15816   6.468   5.384   5.849
  166POPE  H15S15817   6.447   5.539   5.937
  166POPE  C21615818   6.266   5.472   5.839
  166POPE  H16R15819   6.205   5.540   5.903
  166POPE  H16S15820   6.205   5.381   5.823
  166POPE  C21715821   6.287   5.539   5.701
  166POPE  H17R15822   6.347   5.632   5.712
  166POPE  H17S15823   6.190   5.570   5.658
  166POPE  C21815824   6.344   5.449   5.593
  166POPE  H18R15825   6.450   5.425   5.615
  166POPE  H18S15826   6.337   5.503   5.496
  166POPE  H18T15827   6.285   5.356   5.586
  166POPE   C3315828   6.348   5.859   6.644
  166POPE   H3X15829   6.409   5.945   6.618
  166POPE   H3Y15830   6.295   5.907   6.725
  166POPE   C3415831   6.256   5.828   6.526
  166POPE   H4X15832   6.229   5.926   6.479
  166POPE   H4Y15833   6.164   5.783   6.567
  166POPE   C3515834   6.317   5.727   6.425
  166POPE   H5X15835   6.250   5.706   6.340
  166POPE   H5Y15836   6.362   5.635   6.469
  166POPE   C3615837   6.435   5.784   6.357
  166POPE   H6X15838   6.529   5.774   6.412
  166POPE   H6Y15839   6.399   5.887   6.376
  166POPE   C3715840   6.461   5.741   6.212
  166POPE   H7X15841   6.496   5.819   6.142
  166POPE   H7Y15842   6.369   5.734   6.153
  166POPE   C3815843   6.561   5.621   6.210
  166POPE   H8X15844   6.572   5.596   6.103
  166POPE   H8Y15845   6.505   5.546   6.270
  166POPE   C3915846   6.705   5.622   6.271
  166POPE   H9X15847   6.707   5.664   6.374
  166POPE   H9Y15848   6.775   5.676   6.205
  166POPE  C31015849   6.778   5.491   6.296
  166POPE  H10X15850   6.712   5.434   6.366
  166POPE  H10Y15851   6.874   5.516   6.348
  166POPE  C31115852   6.804   5.411   6.170
  166POPE  H11X15853   6.710   5.413   6.110
  166POPE  H11Y15854   6.828   5.307   6.198
  166POPE  C31215855   6.917   5.460   6.081
  166POPE  H12X15856   7.012   5.413   6.117
  166POPE  H12Y15857   6.934   5.570   6.084
  166POPE  C31315858   6.886   5.420   5.937
  166POPE  H13X15859   6.841   5.319   5.930
  166POPE  H13Y15860   6.986   5.411   5.896
  166POPE  C31415861   6.805   5.524   5.855
  166POPE  H14X15862   6.870   5.614   5.847
  166POPE  H14Y15863   6.711   5.552   5.907
  166POPE  C31515864   6.768   5.478   5.713
  166POPE  H15X15865   6.709   5.385   5.702
  166POPE  H15Y15866   6.859   5.435   5.680
  166POPE  C31615867   6.734   5.586   5.609
  166POPE  H16X15868   6.633   5.627   5.627
  166POPE  H16Y15869   6.737   5.543   5.507
  166POPE  H16Z15870   6.809   5.668   5.613
  167POPE     N15871   5.792   6.338   7.585
  167POPE   HN115872   5.789   6.442   7.596
  167POPE   HN215873   5.734   6.293   7.659
  167POPE   HN315874   5.890   6.301   7.588
  167POPE   C1215875   5.744   6.289   7.453
  167POPE  H12A15876   5.781   6.352   7.369
  167POPE  H12B15877   5.637   6.297   7.457
  167POPE   C1115878   5.782   6.142   7.446
  167POPE  H11A15879   5.735   6.093   7.358
  167POPE  H11B15880   5.737   6.091   7.534
  167POPE     P15881   6.027   6.158   7.340
  167POPE   O1315882   6.132   6.053   7.334
  167POPE   O1415883   6.073   6.294   7.371
  167POPE   O1115884   5.928   6.159   7.217
  167POPE   O1215885   5.923   6.123   7.456
  167POPE    C115886   5.875   6.038   7.164
  167POPE    HA15887   5.775   6.057   7.120
  167POPE    HB15888   5.863   5.956   7.241
  167POPE    C215889   5.962   5.984   7.051
  167POPE    HS15890   6.050   5.943   7.102
  167POPE   O2115891   6.004   6.088   6.961
  167POPE   C2115892   6.085   6.046   6.866
  167POPE   O2215893   6.142   5.939   6.863
  167POPE   C2215894   6.083   6.148   6.753
  167POPE   H2R15895   6.173   6.135   6.689
  167POPE   H2S15896   6.089   6.248   6.799
  167POPE    C315897   5.880   5.880   6.977
  167POPE    HX15898   5.849   5.800   7.049
  167POPE    HY15899   5.953   5.833   6.906
  167POPE   O3115900   5.760   5.945   6.921
  167POPE   C3115901   5.734   5.888   6.805
  167POPE   O3215902   5.805   5.801   6.760
  167POPE   C3215903   5.598   5.933   6.738
  167POPE   H2X15904   5.598   6.042   6.740
  167POPE   H2Y15905   5.512   5.902   6.801
  167POPE   C2315906   5.958   6.128   6.665
  167POPE   H3R15907   5.937   6.020   6.647
  167POPE   H3S15908   5.974   6.176   6.565
  167POPE   C2415909   5.834   6.195   6.722
  167POPE   H4R15910   5.807   6.160   6.824
  167POPE   H4S15911   5.747   6.176   6.656
  167POPE   C2515912   5.860   6.342   6.731
  167POPE   H5R15913   5.904   6.386   6.639
  167POPE   H5S15914   5.928   6.367   6.816
  167POPE   C2615915   5.733   6.413   6.765
  167POPE   H6R15916   5.781   6.512   6.762
  167POPE   H6S15917   5.705   6.385   6.869
  167POPE   C2715918   5.612   6.405   6.670
  167POPE   H7R15919   5.539   6.484   6.695
  167POPE   H7S15920   5.562   6.308   6.689
  167POPE   C2815921   5.643   6.432   6.522
  167POPE   H8R15922   5.724   6.365   6.489
  167POPE   H8S15923   5.681   6.534   6.509
  167POPE   C2915924   5.522   6.426   6.434
  167POPE   H9115925   5.440   6.494   6.461
  167POPE  C21015926   5.501   6.333   6.339
  167POPE  H10115927   5.414   6.342   6.273
  167POPE  C21115928   5.593   6.220   6.305
  167POPE  H11R15929   5.538   6.142   6.249
  167POPE  H11S15930   5.629   6.172   6.399
  167POPE  C21215931   5.713   6.263   6.222
  167POPE  H12R15932   5.774   6.341   6.274
  167POPE  H12S15933   5.680   6.306   6.125
  167POPE  C21315934   5.802   6.142   6.197
  167POPE  H13R15935   5.747   6.072   6.130
  167POPE  H13S15936   5.819   6.090   6.294
  167POPE  C21415937   5.937   6.186   6.140
  167POPE  H14R15938   5.999   6.210   6.230
  167POPE  H14S15939   5.924   6.281   6.084
  167POPE  C21515940   6.009   6.088   6.046
  167POPE  H15R15941   6.032   5.993   6.100
  167POPE  H15S15942   6.105   6.136   6.018
  167POPE  C21615943   5.934   6.055   5.916
  167POPE  H16R15944   5.845   5.992   5.939
  167POPE  H16S15945   6.000   5.993   5.851
  167POPE  C21715946   5.890   6.178   5.834
  167POPE  H17R15947   5.981   6.224   5.789
  167POPE  H17S15948   5.841   6.254   5.898
  167POPE  C21815949   5.793   6.145   5.721
  167POPE  H18R15950   5.847   6.092   5.639
  167POPE  H18S15951   5.749   6.240   5.682
  167POPE  H18T15952   5.711   6.080   5.757
  167POPE   C3315953   5.568   5.872   6.595
  167POPE   H3X15954   5.469   5.899   6.555
  167POPE   H3Y15955   5.549   5.764   6.591
  167POPE   C3415956   5.688   5.899   6.503
  167POPE   H4X15957   5.784   5.866   6.550
  167POPE   H4Y15958   5.697   6.005   6.488
  167POPE   C3515959   5.688   5.825   6.371
  167POPE   H5X15960   5.686   5.731   6.417
  167POPE   H5Y15961   5.784   5.820   6.319
  167POPE   C3615962   5.564   5.821   6.285
  167POPE   H6X15963   5.546   5.922   6.244
  167POPE   H6Y15964   5.478   5.782   6.344
  167POPE   C3715965   5.580   5.733   6.162
  167POPE   H7X15966   5.489   5.696   6.114
  167POPE   H7Y15967   5.614   5.638   6.188
  167POPE   C3815968   5.692   5.773   6.072
  167POPE   H8X15969   5.788   5.737   6.117
  167POPE   H8Y15970   5.688   5.881   6.053
  167POPE   C3915971   5.685   5.699   5.942
  167POPE   H9X15972   5.671   5.598   5.967
  167POPE   H9Y15973   5.779   5.705   5.896
  167POPE  C31015974   5.580   5.751   5.850
  167POPE  H10X15975   5.606   5.857   5.830
  167POPE  H10Y15976   5.498   5.719   5.918
  167POPE  C31115977   5.538   5.692   5.717
  167POPE  H11X15978   5.547   5.594   5.744
  167POPE  H11Y15979   5.606   5.729   5.645
  167POPE  C31215980   5.431   5.697   5.611
  167POPE  H12X15981   5.342   5.672   5.671
  167POPE  H12Y15982   5.421   5.628   5.532
  167POPE  C31315983   5.444   5.787   5.485
  167POPE  H13X15984   5.527   5.787   5.414
  167POPE  H13Y15985   5.518   5.863   5.524
  167POPE  C31415986   5.288   5.828   5.450
  167POPE  H14X15987   5.262   5.926   5.411
  167POPE  H14Y15988   5.201   5.835   5.522
  167POPE  C31515989   5.229   5.789   5.344
  167POPE  H15X15990   5.179   5.704   5.380
  167POPE  H15Y15991   5.320   5.779   5.278
  167POPE  C31615992   5.099   5.856   5.308
  167POPE  H16X15993   5.030   5.863   5.396
  167POPE  H16Y15994   5.048   5.786   5.240
  167POPE  H16Z15995   5.121   5.951   5.258
  168POPE     N15996   7.119   4.078   7.477
  168POPE   HN115997   7.063   4.162   7.456
  168POPE   HN215998   7.200   4.104   7.537
  168POPE   HN315999   7.157   4.047   7.385
  168POPE   C1216000   7.040   3.962   7.522
  168POPE  H12A16001   6.990   3.990   7.615
  168POPE  H12B16002   7.109   3.877   7.540
  168POPE   C1116003   6.941   3.930   7.411
  168POPE  H11A16004   6.998   3.900   7.320
  168POPE  H11B16005   6.877   4.020   7.390
  168POPE     P16006   6.772   3.737   7.358
  168POPE   O1316007   6.648   3.808   7.322
  168POPE   O1416008   6.764   3.603   7.416
  168POPE   O1116009   6.865   3.729   7.233
  168POPE   O1216010   6.857   3.827   7.456
  168POPE    C116011   6.972   3.633   7.228
  168POPE    HA16012   6.936   3.528   7.232
  168POPE    HB16013   7.041   3.652   7.313
  168POPE    C216014   7.050   3.650   7.098
  168POPE    HS16015   7.157   3.656   7.137
  168POPE   O2116016   6.990   3.759   7.025
  168POPE   C2116017   7.077   3.844   7.003
  168POPE   O2216018   7.190   3.837   7.050
  168POPE   C2216019   7.012   3.960   6.927
  168POPE   H2R16020   7.067   4.035   6.874
  168POPE   H2S16021   6.998   4.032   6.995
  168POPE    C316022   7.052   3.537   6.995
  168POPE    HX16023   6.946   3.515   6.976
  168POPE    HY16024   7.105   3.449   7.036
  168POPE   O3116025   7.102   3.580   6.867
  168POPE   C3116026   7.232   3.597   6.859
  168POPE   O3216027   7.311   3.569   6.948
  168POPE   C3216028   7.256   3.644   6.715
  168POPE   H2X16029   7.164   3.690   6.674
  168POPE   H2Y16030   7.285   3.557   6.653
  168POPE   C2316031   6.873   3.960   6.875
  168POPE   H3R16032   6.844   4.068   6.860
  168POPE   H3S16033   6.811   3.910   6.949
  168POPE   C2416034   6.888   3.899   6.742
  168POPE   H4R16035   6.960   3.813   6.748
  168POPE   H4S16036   6.931   3.987   6.687
  168POPE   C2516037   6.760   3.863   6.675
  168POPE   H5R16038   6.696   3.954   6.678
  168POPE   H5S16039   6.721   3.782   6.738
  168POPE   C2616040   6.770   3.819   6.530
  168POPE   H6R16041   6.791   3.912   6.479
  168POPE   H6S16042   6.670   3.799   6.488
  168POPE   C2716043   6.867   3.699   6.511
  168POPE   H7R16044   6.974   3.707   6.525
  168POPE   H7S16045   6.865   3.669   6.403
  168POPE   C2816046   6.829   3.600   6.623
  168POPE   H8R16047   6.718   3.611   6.630
  168POPE   H8S16048   6.869   3.619   6.722
  168POPE   C2916049   6.853   3.461   6.597
  168POPE   H9116050   6.755   3.420   6.582
  168POPE  C21016051   6.960   3.390   6.568
  168POPE  H10116052   6.947   3.302   6.501
  168POPE  C21116053   7.090   3.451   6.556
  168POPE  H11R16054   7.140   3.406   6.643
  168POPE  H11S16055   7.082   3.558   6.560
  168POPE  C21216056   7.176   3.426   6.437
  168POPE  H12R16057   7.165   3.317   6.442
  168POPE  H12S16058   7.279   3.463   6.456
  168POPE  C21316059   7.120   3.478   6.307
  168POPE  H13R16060   7.104   3.582   6.302
  168POPE  H13S16061   7.026   3.423   6.291
  168POPE  C21416062   7.204   3.458   6.187
  168POPE  H14R16063   7.310   3.477   6.230
  168POPE  H14S16064   7.224   3.515   6.095
  168POPE  C21516065   7.113   3.337   6.131
  168POPE  H15R16066   7.098   3.233   6.155
  168POPE  H15S16067   7.213   3.346   6.151
  168POPE  C21616068   7.024   3.328   6.001
  168POPE  H16R16069   7.053   3.428   6.005
  168POPE  H16S16070   6.941   3.278   6.062
  168POPE  C21716071   7.017   3.257   5.850
  168POPE  H17R16072   7.018   3.173   5.924
  168POPE  H17S16073   7.104   3.225   5.792
  168POPE  C21816074   7.073   3.261   5.692
  168POPE  H18R16075   6.966   3.275   5.685
  168POPE  H18S16076   7.108   3.163   5.631
  168POPE  H18T16077   7.145   3.343   5.666
  168POPE   C3316078   7.369   3.739   6.689
  168POPE   H3X16079   7.441   3.703   6.753
  168POPE   H3Y16080   7.371   3.839   6.736
  168POPE   C3416081   7.412   3.739   6.543
  168POPE   H4X16082   7.458   3.646   6.505
  168POPE   H4Y16083   7.482   3.823   6.541
  168POPE   C3516084   7.320   3.778   6.437
  168POPE   H5X16085   7.291   3.869   6.484
  168POPE   H5Y16086   7.238   3.703   6.437
  168POPE   C3616087   7.388   3.805   6.304
  168POPE   H6X16088   7.421   3.707   6.265
  168POPE   H6Y16089   7.474   3.874   6.316
  168POPE   C3716090   7.301   3.870   6.200
  168POPE   H7X16091   7.352   3.896   6.106
  168POPE   H7Y16092   7.272   3.968   6.243
  168POPE   C3816093   7.188   3.772   6.166
  168POPE   H8X16094   7.127   3.756   6.257
  168POPE   H8Y16095   7.229   3.683   6.127
  168POPE   C3916096   7.108   3.816   6.049
  168POPE   H9X16097   7.172   3.848   5.967
  168POPE   H9Y16098   7.110   3.913   6.081
  168POPE  C31016099   6.962   3.773   6.024
  168POPE  H10X16100   6.883   3.845   5.993
  168POPE  H10Y16101   6.921   3.724   6.115
  168POPE  C31116102   6.976   3.696   5.897
  168POPE  H11X16103   7.051   3.619   5.922
  168POPE  H11Y16104   7.022   3.762   5.820
  168POPE  C31216105   6.850   3.639   5.839
  168POPE  H12X16106   6.770   3.716   5.830
  168POPE  H12Y16107   6.812   3.561   5.908
  168POPE  C31316108   6.887   3.579   5.703
  168POPE  H13X16109   6.976   3.514   5.714
  168POPE  H13Y16110   6.923   3.662   5.637
  168POPE  C31416111   6.771   3.501   5.641
  168POPE  H14X16112   6.672   3.544   5.621
  168POPE  H14Y16113   6.733   3.439   5.720
  168POPE  C31516114   6.804   3.437   5.509
  168POPE  H15X16115   6.710   3.397   5.468
  168POPE  H15Y16116   6.873   3.361   5.549
  168POPE  C31616117   6.877   3.503   5.393
  168POPE  H16X16118   6.977   3.534   5.428
  168POPE  H16Y16119   6.826   3.590   5.350
  168POPE  H16Z16120   6.883   3.433   5.307
  169POPE     N16121   2.101   6.490   7.652
  169POPE   HN116122   2.017   6.429   7.653
  169POPE   HN216123   2.168   6.449   7.583
  169POPE   HN316124   2.144   6.496   7.746
  169POPE   C1216125   2.053   6.625   7.607
  169POPE  H12A16126   2.136   6.674   7.552
  169POPE  H12B16127   2.031   6.683   7.699
  169POPE   C1116128   1.928   6.608   7.519
  169POPE  H11A16129   1.884   6.709   7.500
  169POPE  H11B16130   1.852   6.550   7.577
  169POPE     P16131   1.853   6.555   7.276
  169POPE   O1316132   1.837   6.698   7.249
  169POPE   O1416133   1.735   6.478   7.317
  169POPE   O1116134   1.927   6.485   7.155
  169POPE   O1216135   1.959   6.539   7.398
  169POPE    C116136   2.068   6.489   7.140
  169POPE    HA16137   2.093   6.423   7.054
  169POPE    HB16138   2.119   6.448   7.229
  169POPE    C216139   2.118   6.631   7.106
  169POPE    HS16140   2.110   6.694   7.199
  169POPE   O2116141   2.038   6.683   7.000
  169POPE   C2116142   2.020   6.813   6.999
  169POPE   O2216143   2.087   6.897   7.055
  169POPE   C2216144   1.904   6.844   6.906
  169POPE   H2R16145   1.846   6.924   6.956
  169POPE   H2S16146   1.837   6.756   6.899
  169POPE    C316147   2.265   6.626   7.064
  169POPE    HX16148   2.323   6.582   7.149
  169POPE    HY16149   2.293   6.732   7.044
  169POPE   O3116150   2.289   6.542   6.952
  169POPE   C3116151   2.395   6.573   6.879
  169POPE   O3216152   2.456   6.675   6.865
  169POPE   C3216153   2.440   6.466   6.806
  169POPE   H2X16154   2.430   6.384   6.876
  169POPE   H2Y16155   2.549   6.470   6.786
  169POPE   C2316156   1.961   6.890   6.771
  169POPE   H3R16157   2.052   6.952   6.789
  169POPE   H3S16158   1.886   6.955   6.721
  169POPE   C2416159   1.998   6.776   6.676
  169POPE   H4R16160   2.075   6.710   6.723
  169POPE   H4S16161   2.043   6.818   6.584
  169POPE   C2516162   1.876   6.693   6.636
  169POPE   H5R16163   1.798   6.761   6.594
  169POPE   H5S16164   1.831   6.642   6.724
  169POPE   C2616165   1.906   6.586   6.532
  169POPE   H6R16166   1.814   6.526   6.526
  169POPE   H6S16167   1.990   6.520   6.564
  169POPE   C2716168   1.925   6.639   6.390
  169POPE   H7R16169   2.004   6.717   6.390
  169POPE   H7S16170   1.830   6.683   6.353
  169POPE   C2816171   1.987   6.536   6.295
  169POPE   H8R16172   2.074   6.492   6.345
  169POPE   H8S16173   2.004   6.582   6.196
  169POPE   C2916174   1.916   6.425   6.245
  169POPE   H9116175   1.808   6.448   6.230
  169POPE  C21016176   1.969   6.299   6.241
  169POPE  H10116177   1.913   6.207   6.240
  169POPE  C21116178   2.078   6.215   6.271
  169POPE  H11R16179   2.051   6.128   6.338
  169POPE  H11S16180   2.152   6.284   6.311
  169POPE  C21216181   2.095   6.147   6.142
  169POPE  H12R16182   2.050   6.050   6.110
  169POPE  H12S16183   2.189   6.112   6.180
  169POPE  C21316184   2.118   6.248   6.034
  169POPE  H13R16185   2.222   6.219   6.033
  169POPE  H13S16186   2.114   6.354   6.067
  169POPE  C21416187   2.025   6.229   5.917
  169POPE  H14R16188   1.937   6.285   5.957
  169POPE  H14S16189   2.019   6.122   5.888
  169POPE  C21516190   2.000   6.322   5.797
  169POPE  H15R16191   2.058   6.256   5.735
  169POPE  H15S16192   2.043   6.413   5.836
  169POPE  C21616193   1.945   6.313   5.653
  169POPE  H16R16194   1.869   6.393   5.655
  169POPE  H16S16195   1.916   6.205   5.639
  169POPE  C21716196   2.023   6.328   5.521
  169POPE  H17R16197   2.073   6.424   5.503
  169POPE  H17S16198   1.946   6.315   5.440
  169POPE  C21816199   2.127   6.222   5.501
  169POPE  H18R16200   2.170   6.241   5.401
  169POPE  H18S16201   2.084   6.122   5.525
  169POPE  H18T16202   2.225   6.219   5.543
  169POPE   C3316203   2.357   6.487   6.683
  169POPE   H3X16204   2.249   6.466   6.692
  169POPE   H3Y16205   2.419   6.441   6.604
  169POPE   C3416206   2.377   6.595   6.588
  169POPE   H4X16207   2.483   6.607   6.617
  169POPE   H4Y16208   2.318   6.675   6.632
  169POPE   C3516209   2.345   6.570   6.438
  169POPE   H5X16210   2.255   6.506   6.434
  169POPE   H5Y16211   2.426   6.517   6.382
  169POPE   C3616212   2.310   6.705   6.371
  169POPE   H6X16213   2.386   6.786   6.365
  169POPE   H6Y16214   2.233   6.744   6.439
  169POPE   C3716215   2.270   6.702   6.226
  169POPE   H7X16216   2.276   6.804   6.181
  169POPE   H7Y16217   2.167   6.669   6.224
  169POPE   C3816218   2.354   6.606   6.146
  169POPE   H8X16219   2.318   6.501   6.157
  169POPE   H8Y16220   2.462   6.612   6.174
  169POPE   C3916221   2.344   6.645   6.003
  169POPE   H9X16222   2.393   6.743   5.984
  169POPE   H9Y16223   2.240   6.645   5.963
  169POPE  C31016224   2.416   6.540   5.930
  169POPE  H10X16225   2.340   6.465   5.908
  169POPE  H10Y16226   2.493   6.479   5.983
  169POPE  C31116227   2.465   6.602   5.807
  169POPE  H11X16228   2.553   6.665   5.830
  169POPE  H11Y16229   2.398   6.659   5.740
  169POPE  C31216230   2.509   6.486   5.733
  169POPE  H12X16231   2.480   6.383   5.713
  169POPE  H12Y16232   2.576   6.446   5.806
  169POPE  C31316233   2.497   6.528   5.588
  169POPE  H13X16234   2.573   6.479   5.542
  169POPE  H13Y16235   2.584   6.566   5.627
  169POPE  C31416236   2.447   6.452   5.459
  169POPE  H14X16237   2.371   6.531   5.450
  169POPE  H14Y16238   2.437   6.346   5.492
  169POPE  C31516239   2.516   6.445   5.318
  169POPE  H15X16240   2.580   6.352   5.316
  169POPE  H15Y16241   2.573   6.540   5.310
  169POPE  C31616242   2.463   6.432   5.183
  169POPE  H16X16243   2.409   6.336   5.184
  169POPE  H16Y16244   2.548   6.432   5.109
  169POPE  H16Z16245   2.407   6.525   5.175
  170POPE     N16246   1.442   1.539   7.473
  170POPE   HN116247   1.516   1.593   7.523
  170POPE   HN216248   1.365   1.603   7.444
  170POPE   HN316249   1.405   1.466   7.539
  170POPE   C1216250   1.504   1.469   7.352
  170POPE  H12A16251   1.566   1.539   7.295
  170POPE  H12B16252   1.430   1.457   7.272
  170POPE   C1116253   1.558   1.329   7.386
  170POPE  H11A16254   1.568   1.272   7.290
  170POPE  H11B16255   1.499   1.262   7.450
  170POPE     P16256   1.811   1.361   7.390
  170POPE   O1316257   1.914   1.310   7.480
  170POPE   O1416258   1.813   1.502   7.347
  170POPE   O1116259   1.798   1.268   7.261
  170POPE   O1216260   1.675   1.340   7.461
  170POPE    C116261   1.916   1.237   7.185
  170POPE    HA16262   1.889   1.168   7.101
  170POPE    HB16263   1.989   1.183   7.249
  170POPE    C216264   1.980   1.361   7.117
  170POPE    HS16265   2.004   1.435   7.198
  170POPE   O2116266   1.879   1.408   7.026
  170POPE   C2116267   1.884   1.528   6.972
  170POPE   O2216268   1.974   1.606   6.969
  170POPE   C2216269   1.758   1.574   6.912
  170POPE   H2R16270   1.749   1.680   6.946
  170POPE   H2S16271   1.676   1.512   6.950
  170POPE    C316272   2.116   1.324   7.047
  170POPE    HX16273   2.183   1.297   7.133
  170POPE    HY16274   2.161   1.414   7.000
  170POPE   O3116275   2.114   1.208   6.959
  170POPE   C3116276   2.090   1.232   6.829
  170POPE   O3216277   2.078   1.339   6.776
  170POPE   C3216278   2.073   1.105   6.750
  170POPE   H2X16279   2.033   1.028   6.819
  170POPE   H2Y16280   2.170   1.071   6.708
  170POPE   C2316281   1.769   1.576   6.759
  170POPE   H3R16282   1.791   1.473   6.723
  170POPE   H3S16283   1.852   1.641   6.721
  170POPE   C2416284   1.633   1.621   6.709
  170POPE   H4R16285   1.600   1.708   6.769
  170POPE   H4S16286   1.563   1.537   6.729
  170POPE   C2516287   1.632   1.660   6.562
  170POPE   H5R16288   1.719   1.727   6.543
  170POPE   H5S16289   1.538   1.717   6.542
  170POPE   C2616290   1.637   1.539   6.468
  170POPE   H6R16291   1.535   1.494   6.470
  170POPE   H6S16292   1.706   1.462   6.509
  170POPE   C2716293   1.675   1.576   6.324
  170POPE   H7R16294   1.626   1.672   6.297
  170POPE   H7S16295   1.638   1.499   6.252
  170POPE   C2816296   1.825   1.590   6.299
  170POPE   H8R16297   1.870   1.671   6.360
  170POPE   H8S16298   1.831   1.629   6.194
  170POPE   C2916299   1.898   1.460   6.327
  170POPE   H9116300   1.861   1.397   6.406
  170POPE  C21016301   1.980   1.398   6.245
  170POPE  H10116302   2.053   1.321   6.275
  170POPE  C21116303   2.005   1.456   6.116
  170POPE  H11R16304   2.112   1.431   6.107
  170POPE  H11S16305   1.997   1.565   6.125
  170POPE  C21216306   1.924   1.406   5.994
  170POPE  H12R16307   1.935   1.298   5.984
  170POPE  H12S16308   1.960   1.424   5.892
  170POPE  C21316309   1.799   1.485   5.969
  170POPE  H13R16310   1.822   1.595   5.966
  170POPE  H13S16311   1.734   1.462   6.054
  170POPE  C21416312   1.744   1.441   5.834
  170POPE  H14R16313   1.735   1.331   5.840
  170POPE  H14S16314   1.816   1.462   5.751
  170POPE  C21516315   1.611   1.511   5.809
  170POPE  H15R16316   1.629   1.619   5.788
  170POPE  H15S16317   1.553   1.506   5.904
  170POPE  C21616318   1.527   1.444   5.700
  170POPE  H16R16319   1.429   1.495   5.690
  170POPE  H16S16320   1.507   1.343   5.742
  170POPE  C21716321   1.594   1.427   5.562
  170POPE  H17R16322   1.527   1.367   5.497
  170POPE  H17S16323   1.686   1.367   5.577
  170POPE  C21816324   1.628   1.558   5.489
  170POPE  H18R16325   1.701   1.618   5.548
  170POPE  H18S16326   1.537   1.620   5.474
  170POPE  H18T16327   1.673   1.538   5.390
  170POPE   C3316328   1.970   1.134   6.639
  170POPE   H3X16329   2.011   1.198   6.558
  170POPE   H3Y16330   1.885   1.192   6.684
  170POPE   C3416331   1.911   1.003   6.586
  170POPE   H4X16332   1.850   0.962   6.669
  170POPE   H4Y16333   1.990   0.930   6.561
  170POPE   C3516334   1.822   1.021   6.464
  170POPE   H5X16335   1.763   0.928   6.451
  170POPE   H5Y16336   1.874   1.036   6.368
  170POPE   C3616337   1.731   1.137   6.495
  170POPE   H6X16338   1.775   1.234   6.469
  170POPE   H6Y16339   1.699   1.127   6.602
  170POPE   C3716340   1.605   1.136   6.419
  170POPE   H7X16341   1.534   1.187   6.487
  170POPE   H7Y16342   1.585   1.028   6.425
  170POPE   C3816343   1.604   1.192   6.275
  170POPE   H8X16344   1.651   1.290   6.266
  170POPE   H8Y16345   1.503   1.224   6.238
  170POPE   C3916346   1.645   1.087   6.171
  170POPE   H9X16347   1.612   0.984   6.196
  170POPE   H9Y16348   1.754   1.075   6.177
  170POPE  C31016349   1.598   1.131   6.032
  170POPE  H10X16350   1.648   1.229   6.017
  170POPE  H10Y16351   1.488   1.150   6.024
  170POPE  C31116352   1.641   1.035   5.922
  170POPE  H11X16353   1.690   0.947   5.971
  170POPE  H11Y16354   1.711   1.083   5.853
  170POPE  C31216355   1.516   0.991   5.845
  170POPE  H12X16356   1.447   1.075   5.828
  170POPE  H12Y16357   1.477   0.924   5.923
  170POPE  C31316358   1.524   0.919   5.711
  170POPE  H13X16359   1.554   0.979   5.626
  170POPE  H13Y16360   1.430   0.884   5.680
  170POPE  C31416361   1.604   0.799   5.714
  170POPE  H14X16362   1.582   0.749   5.810
  170POPE  H14Y16363   1.692   0.857   5.749
  170POPE  C31516364   1.621   0.712   5.578
  170POPE  H15X16365   1.705   0.650   5.532
  170POPE  H15Y16366   1.618   0.794   5.510
  170POPE  C31616367   1.532   0.597   5.575
  170POPE  H16X16368   1.456   0.637   5.509
  170POPE  H16Y16369   1.513   0.596   5.683
  170POPE  H16Z16370   1.583   0.500   5.544
  171POPE     N16371   0.823   2.487   7.338
  171POPE   HN116372   0.819   2.444   7.433
  171POPE   HN216373   0.728   2.524   7.314
  171POPE   HN316374   0.856   2.415   7.270
  171POPE   C1216375   0.910   2.609   7.342
  171POPE  H12A16376   0.982   2.605   7.258
  171POPE  H12B16377   0.964   2.607   7.437
  171POPE   C1116378   0.825   2.736   7.331
  171POPE  H11A16379   0.769   2.733   7.235
  171POPE  H11B16380   0.895   2.823   7.329
  171POPE     P16381   0.632   2.873   7.430
  171POPE   O1316382   0.683   2.971   7.332
  171POPE   O1416383   0.600   2.921   7.566
  171POPE   O1116384   0.513   2.794   7.367
  171POPE   O1216385   0.734   2.749   7.441
  171POPE    C116386   0.443   2.700   7.447
  171POPE    HA16387   0.414   2.745   7.546
  171POPE    HB16388   0.505   2.611   7.461
  171POPE    C216389   0.314   2.655   7.380
  171POPE    HS16390   0.256   2.580   7.441
  171POPE   O2116391   0.322   2.615   7.243
  171POPE   C2116392   0.387   2.508   7.236
  171POPE   O2216393   0.420   2.435   7.329
  171POPE   C2216394   0.442   2.493   7.099
  171POPE   H2R16395   0.383   2.543   7.025
  171POPE   H2S16396   0.445   2.384   7.078
  171POPE    C316397   0.230   2.771   7.384
  171POPE    HX16398   0.200   2.784   7.491
  171POPE    HY16399   0.142   2.727   7.330
  171POPE   O3116400   0.286   2.897   7.331
  171POPE   C3116401   0.271   2.916   7.202
  171POPE   O3216402   0.227   2.833   7.125
  171POPE   C3216403   0.317   3.059   7.158
  171POPE   H2X16404   0.411   3.080   7.209
  171POPE   H2Y16405   0.260   3.146   7.194
  171POPE   C2316406   0.566   2.578   7.073
  171POPE   H3R16407   0.642   2.538   7.142
  171POPE   H3S16408   0.534   2.683   7.096
  171POPE   C2416409   0.619   2.583   6.929
  171POPE   H4R16410   0.655   2.482   6.898
  171POPE   H4S16411   0.707   2.649   6.931
  171POPE   C2516412   0.521   2.644   6.825
  171POPE   H5R16413   0.489   2.743   6.861
  171POPE   H5S16414   0.420   2.601   6.820
  171POPE   C2616415   0.578   2.649   6.683
  171POPE   H6R16416   0.495   2.672   6.613
  171POPE   H6S16417   0.624   2.553   6.648
  171POPE   C2716418   0.678   2.763   6.679
  171POPE   H7R16419   0.761   2.743   6.751
  171POPE   H7S16420   0.622   2.851   6.718
  171POPE   C2816421   0.733   2.789   6.539
  171POPE   H8R16422   0.654   2.841   6.481
  171POPE   H8S16423   0.753   2.691   6.488
  171POPE   C2916424   0.860   2.870   6.545
  171POPE   H9116425   0.925   2.850   6.632
  171POPE  C21016426   0.901   2.959   6.453
  171POPE  H10116427   0.989   3.019   6.477
  171POPE  C21116428   0.831   2.997   6.326
  171POPE  H11R16429   0.866   3.098   6.293
  171POPE  H11S16430   0.722   3.005   6.341
  171POPE  C21216431   0.855   2.899   6.210
  171POPE  H12R16432   0.784   2.928   6.129
  171POPE  H12S16433   0.828   2.796   6.242
  171POPE  C21316434   1.000   2.897   6.158
  171POPE  H13R16435   1.060   2.829   6.221
  171POPE  H13S16436   1.042   3.000   6.168
  171POPE  C21416437   1.012   2.857   6.010
  171POPE  H14R16438   0.969   2.756   5.993
  171POPE  H14S16439   1.119   2.853   5.982
  171POPE  C21516440   0.944   2.962   5.921
  171POPE  H15R16441   0.977   3.063   5.953
  171POPE  H15S16442   0.834   2.954   5.934
  171POPE  C21616443   0.971   2.953   5.771
  171POPE  H16R16444   1.079   2.974   5.753
  171POPE  H16S16445   0.909   3.030   5.720
  171POPE  C21716446   0.936   2.817   5.713
  171POPE  H17R16447   1.007   2.748   5.755
  171POPE  H17S16448   0.945   2.822   5.604
  171POPE  C21816449   0.801   2.756   5.733
  171POPE  H18R16450   0.729   2.823   5.682
  171POPE  H18S16451   0.782   2.747   5.842
  171POPE  H18T16452   0.800   2.655   5.686
  171POPE   C3316453   0.318   3.082   7.004
  171POPE   H3X16454   0.286   3.186   6.983
  171POPE   H3Y16455   0.250   3.022   6.943
  171POPE   C3416456   0.430   3.031   6.926
  171POPE   H4X16457   0.438   2.927   6.962
  171POPE   H4Y16458   0.517   3.086   6.957
  171POPE   C3516459   0.407   3.056   6.778
  171POPE   H5X16460   0.506   3.052   6.730
  171POPE   H5Y16461   0.362   3.158   6.761
  171POPE   C3616462   0.315   2.956   6.710
  171POPE   H6X16463   0.220   3.004   6.732
  171POPE   H6Y16464   0.316   2.855   6.755
  171POPE   C3716465   0.335   2.945   6.559
  171POPE   H7X16466   0.247   2.894   6.514
  171POPE   H7Y16467   0.424   2.883   6.540
  171POPE   C3816468   0.357   3.081   6.492
  171POPE   H8X16469   0.466   3.100   6.497
  171POPE   H8Y16470   0.304   3.164   6.545
  171POPE   C3916471   0.304   3.073   6.349
  171POPE   H9X16472   0.193   3.074   6.351
  171POPE   H9Y16473   0.338   2.976   6.306
  171POPE  C31016474   0.353   3.181   6.256
  171POPE  H10X16475   0.371   3.278   6.307
  171POPE  H10Y16476   0.271   3.199   6.183
  171POPE  C31116477   0.480   3.127   6.190
  171POPE  H11X16478   0.464   3.031   6.136
  171POPE  H11Y16479   0.561   3.119   6.265
  171POPE  C31216480   0.524   3.217   6.084
  171POPE  H12X16481   0.621   3.197   6.033
  171POPE  H12Y16482   0.536   3.313   6.139
  171POPE  C31316483   0.410   3.218   5.982
  171POPE  H13X16484   0.474   3.279   5.926
  171POPE  H13Y16485   0.318   3.273   6.010
  171POPE  C31416486   0.401   3.115   5.870
  171POPE  H14X16487   0.341   3.038   5.922
  171POPE  H14Y16488   0.506   3.091   5.844
  171POPE  C31516489   0.328   3.152   5.740
  171POPE  H15X16490   0.363   3.220   5.661
  171POPE  H15Y16491   0.249   3.212   5.785
  171POPE  C31616492   0.302   3.036   5.648
  171POPE  H16X16493   0.403   3.003   5.616
  171POPE  H16Y16494   0.247   3.071   5.557
  171POPE  H16Z16495   0.247   2.957   5.701
  172POPE     N16496   0.547   3.508   7.676
  172POPE   HN116497   0.468   3.442   7.656
  172POPE   HN216498   0.623   3.458   7.726
  172POPE   HN316499   0.512   3.588   7.732
  172POPE   C1216500   0.596   3.564   7.546
  172POPE  H12A16501   0.707   3.558   7.549
  172POPE  H12B16502   0.563   3.669   7.542
  172POPE   C1116503   0.542   3.483   7.428
  172POPE  H11A16504   0.567   3.375   7.441
  172POPE  H11B16505   0.594   3.516   7.334
  172POPE     P16506   0.332   3.582   7.308
  172POPE   O1316507   0.379   3.720   7.326
  172POPE   O1416508   0.188   3.551   7.297
  172POPE   O1116509   0.403   3.523   7.180
  172POPE   O1216510   0.400   3.492   7.421
  172POPE    C116511   0.372   3.390   7.144
  172POPE    HA16512   0.269   3.383   7.101
  172POPE    HB16513   0.374   3.321   7.232
  172POPE    C216514   0.475   3.335   7.041
  172POPE    HS16515   0.476   3.230   7.067
  172POPE   O2116516   0.610   3.377   7.057
  172POPE   C2116517   0.695   3.315   6.976
  172POPE   O2216518   0.678   3.216   6.910
  172POPE   C2216519   0.824   3.393   6.975
  172POPE   H2R16520   0.902   3.330   6.930
  172POPE   H2S16521   0.848   3.411   7.081
  172POPE    C316522   0.424   3.375   6.898
  172POPE    HX16523   0.319   3.340   6.885
  172POPE    HY16524   0.480   3.327   6.815
  172POPE   O3116525   0.431   3.517   6.886
  172POPE   C3116526   0.320   3.576   6.848
  172POPE   O3216527   0.228   3.524   6.787
  172POPE   C3216528   0.324   3.720   6.892
  172POPE   H2X16529   0.333   3.721   7.004
  172POPE   H2Y16530   0.227   3.767   6.867
  172POPE   C2316531   0.815   3.522   6.892
  172POPE   H3R16532   0.914   3.571   6.897
  172POPE   H3S16533   0.737   3.593   6.932
  172POPE   C2416534   0.783   3.495   6.744
  172POPE   H4R16535   0.682   3.447   6.737
  172POPE   H4S16536   0.856   3.424   6.700
  172POPE   C2516537   0.784   3.623   6.661
  172POPE   H5R16538   0.889   3.659   6.648
  172POPE   H5S16539   0.729   3.701   6.719
  172POPE   C2616540   0.712   3.609   6.526
  172POPE   H6R16541   0.692   3.713   6.489
  172POPE   H6S16542   0.617   3.554   6.543
  172POPE   C2716543   0.786   3.540   6.413
  172POPE   H7R16544   0.834   3.448   6.445
  172POPE   H7S16545   0.854   3.619   6.377
  172POPE   C2816546   0.708   3.495   6.291
  172POPE   H8R16547   0.629   3.425   6.326
  172POPE   H8S16548   0.779   3.440   6.224
  172POPE   C2916549   0.665   3.624   6.230
  172POPE   H9116550   0.744   3.700   6.228
  172POPE  C21016551   0.543   3.661   6.191
  172POPE  H10116552   0.532   3.757   6.141
  172POPE  C21116553   0.420   3.577   6.201
  172POPE  H11R16554   0.344   3.622   6.268
  172POPE  H11S16555   0.442   3.475   6.241
  172POPE  C21216556   0.364   3.573   6.059
  172POPE  H12R16557   0.352   3.668   6.005
  172POPE  H12S16558   0.265   3.520   6.065
  172POPE  C21316559   0.459   3.498   5.968
  172POPE  H13R16560   0.373   3.437   5.932
  172POPE  H13S16561   0.545   3.452   6.020
  172POPE  C21416562   0.510   3.525   5.829
  172POPE  H14R16563   0.614   3.561   5.837
  172POPE  H14S16564   0.434   3.589   5.781
  172POPE  C21516565   0.516   3.398   5.748
  172POPE  H15R16566   0.419   3.356   5.769
  172POPE  H15S16567   0.596   3.322   5.775
  172POPE  C21616568   0.493   3.406   5.603
  172POPE  H16R16569   0.530   3.305   5.569
  172POPE  H16S16570   0.555   3.495   5.589
  172POPE  C21716571   0.388   3.483   5.522
  172POPE  H17R16572   0.378   3.579   5.578
  172POPE  H17S16573   0.303   3.414   5.524
  172POPE  C21816574   0.414   3.526   5.375
  172POPE  H18R16575   0.501   3.589   5.372
  172POPE  H18S16576   0.342   3.595   5.331
  172POPE  H18T16577   0.435   3.443   5.304
  172POPE   C3316578   0.445   3.791   6.829
  172POPE   H3X16579   0.537   3.730   6.834
  172POPE   H3Y16580   0.469   3.877   6.895
  172POPE   C3416581   0.422   3.839   6.684
  172POPE   H4X16582   0.327   3.896   6.670
  172POPE   H4Y16583   0.413   3.754   6.615
  172POPE   C3516584   0.538   3.927   6.634
  172POPE   H5X16585   0.634   3.873   6.642
  172POPE   H5Y16586   0.558   4.008   6.704
  172POPE   C3616587   0.516   3.976   6.491
  172POPE   H6X16588   0.414   4.020   6.478
  172POPE   H6Y16589   0.524   3.885   6.429
  172POPE   C3716590   0.624   4.073   6.441
  172POPE   H7X16591   0.720   4.021   6.437
  172POPE   H7Y16592   0.640   4.150   6.517
  172POPE   C3816593   0.596   4.138   6.304
  172POPE   H8X16594   0.682   4.198   6.270
  172POPE   H8Y16595   0.521   4.214   6.321
  172POPE   C3916596   0.546   4.038   6.198
  172POPE   H9X16597   0.454   3.987   6.234
  172POPE   H9Y16598   0.625   3.961   6.185
  172POPE  C31016599   0.521   4.093   6.057
  172POPE  H10X16600   0.452   4.178   6.056
  172POPE  H10Y16601   0.476   4.012   5.995
  172POPE  C31116602   0.652   4.143   5.997
  172POPE  H11X16603   0.736   4.096   6.055
  172POPE  H11Y16604   0.656   4.251   6.016
  172POPE  C31216605   0.676   4.110   5.850
  172POPE  H12X16606   0.781   4.135   5.824
  172POPE  H12Y16607   0.610   4.169   5.784
  172POPE  C31316608   0.660   3.962   5.824
  172POPE  H13X16609   0.554   3.931   5.820
  172POPE  H13Y16610   0.713   3.903   5.902
  172POPE  C31416611   0.716   3.919   5.694
  172POPE  H14X16612   0.820   3.956   5.674
  172POPE  H14Y16613   0.652   3.954   5.609
  172POPE  C31516614   0.715   3.769   5.706
  172POPE  H15X16615   0.618   3.717   5.685
  172POPE  H15Y16616   0.774   3.723   5.788
  172POPE  C31616617   0.800   3.728   5.604
  172POPE  H16X16618   0.898   3.775   5.597
  172POPE  H16Y16619   0.748   3.705   5.514
  172POPE  H16Z16620   0.827   3.628   5.622
  173POPE     N16621   1.615   7.486   7.427
  173POPE   HN116622   1.668   7.573   7.410
  173POPE   HN216623   1.558   7.493   7.514
  173POPE   HN316624   1.677   7.402   7.434
  173POPE   C1216625   1.524   7.464   7.309
  173POPE  H12A16626   1.585   7.428   7.223
  173POPE  H12B16627   1.480   7.563   7.285
  173POPE   C1116628   1.417   7.361   7.344
  173POPE  H11A16629   1.335   7.360   7.268
  173POPE  H11B16630   1.371   7.389   7.441
  173POPE     P16631   1.415   7.113   7.423
  173POPE   O1316632   1.440   7.135   7.565
  173POPE   O1416633   1.451   6.986   7.356
  173POPE   O1116634   1.264   7.150   7.405
  173POPE   O1216635   1.482   7.234   7.347
  173POPE    C116636   1.164   7.058   7.367
  173POPE    HA16637   1.096   7.036   7.453
  173POPE    HB16638   1.205   6.959   7.338
  173POPE    C216639   1.085   7.125   7.252
  173POPE    HS16640   1.003   7.068   7.207
  173POPE   O2116641   1.166   7.182   7.149
  173POPE   C2116642   1.243   7.102   7.079
  173POPE   O2216643   1.271   6.986   7.103
  173POPE   C2216644   1.298   7.175   6.959
  173POPE   H2R16645   1.220   7.242   6.917
  173POPE   H2S16646   1.327   7.102   6.881
  173POPE    C316647   0.991   7.230   7.301
  173POPE    HX16648   1.026   7.301   7.376
  173POPE    HY16649   0.916   7.167   7.356
  173POPE   O3116650   0.933   7.282   7.180
  173POPE   C3116651   0.970   7.401   7.148
  173POPE   O3216652   1.066   7.460   7.198
  173POPE   C3216653   0.888   7.455   7.030
  173POPE   H2X16654   0.791   7.494   7.067
  173POPE   H2Y16655   0.867   7.371   6.961
  173POPE   C2316656   1.419   7.251   7.012
  173POPE   H3R16657   1.472   7.188   7.088
  173POPE   H3S16658   1.385   7.343   7.063
  173POPE   C2416659   1.520   7.281   6.902
  173POPE   H4R16660   1.539   7.192   6.839
  173POPE   H4S16661   1.614   7.314   6.952
  173POPE   C2516662   1.474   7.394   6.813
  173POPE   H5R16663   1.478   7.469   6.892
  173POPE   H5S16664   1.372   7.384   6.770
  173POPE   C2616665   1.574   7.433   6.706
  173POPE   H6R16666   1.600   7.345   6.645
  173POPE   H6S16667   1.663   7.479   6.757
  173POPE   C2716668   1.524   7.540   6.616
  173POPE   H7R16669   1.480   7.615   6.684
  173POPE   H7S16670   1.448   7.502   6.543
  173POPE   C2816671   1.630   7.616   6.541
  173POPE   H8R16672   1.696   7.679   6.608
  173POPE   H8S16673   1.561   7.676   6.487
  173POPE   C2916674   1.699   7.529   6.443
  173POPE   H9116675   1.766   7.464   6.490
  173POPE  C21016676   1.696   7.510   6.311
  173POPE  H10116677   1.782   7.459   6.267
  173POPE  C21116678   1.611   7.582   6.212
  173POPE  H11R16679   1.666   7.591   6.116
  173POPE  H11S16680   1.585   7.686   6.242
  173POPE  C21216681   1.480   7.520   6.200
  173POPE  H12R16682   1.430   7.537   6.298
  173POPE  H12S16683   1.495   7.413   6.177
  173POPE  C21316684   1.410   7.585   6.084
  173POPE  H13R16685   1.331   7.514   6.053
  173POPE  H13S16686   1.480   7.602   5.998
  173POPE  C21416687   1.339   7.712   6.122
  173POPE  H14R16688   1.409   7.793   6.154
  173POPE  H14S16689   1.272   7.689   6.207
  173POPE  C21516690   1.253   7.750   6.005
  173POPE  H15R16691   1.176   7.819   6.044
  173POPE  H15S16692   1.184   7.674   5.969
  173POPE  C21616693   1.340   7.806   5.891
  173POPE  H16R16694   1.385   7.722   5.834
  173POPE  H16S16695   1.425   7.867   5.929
  173POPE  C21716696   1.255   7.886   5.796
  173POPE  H17R16697   1.317   7.936   5.721
  173POPE  H17S16698   1.217   7.981   5.820
  173POPE  C21816699   1.124   7.822   5.767
  173POPE  H18R16700   1.072   7.887   5.692
  173POPE  H18S16701   1.056   7.794   5.847
  173POPE  H18T16702   1.162   7.724   5.732
  173POPE   C3316703   0.968   7.569   6.964
  173POPE   H3X16704   1.073   7.537   6.956
  173POPE   H3Y16705   0.963   7.660   7.028
  173POPE   C3416706   0.930   7.608   6.822
  173POPE   H4X16707   1.000   7.683   6.786
  173POPE   H4Y16708   0.831   7.657   6.820
  173POPE   C3516709   0.935   7.495   6.719
  173POPE   H5X16710   0.915   7.545   6.623
  173POPE   H5Y16711   0.857   7.426   6.753
  173POPE   C3616712   1.051   7.400   6.693
  173POPE   H6X16713   1.059   7.325   6.773
  173POPE   H6Y16714   1.152   7.436   6.694
  173POPE   C3716715   1.045   7.350   6.548
  173POPE   H7X16716   1.036   7.435   6.477
  173POPE   H7Y16717   0.954   7.288   6.532
  173POPE   C3816718   1.171   7.274   6.515
  173POPE   H8X16719   1.175   7.190   6.588
  173POPE   H8Y16720   1.262   7.338   6.527
  173POPE   C3916721   1.174   7.216   6.374
  173POPE   H9X16722   1.181   7.301   6.304
  173POPE   H9Y16723   1.077   7.165   6.355
  173POPE  C31016724   1.289   7.114   6.363
  173POPE  H10X16725   1.241   7.016   6.390
  173POPE  H10Y16726   1.364   7.134   6.442
  173POPE  C31116727   1.370   7.101   6.230
  173POPE  H11X16728   1.417   7.000   6.234
  173POPE  H11Y16729   1.446   7.180   6.217
  173POPE  C31216730   1.287   7.109   6.103
  173POPE  H12X16731   1.199   7.084   6.159
  173POPE  H12Y16732   1.309   7.030   6.028
  173POPE  C31316733   1.259   7.248   6.044
  173POPE  H13X16734   1.359   7.294   6.035
  173POPE  H13Y16735   1.191   7.303   6.111
  173POPE  C31416736   1.194   7.260   5.905
  173POPE  H14X16737   1.083   7.254   5.912
  173POPE  H14Y16738   1.232   7.181   5.836
  173POPE  C31516739   1.190   7.398   5.853
  173POPE  H15X16740   1.296   7.429   5.849
  173POPE  H15Y16741   1.132   7.457   5.929
  173POPE  C31616742   1.119   7.404   5.719
  173POPE  H16X16743   1.129   7.507   5.680
  173POPE  H16Y16744   1.011   7.380   5.729
  173POPE  H16Z16745   1.164   7.333   5.646
  174POPE     N16746   2.743   0.372   7.484
  174POPE   HN116747   2.830   0.425   7.463
  174POPE   HN216748   2.696   0.344   7.394
  174POPE   HN316749   2.675   0.425   7.542
  174POPE   C1216750   2.785   0.248   7.557
  174POPE  H12A16751   2.787   0.272   7.663
  174POPE  H12B16752   2.889   0.222   7.527
  174POPE   C1116753   2.690   0.130   7.530
  174POPE  H11A16754   2.589   0.154   7.570
  174POPE  H11B16755   2.732   0.044   7.587
  174POPE     P16756   2.605   0.002   7.300
  174POPE   O1316757   2.524  -0.093   7.376
  174POPE   O1416758   2.691  -0.057   7.197
  174POPE   O1116759   2.493   0.097   7.246
  174POPE   O1216760   2.689   0.105   7.391
  174POPE    C116761   2.365   0.028   7.237
  174POPE    HA16762   2.290   0.102   7.253
  174POPE    HB16763   2.326  -0.030   7.324
  174POPE    C216764   2.352  -0.052   7.105
  174POPE    HS16765   2.396  -0.153   7.120
  174POPE   O2116766   2.434   0.020   7.011
  174POPE   C2116767   2.499  -0.047   6.917
  174POPE   O2216768   2.488  -0.165   6.893
  174POPE   C2216769   2.582   0.050   6.833
  174POPE   H2R16770   2.676   0.072   6.883
  174POPE   H2S16771   2.539   0.146   6.848
  174POPE    C316772   2.204  -0.066   7.059
  174POPE    HX16773   2.125   0.004   7.092
  174POPE    HY16774   2.161  -0.157   7.105
  174POPE   O3116775   2.207  -0.067   6.917
  174POPE   C3116776   2.136   0.026   6.854
  174POPE   O3216777   2.073   0.118   6.896
  174POPE   C3216778   2.140  -0.003   6.716
  174POPE   H2X16779   2.034  -0.018   6.687
  174POPE   H2Y16780   2.215  -0.090   6.706
  174POPE   C2316781   2.606   0.011   6.684
  174POPE   H3R16782   2.542   0.052   6.605
  174POPE   H3S16783   2.599  -0.097   6.668
  174POPE   C2416784   2.745   0.053   6.641
  174POPE   H4R16785   2.758   0.020   6.537
  174POPE   H4S16786   2.821   0.012   6.710
  174POPE   C2516787   2.771   0.201   6.643
  174POPE   H5R16788   2.880   0.208   6.624
  174POPE   H5S16789   2.749   0.244   6.746
  174POPE   C2616790   2.702   0.272   6.522
  174POPE   H6R16791   2.648   0.299   6.612
  174POPE   H6S16792   2.672   0.197   6.449
  174POPE   C2716793   2.655   0.426   6.479
  174POPE   H7R16794   2.751   0.413   6.521
  174POPE   H7S16795   2.622   0.503   6.545
  174POPE   C2816796   2.634   0.492   6.330
  174POPE   H8R16797   2.646   0.419   6.248
  174POPE   H8S16798   2.680   0.582   6.294
  174POPE   C2916799   2.506   0.526   6.321
  174POPE   H9116800   2.466   0.535   6.420
  174POPE  C21016801   2.437   0.556   6.219
  174POPE  H10116802   2.332   0.525   6.228
  174POPE  C21116803   2.460   0.572   6.083
  174POPE  H11R16804   2.564   0.560   6.067
  174POPE  H11S16805   2.441   0.681   6.082
  174POPE  C21216806   2.371   0.513   5.978
  174POPE  H12R16807   2.262   0.496   6.001
  174POPE  H12S16808   2.427   0.429   5.933
  174POPE  C21316809   2.392   0.593   5.864
  174POPE  H13R16810   2.478   0.660   5.884
  174POPE  H13S16811   2.294   0.633   5.861
  174POPE  C21416812   2.345   0.576   5.728
  174POPE  H14R16813   2.448   0.555   5.700
  174POPE  H14S16814   2.318   0.663   5.667
  174POPE  C21516815   2.222   0.490   5.720
  174POPE  H15R16816   2.148   0.530   5.793
  174POPE  H15S16817   2.255   0.392   5.756
  174POPE  C21616818   2.161   0.478   5.580
  174POPE  H16R16819   2.212   0.501   5.489
  174POPE  H16S16820   2.085   0.555   5.567
  174POPE  C21716821   2.146   0.334   5.535
  174POPE  H17R16822   2.077   0.308   5.604
  174POPE  H17S16823   2.222   0.258   5.561
  174POPE  C21816824   2.094   0.298   5.398
  174POPE  H18R16825   2.018   0.373   5.370
  174POPE  H18S16826   2.049   0.197   5.396
  174POPE  H18T16827   2.165   0.314   5.318
  174POPE   C3316828   2.188   0.094   6.623
  174POPE   H3X16829   2.288   0.065   6.656
  174POPE   H3Y16830   2.136   0.191   6.616
  174POPE   C3416831   2.228   0.053   6.489
  174POPE   H4X16832   2.120   0.032   6.468
  174POPE   H4Y16833   2.316  -0.018   6.476
  174POPE   C3516834   2.226   0.120   6.366
  174POPE   H5X16835   2.278   0.155   6.446
  174POPE   H5Y16836   2.165   0.212   6.367
  174POPE   C3616837   2.272   0.058   6.217
  174POPE   H6X16838   2.243   0.152   6.188
  174POPE   H6Y16839   2.206   0.019   6.149
  174POPE   C3716840   2.393  -0.026   6.151
  174POPE   H7X16841   2.374  -0.044   6.041
  174POPE   H7Y16842   2.398  -0.116   6.206
  174POPE   C3816843   2.544  -0.000   6.170
  174POPE   H8X16844   2.575   0.051   6.266
  174POPE   H8Y16845   2.574   0.072   6.091
  174POPE   C3916846   2.624  -0.107   6.227
  174POPE   H9X16847   2.607  -0.179   6.146
  174POPE   H9Y16848   2.577  -0.136   6.325
  174POPE  C31016849   2.766  -0.052   6.243
  174POPE  H10X16850   2.826  -0.143   6.234
  174POPE  H10Y16851   2.784   0.001   6.340
  174POPE  C31116852   2.812   0.045   6.134
  174POPE  H11X16853   2.918   0.070   6.153
  174POPE  H11Y16854   2.754   0.140   6.141
  174POPE  C31216855   2.797  -0.012   5.993
  174POPE  H12X16856   2.691  -0.040   5.973
  174POPE  H12Y16857   2.857  -0.105   5.988
  174POPE  C31316858   2.841   0.086   5.887
  174POPE  H13X16859   2.777   0.178   5.895
  174POPE  H13Y16860   2.822   0.042   5.787
  174POPE  C31416861   2.990   0.120   5.895
  174POPE  H14X16862   3.054   0.030   5.900
  174POPE  H14Y16863   3.012   0.184   5.985
  174POPE  C31516864   3.033   0.198   5.773
  174POPE  H15X16865   3.107   0.275   5.807
  174POPE  H15Y16866   2.938   0.245   5.739
  174POPE  C31616867   3.093   0.124   5.656
  174POPE  H16X16868   3.189   0.079   5.688
  174POPE  H16Y16869   3.112   0.194   5.572
  174POPE  H16Z16870   3.022   0.045   5.622
  175POPE     N16871   7.911   7.645   7.490
  175POPE   HN116872   7.875   7.735   7.454
  175POPE   HN216873   7.952   7.655   7.585
  175POPE   HN316874   7.985   7.608   7.425
  175POPE   C1216875   7.795   7.549   7.495
  175POPE  H12A16876   7.741   7.553   7.399
  175POPE  H12B16877   7.725   7.586   7.570
  175POPE   C1116878   7.842   7.408   7.532
  175POPE  H11A16879   7.755   7.346   7.566
  175POPE  H11B16880   7.914   7.407   7.617
  175POPE     P16881   7.840   7.242   7.332
  175POPE   O1316882   7.869   7.107   7.385
  175POPE   O1416883   7.884   7.278   7.195
  175POPE   O1116884   7.687   7.280   7.359
  175POPE   O1216885   7.911   7.354   7.421
  175POPE    C116886   7.612   7.366   7.272
  175POPE    HA16887   7.675   7.434   7.209
  175POPE    HB16888   7.530   7.417   7.325
  175POPE    C216889   7.546   7.284   7.169
  175POPE    HS16890   7.484   7.215   7.238
  175POPE   O2116891   7.663   7.230   7.093
  175POPE   C2116892   7.615   7.125   7.044
  175POPE   O2216893   7.500   7.103   7.074
  175POPE   C2216894   7.706   7.033   6.956
  175POPE   H2R16895   7.734   6.947   7.022
  175POPE   H2S16896   7.798   7.093   6.942
  175POPE    C316897   7.448   7.360   7.072
  175POPE    HX16898   7.363   7.401   7.131
  175POPE    HY16899   7.396   7.296   6.998
  175POPE   O3116900   7.521   7.460   6.999
  175POPE   C3116901   7.580   7.417   6.887
  175POPE   O3216902   7.558   7.315   6.826
  175POPE   C3216903   7.697   7.504   6.857
  175POPE   H2X16904   7.782   7.460   6.914
  175POPE   H2Y16905   7.674   7.606   6.895
  175POPE   C2316906   7.650   6.978   6.816
  175POPE   H3R16907   7.625   7.057   6.745
  175POPE   H3S16908   7.580   6.894   6.804
  175POPE   C2416909   7.737   6.886   6.751
  175POPE   H4R16910   7.743   6.788   6.803
  175POPE   H4S16911   7.812   6.968   6.770
  175POPE   C2516912   7.726   6.830   6.616
  175POPE   H5R16913   7.664   6.739   6.613
  175POPE   H5S16914   7.819   6.790   6.584
  175POPE   C2616915   7.723   6.943   6.524
  175POPE   H6R16916   7.802   7.020   6.534
  175POPE   H6S16917   7.624   6.983   6.555
  175POPE   C2716918   7.731   6.893   6.384
  175POPE   H7R16919   7.659   6.809   6.393
  175POPE   H7S16920   7.819   6.848   6.342
  175POPE   C2816921   7.709   7.001   6.283
  175POPE   H8R16922   7.674   6.969   6.191
  175POPE   H8S16923   7.785   7.080   6.270
  175POPE   C2916924   7.590   7.045   6.339
  175POPE   H9116925   7.496   6.986   6.325
  175POPE  C21016926   7.573   7.165   6.348
  175POPE  H10116927   7.474   7.151   6.374
  175POPE  C21116928   7.631   7.298   6.318
  175POPE  H11R16929   7.720   7.277   6.257
  175POPE  H11S16930   7.644   7.345   6.416
  175POPE  C21216931   7.568   7.412   6.235
  175POPE  H12R16932   7.497   7.478   6.292
  175POPE  H12S16933   7.519   7.399   6.140
  175POPE  C21316934   7.674   7.509   6.206
  175POPE  H13R16935   7.708   7.547   6.305
  175POPE  H13S16936   7.598   7.571   6.154
  175POPE  C21416937   7.781   7.494   6.098
  175POPE  H14R16938   7.852   7.414   6.124
  175POPE  H14S16939   7.848   7.583   6.108
  175POPE  C21516940   7.728   7.489   5.951
  175POPE  H15R16941   7.655   7.407   5.937
  175POPE  H15S16942   7.821   7.464   5.896
  175POPE  C21616943   7.664   7.615   5.884
  175POPE  H16R16944   7.739   7.698   5.884
  175POPE  H16S16945   7.572   7.647   5.935
  175POPE  C21716946   7.630   7.600   5.740
  175POPE  H17R16947   7.578   7.685   5.689
  175POPE  H17S16948   7.573   7.506   5.718
  175POPE  C21816949   7.765   7.598   5.682
  175POPE  H18R16950   7.739   7.593   5.572
  175POPE  H18S16951   7.831   7.517   5.716
  175POPE  H18T16952   7.835   7.680   5.697
  175POPE   C3316953   7.730   7.507   6.706
  175POPE   H3X16954   7.639   7.536   6.648
  175POPE   H3Y16955   7.763   7.408   6.668
  175POPE   C3416956   7.845   7.607   6.689
  175POPE   H4X16957   7.931   7.570   6.750
  175POPE   H4Y16958   7.813   7.705   6.732
  175POPE   C3516959   7.893   7.636   6.547
  175POPE   H5X16960   7.964   7.722   6.554
  175POPE   H5Y16961   7.804   7.668   6.489
  175POPE   C3616962   7.962   7.522   6.470
  175POPE   H6X16963   7.998   7.565   6.375
  175POPE   H6Y16964   7.890   7.443   6.441
  175POPE   C3716965   8.086   7.464   6.537
  175POPE   H7X16966   8.065   7.437   6.643
  175POPE   H7Y16967   8.164   7.544   6.540
  175POPE   C3816968   8.142   7.342   6.461
  175POPE   H8X16969   8.241   7.313   6.502
  175POPE   H8Y16970   8.157   7.373   6.355
  175POPE   C3916971   8.048   7.220   6.464
  175POPE   H9X16972   7.951   7.242   6.414
  175POPE   H9Y16973   8.026   7.196   6.571
  175POPE  C31016974   8.104   7.093   6.400
  175POPE  H10X16975   8.031   7.013   6.422
  175POPE  H10Y16976   8.203   7.070   6.445
  175POPE  C31116977   8.114   7.094   6.248
  175POPE  H11X16978   8.169   7.184   6.212
  175POPE  H11Y16979   8.012   7.096   6.203
  175POPE  C31216980   8.185   6.973   6.191
  175POPE  H12X16981   8.148   6.876   6.231
  175POPE  H12Y16982   8.294   6.977   6.219
  175POPE  C31316983   8.166   6.982   6.041
  175POPE  H13X16984   8.229   7.069   6.008
  175POPE  H13Y16985   8.062   6.994   6.008
  175POPE  C31416986   8.212   6.860   5.972
  175POPE  H14X16987   8.187   6.765   6.023
  175POPE  H14Y16988   8.316   6.886   6.005
  175POPE  C31516989   8.203   6.853   5.816
  175POPE  H15X16990   8.243   6.760   5.769
  175POPE  H15Y16991   8.269   6.930   5.770
  175POPE  C31616992   8.069   6.843   5.756
  175POPE  H16X16993   8.076   6.788   5.658
  175POPE  H16Y16994   8.021   6.940   5.750
  175POPE  H16Z16995   8.010   6.786   5.828
  176POPE     N16996   3.040   2.845   3.625
  176POPE   HN116997   3.109   2.824   3.700
  176POPE   HN216998   2.975   2.916   3.662
  176POPE   HN316999   2.979   2.762   3.610
  176POPE   C1217000   3.113   2.895   3.503
  176POPE  H12A17001   3.040   2.928   3.426
  176POPE  H12B17002   3.170   2.810   3.464
  176POPE   C1117003   3.211   3.006   3.541
  176POPE  H11A17004   3.160   3.086   3.599
  176POPE  H11B17005   3.249   3.053   3.446
  176POPE     P17006   3.456   3.021   3.620
  176POPE   O1317007   3.435   3.157   3.676
  176POPE   O1417008   3.511   3.003   3.485
  176POPE   O1117009   3.535   2.932   3.724
  176POPE   O1217010   3.315   2.946   3.619
  176POPE    C117011   3.479   2.896   3.849
  176POPE    HA17012   3.416   2.806   3.836
  176POPE    HB17013   3.416   2.978   3.891
  176POPE    C217014   3.592   2.862   3.950
  176POPE    HS17015   3.551   2.855   4.053
  176POPE   O2117016   3.701   2.956   3.945
  176POPE   C2117017   3.673   3.075   3.994
  176POPE   O2217018   3.583   3.108   4.068
  176POPE   C2217019   3.782   3.172   3.947
  176POPE   H2R17020   3.747   3.219   3.852
  176POPE   H2S17021   3.872   3.111   3.936
  176POPE    C317022   3.644   2.720   3.914
  176POPE    HX17023   3.685   2.720   3.811
  176POPE    HY17024   3.554   2.655   3.914
  176POPE   O3117025   3.746   2.676   4.003
  176POPE   C3117026   3.702   2.603   4.104
  176POPE   O3217027   3.587   2.566   4.124
  176POPE   C3217028   3.811   2.591   4.204
  176POPE   H2X17029   3.907   2.609   4.152
  176POPE   H2Y17030   3.815   2.486   4.241
  176POPE   C2317031   3.836   3.273   4.049
  176POPE   H3R17032   3.756   3.302   4.115
  176POPE   H3S17033   3.885   3.358   3.996
  176POPE   C2417034   3.922   3.206   4.155
  176POPE   H4R17035   4.010   3.163   4.104
  176POPE   H4S17036   3.860   3.124   4.199
  176POPE   C2517037   3.972   3.295   4.270
  176POPE   H5R17038   4.044   3.372   4.233
  176POPE   H5S17039   4.029   3.224   4.334
  176POPE   C2617040   3.873   3.364   4.366
  176POPE   H6R17041   3.844   3.460   4.322
  176POPE   H6S17042   3.930   3.394   4.456
  176POPE   C2717043   3.743   3.293   4.405
  176POPE   H7R17044   3.694   3.248   4.316
  176POPE   H7S17045   3.672   3.372   4.442
  176POPE   C2817046   3.754   3.189   4.519
  176POPE   H8R17047   3.814   3.103   4.483
  176POPE   H8S17048   3.651   3.150   4.534
  176POPE   C2917049   3.810   3.242   4.649
  176POPE   H9117050   3.920   3.248   4.654
  176POPE  C21017051   3.741   3.280   4.759
  176POPE  H10117052   3.797   3.319   4.846
  176POPE  C21117053   3.591   3.281   4.777
  176POPE  H11R17054   3.540   3.282   4.679
  176POPE  H11S17055   3.562   3.375   4.829
  176POPE  C21217056   3.537   3.161   4.857
  176POPE  H12R17057   3.548   3.068   4.796
  176POPE  H12S17058   3.428   3.177   4.874
  176POPE  C21317059   3.609   3.136   4.991
  176POPE  H13R17060   3.640   3.235   5.031
  176POPE  H13S17061   3.703   3.079   4.972
  176POPE  C21417062   3.529   3.062   5.100
  176POPE  H14R17063   3.457   3.134   5.145
  176POPE  H14S17064   3.601   3.032   5.179
  176POPE  C21517065   3.450   2.936   5.058
  176POPE  H15R17066   3.362   2.967   4.997
  176POPE  H15S17067   3.408   2.893   5.153
  176POPE  C21617068   3.525   2.825   4.981
  176POPE  H16R17069   3.568   2.861   4.886
  176POPE  H16S17070   3.450   2.748   4.955
  176POPE  C21717071   3.641   2.755   5.055
  176POPE  H17R17072   3.731   2.820   5.052
  176POPE  H17S17073   3.664   2.662   4.998
  176POPE  C21817074   3.606   2.717   5.197
  176POPE  H18R17075   3.510   2.662   5.201
  176POPE  H18S17076   3.594   2.812   5.254
  176POPE  H18T17077   3.685   2.656   5.246
  176POPE   C3317078   3.775   2.694   4.316
  176POPE   H3X17079   3.668   2.697   4.344
  176POPE   H3Y17080   3.817   2.794   4.292
  176POPE   C3417081   3.827   2.652   4.450
  176POPE   H4X17082   3.911   2.613   4.403
  176POPE   H4Y17083   3.798   2.553   4.489
  176POPE   C3517084   3.869   2.763   4.552
  176POPE   H5X17085   3.875   2.709   4.650
  176POPE   H5Y17086   3.785   2.832   4.556
  176POPE   C3617087   3.997   2.853   4.539
  176POPE   H6X17088   4.013   2.909   4.446
  176POPE   H6Y17089   4.088   2.800   4.514
  176POPE   C3717090   4.034   2.928   4.673
  176POPE   H7X17091   3.979   3.023   4.669
  176POPE   H7Y17092   4.144   2.947   4.674
  176POPE   C3817093   4.008   2.863   4.814
  176POPE   H8X17094   4.036   2.760   4.826
  176POPE   H8Y17095   3.902   2.841   4.836
  176POPE   C3917096   4.096   2.920   4.927
  176POPE   H9X17097   4.204   2.894   4.917
  176POPE   H9Y17098   4.064   2.870   5.022
  176POPE  C31017099   4.086   3.071   4.924
  176POPE  H10X17100   3.979   3.097   4.911
  176POPE  H10Y17101   4.143   3.104   4.835
  176POPE  C31117102   4.143   3.139   5.047
  176POPE  H11X17103   4.164   3.247   5.032
  176POPE  H11Y17104   4.237   3.090   5.073
  176POPE  C31217105   4.043   3.122   5.160
  176POPE  H12X17106   4.022   3.014   5.161
  176POPE  H12Y17107   3.947   3.171   5.138
  176POPE  C31317108   4.095   3.180   5.292
  176POPE  H13X17109   4.131   3.278   5.264
  176POPE  H13Y17110   4.187   3.124   5.323
  176POPE  C31417111   3.986   3.180   5.406
  176POPE  H14X17112   3.945   3.087   5.409
  176POPE  H14Y17113   3.891   3.225   5.381
  176POPE  C31517114   4.037   3.189   5.554
  176POPE  H15X17115   3.999   3.291   5.571
  176POPE  H15Y17116   4.147   3.174   5.550
  176POPE  C31617117   3.977   3.155   5.690
  176POPE  H16X17118   3.868   3.177   5.685
  176POPE  H16Y17119   4.026   3.217   5.768
  176POPE  H16Z17120   4.005   3.052   5.715
  177POPE     N17121   4.121   3.141   3.850
  177POPE   HN117122   4.075   3.177   3.937
  177POPE   HN217123   4.212   3.097   3.877
  177POPE   HN317124   4.145   3.222   3.789
  177POPE   C1217125   4.036   3.050   3.762
  177POPE  H12A17126   3.929   3.064   3.771
  177POPE  H12B17127   4.048   2.948   3.789
  177POPE   C1117128   4.069   3.062   3.615
  177POPE  H11A17129   4.005   2.989   3.559
  177POPE  H11B17130   4.175   3.031   3.601
  177POPE     P17131   4.133   3.283   3.489
  177POPE   O1317132   4.109   3.427   3.513
  177POPE   O1417133   4.151   3.232   3.352
  177POPE   O1117134   4.258   3.239   3.568
  177POPE   O1217135   4.035   3.195   3.574
  177POPE    C117136   4.381   3.302   3.543
  177POPE    HA17137   4.379   3.397   3.483
  177POPE    HB17138   4.450   3.233   3.489
  177POPE    C217139   4.419   3.340   3.682
  177POPE    HS17140   4.427   3.250   3.749
  177POPE   O2117141   4.340   3.448   3.732
  177POPE   C2117142   4.325   3.460   3.861
  177POPE   O2217143   4.349   3.378   3.947
  177POPE   C2217144   4.261   3.595   3.884
  177POPE   H2R17145   4.169   3.601   3.822
  177POPE   H2S17146   4.337   3.670   3.858
  177POPE    C317147   4.550   3.385   3.679
  177POPE    HX17148   4.571   3.480   3.621
  177POPE    HY17149   4.607   3.308   3.620
  177POPE   O3117150   4.590   3.390   3.818
  177POPE   C3117151   4.659   3.282   3.865
  177POPE   O3217152   4.683   3.176   3.814
  177POPE   C3217153   4.721   3.321   3.988
  177POPE   H2X17154   4.626   3.354   4.037
  177POPE   H2Y17155   4.795   3.398   3.952
  177POPE   C2317156   4.233   3.624   4.031
  177POPE   H3R17157   4.329   3.628   4.088
  177POPE   H3S17158   4.172   3.541   4.072
  177POPE   C2417159   4.161   3.755   4.056
  177POPE   H4R17160   4.081   3.775   3.981
  177POPE   H4S17161   4.230   3.842   4.051
  177POPE   C2517162   4.098   3.754   4.194
  177POPE   H5R17163   4.017   3.678   4.193
  177POPE   H5S17164   4.057   3.854   4.217
  177POPE   C2617165   4.188   3.723   4.312
  177POPE   H6R17166   4.226   3.619   4.301
  177POPE   H6S17167   4.133   3.728   4.410
  177POPE   C2717168   4.299   3.823   4.328
  177POPE   H7R17169   4.261   3.920   4.369
  177POPE   H7S17170   4.354   3.846   4.234
  177POPE   C2817171   4.389   3.771   4.433
  177POPE   H8R17172   4.331   3.760   4.525
  177POPE   H8S17173   4.462   3.850   4.444
  177POPE   C2917174   4.455   3.647   4.397
  177POPE   H9117175   4.529   3.674   4.320
  177POPE  C21017176   4.431   3.524   4.449
  177POPE  H10117177   4.483   3.436   4.408
  177POPE  C21117178   4.333   3.488   4.556
  177POPE  H11R17179   4.273   3.402   4.522
  177POPE  H11S17180   4.280   3.576   4.593
  177POPE  C21217181   4.403   3.437   4.677
  177POPE  H12R17182   4.484   3.510   4.688
  177POPE  H12S17183   4.433   3.336   4.637
  177POPE  C21317184   4.350   3.408   4.818
  177POPE  H13R17185   4.413   3.331   4.868
  177POPE  H13S17186   4.252   3.364   4.792
  177POPE  C21417187   4.337   3.527   4.917
  177POPE  H14R17188   4.268   3.501   4.998
  177POPE  H14S17189   4.283   3.593   4.850
  177POPE  C21517190   4.460   3.592   4.988
  177POPE  H15R17191   4.531   3.615   4.909
  177POPE  H15S17192   4.513   3.521   5.054
  177POPE  C21617193   4.446   3.724   5.069
  177POPE  H16R17194   4.379   3.713   5.154
  177POPE  H16S17195   4.402   3.807   5.020
  177POPE  C21717196   4.567   3.817   5.072
  177POPE  H17R17197   4.538   3.921   5.105
  177POPE  H17S17198   4.620   3.833   4.975
  177POPE  C21817199   4.647   3.749   5.171
  177POPE  H18R17200   4.731   3.812   5.192
  177POPE  H18S17201   4.676   3.647   5.135
  177POPE  H18T17202   4.591   3.744   5.266
  177POPE   C3317203   4.769   3.222   4.091
  177POPE   H3X17204   4.831   3.152   4.035
  177POPE   H3Y17205   4.679   3.179   4.141
  177POPE   C3417206   4.852   3.289   4.198
  177POPE   H4X17207   4.768   3.307   4.258
  177POPE   H4Y17208   4.921   3.366   4.159
  177POPE   C3517209   4.898   3.237   4.329
  177POPE   H5X17210   4.941   3.164   4.267
  177POPE   H5Y17211   4.820   3.164   4.355
  177POPE   C3617212   4.975   3.323   4.458
  177POPE   H6X17213   5.049   3.384   4.413
  177POPE   H6Y17214   5.021   3.254   4.527
  177POPE   C3717215   4.943   3.440   4.569
  177POPE   H7X17216   4.850   3.431   4.615
  177POPE   H7Y17217   4.915   3.545   4.544
  177POPE   C3817218   4.996   3.452   4.697
  177POPE   H8X17219   4.944   3.546   4.734
  177POPE   H8Y17220   5.098   3.473   4.678
  177POPE   C3917221   4.992   3.327   4.774
  177POPE   H9X17222   5.040   3.373   4.860
  177POPE   H9Y17223   5.047   3.240   4.738
  177POPE  C31017224   4.866   3.274   4.833
  177POPE  H10X17225   4.779   3.223   4.810
  177POPE  H10Y17226   4.807   3.320   4.893
  177POPE  C31117227   4.842   3.219   4.946
  177POPE  H11X17228   4.948   3.263   4.956
  177POPE  H11Y17229   4.890   3.123   4.943
  177POPE  C31217230   4.709   3.280   5.054
  177POPE  H12X17231   4.709   3.201   5.134
  177POPE  H12Y17232   4.629   3.303   4.989
  177POPE  C31317233   4.658   3.329   5.201
  177POPE  H13X17234   4.633   3.435   5.192
  177POPE  H13Y17235   4.732   3.324   5.279
  177POPE  C31417236   4.537   3.268   5.274
  177POPE  H14X17237   4.527   3.158   5.278
  177POPE  H14Y17238   4.447   3.309   5.224
  177POPE  C31517239   4.551   3.314   5.419
  177POPE  H15X17240   4.635   3.258   5.467
  177POPE  H15Y17241   4.463   3.279   5.475
  177POPE  C31617242   4.571   3.466   5.433
  177POPE  H16X17243   4.523   3.500   5.527
  177POPE  H16Y17244   4.520   3.519   5.349
  177POPE  H16Z17245   4.677   3.497   5.433
  178POPE     N17246   5.367   3.943   3.609
  178POPE   HN117247   5.406   3.859   3.658
  178POPE   HN217248   5.368   4.020   3.680
  178POPE   HN317249   5.271   3.922   3.575
  178POPE   C1217250   5.462   3.976   3.497
  178POPE  H12A17251   5.421   4.059   3.437
  178POPE  H12B17252   5.472   3.884   3.435
  178POPE   C1117253   5.599   4.012   3.555
  178POPE  H11A17254   5.596   4.114   3.600
  178POPE  H11B17255   5.670   4.017   3.469
  178POPE     P17256   5.727   3.791   3.615
  178POPE   O1317257   5.860   3.802   3.675
  178POPE   O1417258   5.716   3.771   3.469
  178POPE   O1117259   5.644   3.677   3.681
  178POPE   O1217260   5.636   3.916   3.654
  178POPE    C117261   5.597   3.569   3.601
  178POPE    HA17262   5.674   3.526   3.532
  178POPE    HB17263   5.505   3.597   3.544
  178POPE    C217264   5.561   3.454   3.689
  178POPE    HS17265   5.493   3.387   3.635
  178POPE   O2117266   5.493   3.497   3.809
  178POPE   C2117267   5.415   3.595   3.843
  178POPE   O2217268   5.358   3.672   3.766
  178POPE   C2217269   5.375   3.582   3.998
  178POPE   H2R17270   5.450   3.561   4.073
  178POPE   H2S17271   5.317   3.486   4.011
  178POPE    C317272   5.694   3.371   3.723
  178POPE    HX17273   5.737   3.330   3.632
  178POPE    HY17274   5.668   3.275   3.773
  178POPE   O3117275   5.809   3.435   3.785
  178POPE   C3117276   5.794   3.501   3.897
  178POPE   O3217277   5.689   3.539   3.944
  178POPE   C3217278   5.917   3.529   3.982
  178POPE   H2X17279   6.005   3.473   3.949
  178POPE   H2Y17280   5.934   3.500   4.082
  178POPE   C2317281   5.316   3.707   4.055
  178POPE   H3R17282   5.262   3.761   3.977
  178POPE   H3S17283   5.400   3.773   4.077
  178POPE   C2417284   5.224   3.686   4.173
  178POPE   H4R17285   5.148   3.603   4.161
  178POPE   H4S17286   5.165   3.778   4.194
  178POPE   C2517287   5.285   3.656   4.294
  178POPE   H5R17288   5.359   3.730   4.328
  178POPE   H5S17289   5.340   3.565   4.275
  178POPE   C2617290   5.162   3.638   4.375
  178POPE   H6R17291   5.114   3.543   4.340
  178POPE   H6S17292   5.086   3.714   4.399
  178POPE   C2717293   5.222   3.618   4.495
  178POPE   H7R17294   5.332   3.612   4.490
  178POPE   H7S17295   5.161   3.526   4.514
  178POPE   C2817296   5.210   3.698   4.610
  178POPE   H8R17297   5.272   3.650   4.680
  178POPE   H8S17298   5.106   3.674   4.638
  178POPE   C2917299   5.262   3.834   4.617
  178POPE   H9117300   5.239   3.874   4.520
  178POPE  C21017301   5.332   3.906   4.707
  178POPE  H10117302   5.325   4.013   4.696
  178POPE  C21117303   5.388   3.879   4.843
  178POPE  H11R17304   5.343   3.786   4.867
  178POPE  H11S17305   5.351   3.954   4.916
  178POPE  C21217306   5.522   3.817   4.877
  178POPE  H12R17307   5.602   3.882   4.847
  178POPE  H12S17308   5.524   3.732   4.807
  178POPE  C21317309   5.539   3.767   5.022
  178POPE  H13R17310   5.632   3.711   5.039
  178POPE  H13S17311   5.454   3.706   5.057
  178POPE  C21417312   5.497   3.855   5.133
  178POPE  H14R17313   5.400   3.879   5.087
  178POPE  H14S17314   5.533   3.954   5.136
  178POPE  C21517315   5.501   3.787   5.273
  178POPE  H15R17316   5.453   3.688   5.275
  178POPE  H15S17317   5.439   3.831   5.350
  178POPE  C21617318   5.640   3.806   5.325
  178POPE  H16R17319   5.661   3.911   5.297
  178POPE  H16S17320   5.708   3.738   5.271
  178POPE  C21717321   5.659   3.809   5.476
  178POPE  H17R17322   5.567   3.858   5.519
  178POPE  H17S17323   5.754   3.855   5.504
  178POPE  C21817324   5.675   3.679   5.542
  178POPE  H18R17325   5.730   3.600   5.484
  178POPE  H18S17326   5.568   3.669   5.529
  178POPE  H18T17327   5.668   3.655   5.650
  178POPE   C3317328   5.885   3.675   4.021
  178POPE   H3X17329   5.866   3.717   3.919
  178POPE   H3Y17330   5.980   3.715   4.057
  178POPE   C3417331   5.761   3.723   4.113
  178POPE   H4X17332   5.661   3.682   4.090
  178POPE   H4Y17333   5.750   3.830   4.094
  178POPE   C3517334   5.758   3.709   4.264
  178POPE   H5X17335   5.849   3.746   4.312
  178POPE   H5Y17336   5.733   3.604   4.280
  178POPE   C3617337   5.638   3.737   4.347
  178POPE   H6X17338   5.648   3.678   4.444
  178POPE   H6Y17339   5.554   3.694   4.289
  178POPE   C3717340   5.630   3.885   4.368
  178POPE   H7X17341   5.521   3.903   4.368
  178POPE   H7Y17342   5.676   3.935   4.280
  178POPE   C3817343   5.691   3.928   4.502
  178POPE   H8X17344   5.795   3.891   4.514
  178POPE   H8Y17345   5.628   3.877   4.579
  178POPE   C3917346   5.687   4.078   4.531
  178POPE   H9X17347   5.590   4.122   4.498
  178POPE   H9Y17348   5.769   4.133   4.478
  178POPE  C31017349   5.701   4.103   4.682
  178POPE  H10X17350   5.604   4.083   4.731
  178POPE  H10Y17351   5.727   4.208   4.700
  178POPE  C31117352   5.810   4.020   4.747
  178POPE  H11X17353   5.905   4.031   4.688
  178POPE  H11Y17354   5.784   3.912   4.742
  178POPE  C31217355   5.842   4.056   4.893
  178POPE  H12X17356   5.926   4.128   4.896
  178POPE  H12Y17357   5.871   3.956   4.927
  178POPE  C31317358   5.736   4.102   4.994
  178POPE  H13X17359   5.656   4.025   5.000
  178POPE  H13Y17360   5.694   4.195   4.953
  178POPE  C31417361   5.783   4.132   5.139
  178POPE  H14X17362   5.870   4.201   5.137
  178POPE  H14Y17363   5.808   4.046   5.204
  178POPE  C31517364   5.665   4.183   5.219
  178POPE  H15X17365   5.579   4.118   5.203
  178POPE  H15Y17366   5.646   4.285   5.181
  178POPE  C31617367   5.680   4.185   5.369
  178POPE  H16X17368   5.715   4.093   5.421
  178POPE  H16Y17369   5.582   4.218   5.412
  178POPE  H16Z17370   5.758   4.259   5.381
  179POPE     N17371   3.840   5.897   3.663
  179POPE   HN117372   3.851   5.950   3.572
  179POPE   HN217373   3.920   5.913   3.725
  179POPE   HN317374   3.824   5.796   3.645
  179POPE   C1217375   3.723   5.957   3.735
  179POPE  H12A17376   3.721   5.916   3.838
  179POPE  H12B17377   3.632   5.927   3.678
  179POPE   C1117378   3.737   6.109   3.741
  179POPE  H11A17379   3.815   6.137   3.815
  179POPE  H11B17380   3.642   6.153   3.780
  179POPE     P17381   3.658   6.211   3.515
  179POPE   O1317382   3.609   6.087   3.452
  179POPE   O1417383   3.721   6.314   3.430
  179POPE   O1117384   3.546   6.271   3.612
  179POPE   O1217385   3.773   6.161   3.614
  179POPE    C117386   3.464   6.375   3.558
  179POPE    HA17387   3.394   6.332   3.486
  179POPE    HB17388   3.524   6.453   3.505
  179POPE    C217389   3.376   6.451   3.662
  179POPE    HS17390   3.337   6.543   3.613
  179POPE   O2117391   3.437   6.491   3.783
  179POPE   C2117392   3.538   6.566   3.764
  179POPE   O2217393   3.585   6.603   3.660
  179POPE   C2217394   3.600   6.579   3.894
  179POPE   H2R17395   3.535   6.617   3.975
  179POPE   H2S17396   3.679   6.653   3.883
  179POPE    C317397   3.260   6.365   3.711
  179POPE    HX17398   3.198   6.342   3.622
  179POPE    HY17399   3.208   6.434   3.781
  179POPE   O3117400   3.300   6.244   3.779
  179POPE   C3117401   3.323   6.258   3.911
  179POPE   O3217402   3.286   6.350   3.980
  179POPE   C3217403   3.398   6.135   3.965
  179POPE   H2X17404   3.501   6.137   3.927
  179POPE   H2Y17405   3.344   6.047   3.929
  179POPE   C2317406   3.651   6.435   3.913
  179POPE   H3R17407   3.738   6.408   3.845
  179POPE   H3S17408   3.573   6.360   3.926
  179POPE   C2417409   3.706   6.415   4.045
  179POPE   H4R17410   3.738   6.515   4.021
  179POPE   H4S17411   3.790   6.343   4.048
  179POPE   C2517412   3.625   6.432   4.172
  179POPE   H5R17413   3.560   6.349   4.177
  179POPE   H5S17414   3.579   6.536   4.178
  179POPE   C2617415   3.693   6.396   4.304
  179POPE   H6R17416   3.733   6.486   4.276
  179POPE   H6S17417   3.795   6.358   4.320
  179POPE   C2717418   3.619   6.437   4.431
  179POPE   H7R17419   3.575   6.539   4.419
  179POPE   H7S17420   3.691   6.435   4.517
  179POPE   C2817421   3.523   6.331   4.463
  179POPE   H8R17422   3.589   6.248   4.496
  179POPE   H8S17423   3.481   6.312   4.362
  179POPE   C2917424   3.411   6.359   4.556
  179POPE   H9117425   3.322   6.396   4.502
  179POPE  C21017426   3.411   6.351   4.691
  179POPE  H10117427   3.317   6.368   4.744
  179POPE  C21117428   3.523   6.311   4.783
  179POPE  H11R17429   3.563   6.405   4.829
  179POPE  H11S17430   3.607   6.263   4.728
  179POPE  C21217431   3.483   6.218   4.898
  179POPE  H12R17432   3.437   6.123   4.860
  179POPE  H12S17433   3.406   6.267   4.962
  179POPE  C21317434   3.608   6.181   4.980
  179POPE  H13R17435   3.686   6.149   4.908
  179POPE  H13S17436   3.584   6.091   5.040
  179POPE  C21417437   3.663   6.297   5.067
  179POPE  H14R17438   3.580   6.354   5.114
  179POPE  H14S17439   3.718   6.366   4.999
  179POPE  C21517440   3.765   6.254   5.174
  179POPE  H15R17441   3.851   6.324   5.177
  179POPE  H15S17442   3.798   6.151   5.151
  179POPE  C21617443   3.714   6.252   5.316
  179POPE  H16R17444   3.691   6.356   5.350
  179POPE  H16S17445   3.788   6.208   5.384
  179POPE  C21717446   3.594   6.162   5.323
  179POPE  H17R17447   3.514   6.207   5.260
  179POPE  H17S17448   3.570   6.152   5.431
  179POPE  C21817449   3.599   6.014   5.312
  179POPE  H18R17450   3.678   5.983   5.384
  179POPE  H18S17451   3.620   5.990   5.208
  179POPE  H18T17452   3.501   5.971   5.347
  179POPE   C3317453   3.395   6.127   4.119
  179POPE   H3X17454   3.294   6.161   4.153
  179POPE   H3Y17455   3.468   6.197   4.162
  179POPE   C3417456   3.428   5.990   4.180
  179POPE   H4X17457   3.535   5.964   4.173
  179POPE   H4Y17458   3.384   5.911   4.118
  179POPE   C3517459   3.375   5.973   4.324
  179POPE   H5X17460   3.270   5.939   4.318
  179POPE   H5Y17461   3.373   6.072   4.376
  179POPE   C3617462   3.457   5.874   4.408
  179POPE   H6X17463   3.472   5.778   4.354
  179POPE   H6Y17464   3.402   5.851   4.503
  179POPE   C3717465   3.594   5.929   4.447
  179POPE   H7X17466   3.583   6.028   4.494
  179POPE   H7Y17467   3.657   5.939   4.355
  179POPE   C3817468   3.671   5.833   4.537
  179POPE   H8X17469   3.659   5.732   4.491
  179POPE   H8Y17470   3.628   5.827   4.639
  179POPE   C3917471   3.821   5.862   4.538
  179POPE   H9X17472   3.857   5.879   4.433
  179POPE   H9Y17473   3.868   5.767   4.572
  179POPE  C31017474   3.869   5.984   4.619
  179POPE  H10X17475   3.819   6.076   4.582
  179POPE  H10Y17476   3.979   5.996   4.601
  179POPE  C31117477   3.854   5.976   4.772
  179POPE  H11X17478   3.747   5.980   4.801
  179POPE  H11Y17479   3.904   6.067   4.814
  179POPE  C31217480   3.907   5.847   4.834
  179POPE  H12X17481   3.999   5.812   4.785
  179POPE  H12Y17482   3.841   5.763   4.805
  179POPE  C31317483   3.917   5.853   4.987
  179POPE  H13X17484   3.959   5.756   5.022
  179POPE  H13Y17485   3.816   5.869   5.031
  179POPE  C31417486   4.005   5.964   5.044
  179POPE  H14X17487   3.990   6.064   5.000
  179POPE  H14Y17488   4.103   5.926   5.020
  179POPE  C31517489   4.002   5.974   5.194
  179POPE  H15X17490   4.035   5.877   5.239
  179POPE  H15Y17491   3.899   5.997   5.228
  179POPE  C31617492   4.086   6.080   5.259
  179POPE  H16X17493   4.052   6.186   5.244
  179POPE  H16Y17494   4.196   6.074   5.251
  179POPE  H16Z17495   4.070   6.039   5.358
  180POPE     N17496   1.192   4.665   3.798
  180POPE   HN117497   1.184   4.769   3.786
  180POPE   HN217498   1.097   4.622   3.804
  180POPE   HN317499   1.246   4.644   3.884
  180POPE   C1217500   1.261   4.615   3.673
  180POPE  H12A17501   1.183   4.600   3.595
  180POPE  H12B17502   1.310   4.518   3.696
  180POPE   C1117503   1.361   4.717   3.619
  180POPE  H11A17504   1.427   4.667   3.544
  180POPE  H11B17505   1.427   4.754   3.702
  180POPE     P17506   1.372   4.957   3.515
  180POPE   O1317507   1.278   5.067   3.480
  180POPE   O1417508   1.484   4.925   3.426
  180POPE   O1117509   1.422   4.987   3.660
  180POPE   O1217510   1.291   4.824   3.555
  180POPE    C117511   1.326   5.011   3.761
  180POPE    HA17512   1.242   4.942   3.771
  180POPE    HB17513   1.296   5.120   3.753
  180POPE    C217514   1.402   4.993   3.890
  180POPE    HS17515   1.481   5.068   3.856
  180POPE   O2117516   1.440   4.845   3.950
  180POPE   C2117517   1.551   4.773   4.024
  180POPE   O2217518   1.668   4.791   4.042
  180POPE   C2217519   1.535   4.663   4.102
  180POPE   H2R17520   1.598   4.600   4.033
  180POPE   H2S17521   1.428   4.650   4.107
  180POPE    C317522   1.325   5.077   3.999
  180POPE    HX17523   1.313   5.185   3.972
  180POPE    HY17524   1.376   5.091   4.096
  180POPE   O3117525   1.205   5.014   4.019
  180POPE   C3117526   1.141   5.062   4.121
  180POPE   O3217527   1.181   5.139   4.207
  180POPE   C3217528   1.015   4.990   4.112
  180POPE   H2X17529   0.996   4.956   4.007
  180POPE   H2Y17530   0.939   5.064   4.141
  180POPE   C2317531   1.620   4.682   4.233
  180POPE   H3R17532   1.574   4.759   4.299
  180POPE   H3S17533   1.731   4.706   4.233
  180POPE   C2417534   1.624   4.541   4.277
  180POPE   H4R17535   1.690   4.489   4.203
  180POPE   H4S17536   1.520   4.503   4.269
  180POPE   C2517537   1.675   4.520   4.415
  180POPE   H5R17538   1.784   4.517   4.407
  180POPE   H5S17539   1.642   4.418   4.443
  180POPE   C2617540   1.625   4.621   4.518
  180POPE   H6R17541   1.518   4.648   4.502
  180POPE   H6S17542   1.683   4.715   4.512
  180POPE   C2717543   1.637   4.557   4.656
  180POPE   H7R17544   1.744   4.542   4.677
  180POPE   H7S17545   1.604   4.452   4.653
  180POPE   C2817546   1.561   4.637   4.762
  180POPE   H8R17547   1.457   4.650   4.726
  180POPE   H8S17548   1.603   4.741   4.772
  180POPE   C2917549   1.552   4.559   4.890
  180POPE   H9117550   1.527   4.454   4.881
  180POPE  C21017551   1.566   4.603   5.012
  180POPE  H10117552   1.606   4.528   5.086
  180POPE  C21117553   1.599   4.749   5.037
  180POPE  H11R17554   1.539   4.827   5.086
  180POPE  H11S17555   1.662   4.798   4.957
  180POPE  C21217556   1.683   4.706   5.149
  180POPE  H12R17557   1.709   4.799   5.198
  180POPE  H12S17558   1.763   4.669   5.079
  180POPE  C21317559   1.667   4.663   5.297
  180POPE  H13R17560   1.760   4.657   5.355
  180POPE  H13S17561   1.641   4.559   5.307
  180POPE  C21417562   1.585   4.768   5.377
  180POPE  H14R17563   1.589   4.735   5.483
  180POPE  H14S17564   1.490   4.742   5.326
  180POPE  C21517565   1.612   4.923   5.361
  180POPE  H15R17566   1.629   4.956   5.256
  180POPE  H15S17567   1.694   4.969   5.413
  180POPE  C21617568   1.507   5.015   5.411
  180POPE  H16R17569   1.548   5.118   5.391
  180POPE  H16S17570   1.496   5.001   5.521
  180POPE  C21717571   1.386   4.985   5.328
  180POPE  H17R17572   1.350   4.881   5.345
  180POPE  H17S17573   1.413   4.995   5.220
  180POPE  C21817574   1.276   5.078   5.367
  180POPE  H18R17575   1.248   5.065   5.473
  180POPE  H18S17576   1.190   5.066   5.299
  180POPE  H18T17577   1.319   5.178   5.354
  180POPE   C3317578   1.045   4.876   4.208
  180POPE   H3X17579   0.969   4.803   4.215
  180POPE   H3Y17580   1.043   4.904   4.313
  180POPE   C3417581   1.141   4.770   4.161
  180POPE   H4X17582   1.244   4.796   4.141
  180POPE   H4Y17583   1.102   4.735   4.061
  180POPE   C3517584   1.139   4.660   4.269
  180POPE   H5X17585   1.186   4.573   4.222
  180POPE   H5Y17586   1.030   4.647   4.287
  180POPE   C3617587   1.171   4.679   4.420
  180POPE   H6X17588   1.117   4.774   4.450
  180POPE   H6Y17589   1.277   4.667   4.434
  180POPE   C3717590   1.123   4.575   4.527
  180POPE   H7X17591   1.028   4.585   4.469
  180POPE   H7Y17592   1.079   4.617   4.618
  180POPE   C3817593   1.196   4.426   4.546
  180POPE   H8X17594   1.239   4.371   4.457
  180POPE   H8Y17595   1.129   4.341   4.565
  180POPE   C3917596   1.289   4.375   4.640
  180POPE   H9X17597   1.367   4.434   4.587
  180POPE   H9Y17598   1.296   4.262   4.620
  180POPE  C31017599   1.241   4.414   4.777
  180POPE  H10X17600   1.225   4.523   4.772
  180POPE  H10Y17601   1.325   4.371   4.833
  180POPE  C31117602   1.125   4.343   4.845
  180POPE  H11X17603   1.140   4.237   4.817
  180POPE  H11Y17604   1.025   4.382   4.827
  180POPE  C31217605   1.074   4.355   4.987
  180POPE  H12X17606   1.145   4.303   5.049
  180POPE  H12Y17607   0.977   4.305   4.993
  180POPE  C31317608   1.012   4.484   5.031
  180POPE  H13X17609   0.968   4.464   5.131
  180POPE  H13Y17610   0.925   4.511   4.970
  180POPE  C31417611   1.118   4.589   5.021
  180POPE  H14X17612   1.092   4.663   4.943
  180POPE  H14Y17613   1.211   4.538   4.988
  180POPE  C31517614   1.144   4.651   5.156
  180POPE  H15X17615   1.050   4.698   5.194
  180POPE  H15Y17616   1.219   4.731   5.137
  180POPE  C31617617   1.200   4.552   5.257
  180POPE  H16X17618   1.284   4.493   5.214
  180POPE  H16Y17619   1.122   4.478   5.287
  180POPE  H16Z17620   1.236   4.606   5.346
  181POPE     N17621   4.599   1.242   3.499
  181POPE   HN117622   4.614   1.245   3.397
  181POPE   HN217623   4.591   1.338   3.537
  181POPE   HN317624   4.678   1.189   3.542
  181POPE   C1217625   4.473   1.162   3.521
  181POPE  H12A17626   4.392   1.216   3.467
  181POPE  H12B17627   4.449   1.161   3.629
  181POPE   C1117628   4.484   1.020   3.462
  181POPE  H11A17629   4.505   1.030   3.355
  181POPE  H11B17630   4.385   0.969   3.470
  181POPE     P17631   4.563   0.872   3.658
  181POPE   O1317632   4.661   0.763   3.676
  181POPE   O1417633   4.419   0.856   3.687
  181POPE   O1117634   4.603   1.000   3.738
  181POPE   O1217635   4.588   0.938   3.515
  181POPE    C117636   4.739   1.029   3.751
  181POPE    HA17637   4.756   1.128   3.705
  181POPE    HB17638   4.810   0.959   3.701
  181POPE    C217639   4.774   1.019   3.900
  181POPE    HS17640   4.879   1.037   3.905
  181POPE   O2117641   4.748   0.895   3.960
  181POPE   C2117642   4.828   0.863   4.058
  181POPE   O2217643   4.933   0.914   4.090
  181POPE   C2217644   4.770   0.744   4.128
  181POPE   H2R17645   4.850   0.704   4.194
  181POPE   H2S17646   4.748   0.673   4.047
  181POPE    C317647   4.703   1.127   3.979
  181POPE    HX17648   4.717   1.214   3.914
  181POPE    HY17649   4.767   1.138   4.071
  181POPE   O3117650   4.566   1.108   4.019
  181POPE   C3117651   4.471   1.198   4.004
  181POPE   O3217652   4.457   1.285   3.922
  181POPE   C3217653   4.356   1.173   4.093
  181POPE   H2X17654   4.327   1.070   4.069
  181POPE   H2Y17655   4.287   1.251   4.056
  181POPE   C2317656   4.645   0.783   4.209
  181POPE   H3R17657   4.569   0.824   4.138
  181POPE   H3S17658   4.666   0.862   4.283
  181POPE   C2417659   4.586   0.664   4.285
  181POPE   H4R17660   4.568   0.583   4.212
  181POPE   H4S17661   4.486   0.693   4.325
  181POPE   C2517662   4.675   0.608   4.398
  181POPE   H5R17663   4.767   0.564   4.352
  181POPE   H5S17664   4.620   0.526   4.450
  181POPE   C2617665   4.721   0.705   4.505
  181POPE   H6R17666   4.634   0.755   4.552
  181POPE   H6S17667   4.787   0.781   4.460
  181POPE   C2717668   4.793   0.628   4.616
  181POPE   H7R17669   4.886   0.580   4.578
  181POPE   H7S17670   4.727   0.546   4.653
  181POPE   C2817671   4.819   0.712   4.739
  181POPE   H8R17672   4.855   0.635   4.809
  181POPE   H8S17673   4.726   0.744   4.788
  181POPE   C2917674   4.910   0.829   4.710
  181POPE   H9117675   4.987   0.813   4.636
  181POPE  C21017676   4.906   0.954   4.753
  181POPE  H10117677   4.978   1.025   4.709
  181POPE  C21117678   4.805   1.013   4.845
  181POPE  H11R17679   4.844   1.109   4.886
  181POPE  H11S17680   4.789   0.946   4.932
  181POPE  C21217681   4.673   1.035   4.770
  181POPE  H12R17682   4.631   0.937   4.740
  181POPE  H12S17683   4.690   1.092   4.676
  181POPE  C21317684   4.570   1.106   4.858
  181POPE  H13R17685   4.469   1.094   4.815
  181POPE  H13S17686   4.592   1.215   4.859
  181POPE  C21417687   4.565   1.053   5.003
  181POPE  H14R17688   4.659   1.082   5.054
  181POPE  H14S17689   4.563   0.943   5.005
  181POPE  C21517690   4.440   1.101   5.077
  181POPE  H15R17691   4.353   1.062   5.022
  181POPE  H15S17692   4.432   1.211   5.064
  181POPE  C21617693   4.430   1.048   5.223
  181POPE  H16R17694   4.478   1.101   5.301
  181POPE  H16S17695   4.489   0.958   5.245
  181POPE  C21717696   4.300   1.076   5.295
  181POPE  H17R17697   4.259   1.175   5.260
  181POPE  H17S17698   4.315   1.087   5.406
  181POPE  C21817699   4.219   0.955   5.264
  181POPE  H18R17700   4.113   0.966   5.290
  181POPE  H18S17701   4.264   0.866   5.314
  181POPE  H18T17702   4.224   0.933   5.157
  181POPE   C3317703   4.340   1.205   4.241
  181POPE   H3X17704   4.334   1.316   4.247
  181POPE   H3Y17705   4.409   1.135   4.293
  181POPE   C3417706   4.227   1.212   4.337
  181POPE   H4X17707   4.219   1.106   4.340
  181POPE   H4Y17708   4.139   1.266   4.295
  181POPE   C3517709   4.263   1.245   4.482
  181POPE   H5X17710   4.167   1.268   4.533
  181POPE   H5Y17711   4.304   1.346   4.493
  181POPE   C3617712   4.357   1.138   4.551
  181POPE   H6X17713   4.368   1.167   4.657
  181POPE   H6Y17714   4.454   1.136   4.502
  181POPE   C3717715   4.340   0.985   4.530
  181POPE   H7X17716   4.338   0.966   4.425
  181POPE   H7Y17717   4.247   0.953   4.557
  181POPE   C3817718   4.375   0.868   4.626
  181POPE   H8X17719   4.381   0.917   4.724
  181POPE   H8Y17720   4.478   0.850   4.603
  181POPE   C3917721   4.284   0.735   4.630
  181POPE   H9X17722   4.289   0.673   4.540
  181POPE   H9Y17723   4.172   0.736   4.638
  181POPE  C31017724   4.312   0.651   4.749
  181POPE  H10X17725   4.248   0.559   4.747
  181POPE  H10Y17726   4.299   0.702   4.847
  181POPE  C31117727   4.453   0.616   4.730
  181POPE  H11X17728   4.522   0.695   4.765
  181POPE  H11Y17729   4.476   0.595   4.622
  181POPE  C31217730   4.462   0.488   4.801
  181POPE  H12X17731   4.546   0.456   4.745
  181POPE  H12Y17732   4.392   0.408   4.769
  181POPE  C31317733   4.451   0.497   4.953
  181POPE  H13X17734   4.435   0.390   4.976
  181POPE  H13Y17735   4.354   0.539   4.985
  181POPE  C31417736   4.565   0.571   5.031
  181POPE  H14X17737   4.584   0.671   4.989
  181POPE  H14Y17738   4.663   0.521   5.016
  181POPE  C31517739   4.541   0.580   5.185
  181POPE  H15X17740   4.518   0.481   5.230
  181POPE  H15Y17741   4.453   0.645   5.203
  181POPE  C31617742   4.662   0.636   5.260
  181POPE  H16X17743   4.756   0.599   5.213
  181POPE  H16Y17744   4.662   0.606   5.367
  181POPE  H16Z17745   4.660   0.747   5.255
  182POPE     N17746   0.991   2.458   3.754
  182POPE   HN117747   1.040   2.547   3.731
  182POPE   HN217748   0.940   2.467   3.844
  182POPE   HN317749   1.063   2.381   3.762
  182POPE   C1217750   0.894   2.420   3.645
  182POPE  H12A17751   0.916   2.484   3.559
  182POPE  H12B17752   0.791   2.445   3.680
  182POPE   C1117753   0.911   2.273   3.601
  182POPE  H11A17754   0.818   2.239   3.548
  182POPE  H11B17755   0.920   2.203   3.688
  182POPE     P17756   1.159   2.205   3.549
  182POPE   O1317757   1.252   2.308   3.501
  182POPE   O1417758   1.174   2.069   3.496
  182POPE   O1117759   1.157   2.212   3.708
  182POPE   O1217760   1.017   2.259   3.509
  182POPE    C117761   1.229   2.113   3.784
  182POPE    HA17762   1.312   2.065   3.726
  182POPE    HB17763   1.159   2.034   3.816
  182POPE    C217764   1.290   2.175   3.912
  182POPE    HS17765   1.342   2.097   3.974
  182POPE   O2117766   1.183   2.236   3.987
  182POPE   C2117767   1.183   2.237   4.120
  182POPE   O2217768   1.266   2.186   4.193
  182POPE   C2217769   1.062   2.318   4.161
  182POPE   H2R17770   0.969   2.270   4.122
  182POPE   H2S17771   1.069   2.419   4.115
  182POPE    C317772   1.395   2.278   3.866
  182POPE    HX17773   1.351   2.356   3.800
  182POPE    HY17774   1.479   2.232   3.811
  182POPE   O3117775   1.451   2.334   3.979
  182POPE   C3117776   1.388   2.436   4.017
  182POPE   O3217777   1.301   2.506   3.965
  182POPE   C3217778   1.443   2.447   4.142
  182POPE   H2X17779   1.525   2.395   4.193
  182POPE   H2Y17780   1.386   2.398   4.217
  182POPE   C2317781   1.054   2.332   4.312
  182POPE   H3R17782   1.149   2.368   4.358
  182POPE   H3S17783   1.027   2.234   4.356
  182POPE   C2417784   0.947   2.432   4.349
  182POPE   H4R17785   0.910   2.476   4.253
  182POPE   H4S17786   0.993   2.517   4.404
  182POPE   C2517787   0.833   2.370   4.431
  182POPE   H5R17788   0.783   2.289   4.374
  182POPE   H5S17789   0.747   2.433   4.451
  182POPE   C2617790   0.877   2.326   4.569
  182POPE   H6R17791   0.965   2.260   4.557
  182POPE   H6S17792   0.790   2.269   4.609
  182POPE   C2717793   0.916   2.440   4.665
  182POPE   H7R17794   0.830   2.508   4.672
  182POPE   H7S17795   1.000   2.499   4.622
  182POPE   C2817796   0.955   2.394   4.807
  182POPE   H8R17797   0.970   2.487   4.865
  182POPE   H8S17798   1.055   2.349   4.810
  182POPE   C2917799   0.856   2.296   4.866
  182POPE   H9117800   0.852   2.195   4.827
  182POPE  C21017801   0.761   2.330   4.949
  182POPE  H10117802   0.685   2.262   4.993
  182POPE  C21117803   0.747   2.468   4.988
  182POPE  H11R17804   0.643   2.460   4.974
  182POPE  H11S17805   0.767   2.547   4.913
  182POPE  C21217806   0.802   2.483   5.130
  182POPE  H12R17807   0.904   2.441   5.130
  182POPE  H12S17808   0.743   2.430   5.206
  182POPE  C21317809   0.833   2.622   5.172
  182POPE  H13R17810   0.897   2.623   5.264
  182POPE  H13S17811   0.746   2.694   5.189
  182POPE  C21417812   0.910   2.676   5.065
  182POPE  H14R17813   0.818   2.709   5.015
  182POPE  H14S17814   0.953   2.620   4.987
  182POPE  C21517815   1.002   2.775   5.123
  182POPE  H15R17816   0.940   2.817   5.213
  182POPE  H15S17817   1.020   2.838   5.033
  182POPE  C21617818   1.152   2.785   5.122
  182POPE  H16R17819   1.176   2.699   5.065
  182POPE  H16S17820   1.120   2.747   5.222
  182POPE  C21717821   1.245   2.925   5.106
  182POPE  H17R17822   1.212   3.031   5.126
  182POPE  H17S17823   1.260   2.961   5.003
  182POPE  C21817824   1.365   2.947   5.205
  182POPE  H18R17825   1.357   2.895   5.303
  182POPE  H18S17826   1.374   3.055   5.238
  182POPE  H18T17827   1.450   2.911   5.147
  182POPE   C3317828   1.483   2.575   4.144
  182POPE   H3X17829   1.479   2.669   4.078
  182POPE   H3Y17830   1.570   2.582   4.050
  182POPE   C3417831   1.497   2.569   4.335
  182POPE   H4X17832   1.565   2.652   4.381
  182POPE   H4Y17833   1.580   2.524   4.388
  182POPE   C3517834   1.459   2.658   4.462
  182POPE   H5X17835   1.391   2.576   4.478
  182POPE   H5Y17836   1.427   2.759   4.436
  182POPE   C3617837   1.547   2.657   4.593
  182POPE   H6X17838   1.626   2.736   4.607
  182POPE   H6Y17839   1.592   2.554   4.597
  182POPE   C3717840   1.470   2.664   4.717
  182POPE   H7X17841   1.366   2.647   4.682
  182POPE   H7Y17842   1.484   2.769   4.753
  182POPE   C3817843   1.517   2.552   4.809
  182POPE   H8X17844   1.618   2.559   4.854
  182POPE   H8Y17845   1.516   2.455   4.756
  182POPE   C3917846   1.427   2.560   4.926
  182POPE   H9X17847   1.324   2.549   4.890
  182POPE   H9Y17848   1.440   2.664   4.966
  182POPE  C31017849   1.455   2.452   5.028
  182POPE  H10X17850   1.555   2.463   5.065
  182POPE  H10Y17851   1.467   2.351   4.985
  182POPE  C31117852   1.359   2.465   5.145
  182POPE  H11X17853   1.334   2.569   5.176
  182POPE  H11Y17854   1.396   2.420   5.237
  182POPE  C31217855   1.243   2.376   5.123
  182POPE  H12X17856   1.291   2.276   5.115
  182POPE  H12Y17857   1.198   2.397   5.024
  182POPE  C31317858   1.140   2.398   5.233
  182POPE  H13X17859   1.060   2.322   5.221
  182POPE  H13Y17860   1.098   2.499   5.215
  182POPE  C31417861   1.186   2.406   5.379
  182POPE  H14X17862   1.273   2.470   5.402
  182POPE  H14Y17863   1.223   2.310   5.409
  182POPE  C31517864   1.065   2.439   5.465
  182POPE  H15X17865   0.985   2.364   5.438
  182POPE  H15Y17866   1.030   2.541   5.443
  182POPE  C31617867   1.092   2.426   5.611
  182POPE  H16X17868   1.166   2.347   5.606
  182POPE  H16Y17869   1.002   2.400   5.671
  182POPE  H16Z17870   1.159   2.488   5.669
  183POPE     N17871   6.482   6.172   3.402
  183POPE   HN117872   6.387   6.199   3.369
  183POPE   HN217873   6.552   6.248   3.387
  183POPE   HN317874   6.512   6.084   3.354
  183POPE   C1217875   6.473   6.140   3.548
  183POPE  H12A17876   6.373   6.094   3.566
  183POPE  H12B17877   6.481   6.237   3.603
  183POPE   C1117878   6.584   6.045   3.594
  183POPE  H11A17879   6.584   6.049   3.706
  183POPE  H11B17880   6.682   6.082   3.559
  183POPE     P17881   6.539   5.791   3.647
  183POPE   O1317882   6.503   5.673   3.567
  183POPE   O1417883   6.443   5.842   3.747
  183POPE   O1117884   6.682   5.774   3.713
  183POPE   O1217885   6.564   5.913   3.544
  183POPE    C117886   6.802   5.814   3.647
  183POPE    HA17887   6.787   5.882   3.560
  183POPE    HB17888   6.848   5.727   3.606
  183POPE    C217889   6.913   5.864   3.741
  183POPE    HS17890   7.010   5.859   3.684
  183POPE   O2117891   6.924   5.789   3.863
  183POPE   C2117892   6.953   5.662   3.852
  183POPE   O2217893   6.999   5.610   3.752
  183POPE   C2217894   6.924   5.597   3.989
  183POPE   H2R17895   7.011   5.604   4.052
  183POPE   H2S17896   6.905   5.490   3.972
  183POPE    C317897   6.883   6.009   3.780
  183POPE    HX17898   6.869   6.064   3.684
  183POPE    HY17899   6.972   6.049   3.833
  183POPE   O3117900   6.760   6.018   3.854
  183POPE   C3117901   6.769   6.018   3.987
  183POPE   O3217902   6.872   6.037   4.050
  183POPE   C3217903   6.628   5.994   4.047
  183POPE   H2X17904   6.588   5.899   4.007
  183POPE   H2Y17905   6.561   6.076   4.012
  183POPE   C2317906   6.820   5.668   4.078
  183POPE   H3R17907   6.725   5.655   4.023
  183POPE   H3S17908   6.840   5.777   4.090
  183POPE   C2417909   6.804   5.608   4.219
  183POPE   H4R17910   6.824   5.498   4.217
  183POPE   H4S17911   6.700   5.628   4.251
  183POPE   C2517912   6.884   5.676   4.330
  183POPE   H5R17913   6.906   5.782   4.305
  183POPE   H5S17914   6.972   5.614   4.334
  183POPE   C2617915   6.848   5.654   4.476
  183POPE   H6R17916   6.849   5.543   4.493
  183POPE   H6S17917   6.745   5.690   4.491
  183POPE   C2717918   6.950   5.727   4.568
  183POPE   H7R17919   6.976   5.825   4.523
  183POPE   H7S17920   7.049   5.679   4.574
  183POPE   C2817921   6.901   5.733   4.713
  183POPE   H8R17922   6.984   5.718   4.786
  183POPE   H8S17923   6.832   5.647   4.726
  183POPE   C2917924   6.837   5.864   4.745
  183POPE   H9117925   6.903   5.946   4.775
  183POPE  C21017926   6.705   5.881   4.748
  183POPE  H10117927   6.667   5.980   4.774
  183POPE  C21117928   6.605   5.773   4.721
  183POPE  H11R17929   6.639   5.675   4.759
  183POPE  H11S17930   6.584   5.766   4.613
  183POPE  C21217931   6.474   5.797   4.790
  183POPE  H12R17932   6.401   5.716   4.766
  183POPE  H12S17933   6.428   5.893   4.755
  183POPE  C21317934   6.494   5.797   4.940
  183POPE  H13R17935   6.396   5.829   4.969
  183POPE  H13S17936   6.549   5.882   4.983
  183POPE  C21417937   6.529   5.658   5.003
  183POPE  H14R17938   6.622   5.617   4.965
  183POPE  H14S17939   6.445   5.588   4.975
  183POPE  C21517940   6.534   5.659   5.157
  183POPE  H15R17941   6.478   5.576   5.207
  183POPE  H15S17942   6.473   5.748   5.150
  183POPE  C21617943   6.630   5.732   5.254
  183POPE  H16R17944   6.716   5.665   5.258
  183POPE  H16S17945   6.581   5.740   5.355
  183POPE  C21717946   6.672   5.877   5.222
  183POPE  H17R17947   6.699   5.886   5.115
  183POPE  H17S17948   6.764   5.897   5.281
  183POPE  C21817949   6.571   5.986   5.260
  183POPE  H18R17950   6.486   5.983   5.189
  183POPE  H18S17951   6.616   6.087   5.256
  183POPE  H18T17952   6.531   5.968   5.363
  183POPE   C3317953   6.624   5.984   4.201
  183POPE   H3X17954   6.709   5.928   4.245
  183POPE   H3Y17955   6.525   5.948   4.238
  183POPE   C3417956   6.639   6.119   4.259
  183POPE   H4X17957   6.551   6.172   4.216
  183POPE   H4Y17958   6.731   6.154   4.207
  183POPE   C3517959   6.652   6.121   4.413
  183POPE   H5X17960   6.722   6.045   4.449
  183POPE   H5Y17961   6.549   6.122   4.458
  183POPE   C3617962   6.728   6.234   4.480
  183POPE   H6X17963   6.650   6.298   4.439
  183POPE   H6Y17964   6.822   6.271   4.435
  183POPE   C3717965   6.749   6.237   4.634
  183POPE   H7X17966   6.799   6.324   4.684
  183POPE   H7Y17967   6.830   6.172   4.657
  183POPE   C3817968   6.618   6.219   4.704
  183POPE   H8X17969   6.589   6.116   4.690
  183POPE   H8Y17970   6.530   6.272   4.664
  183POPE   C3917971   6.623   6.268   4.843
  183POPE   H9X17972   6.606   6.376   4.853
  183POPE   H9Y17973   6.724   6.268   4.888
  183POPE  C31017974   6.506   6.214   4.921
  183POPE  H10X17975   6.514   6.304   4.976
  183POPE  H10Y17976   6.534   6.136   4.987
  183POPE  C31117977   6.359   6.216   4.868
  183POPE  H11X17978   6.361   6.202   4.762
  183POPE  H11Y17979   6.365   6.319   4.870
  183POPE  C31217980   6.218   6.212   4.948
  183POPE  H12X17981   6.142   6.291   4.933
  183POPE  H12Y17982   6.202   6.252   5.051
  183POPE  C31317983   6.247   6.107   5.043
  183POPE  H13X17984   6.353   6.090   5.065
  183POPE  H13Y17985   6.233   6.042   4.959
  183POPE  C31417986   6.153   6.089   5.164
  183POPE  H14X17987   6.169   5.991   5.207
  183POPE  H14Y17988   6.050   6.114   5.133
  183POPE  C31517989   6.189   6.146   5.297
  183POPE  H15X17990   6.176   6.256   5.289
  183POPE  H15Y17991   6.290   6.104   5.324
  183POPE  C31617992   6.117   6.095   5.417
  183POPE  H16X17993   6.154   5.991   5.434
  183POPE  H16Y17994   6.009   6.098   5.393
  183POPE  H16Z17995   6.146   6.160   5.503
  184POPE     N17996   4.429  -0.183   3.581
  184POPE   HN117997   4.489  -0.151   3.500
  184POPE   HN217998   4.504  -0.189   3.652
  184POPE   HN317999   4.387  -0.273   3.547
  184POPE   C1218000   4.333  -0.063   3.602
  184POPE  H12A18001   4.245  -0.094   3.659
  184POPE  H12B18002   4.282  -0.033   3.508
  184POPE   C1118003   4.414   0.062   3.651
  184POPE  H11A18004   4.444   0.036   3.754
  184POPE  H11B18005   4.340   0.146   3.652
  184POPE     P18006   4.588   0.255   3.605
  184POPE   O1318007   4.505   0.315   3.709
  184POPE   O1418008   4.611   0.322   3.476
  184POPE   O1118009   4.733   0.244   3.661
  184POPE   O1218010   4.535   0.100   3.578
  184POPE    C118011   4.840   0.167   3.613
  184POPE    HA18012   4.906   0.226   3.546
  184POPE    HB18013   4.804   0.075   3.559
  184POPE    C218014   4.921   0.125   3.734
  184POPE    HS18015   5.007   0.068   3.689
  184POPE   O2118016   4.824   0.056   3.811
  184POPE   C2118017   4.870  -0.052   3.852
  184POPE   O2218018   4.978  -0.097   3.817
  184POPE   C2218019   4.752  -0.123   3.931
  184POPE   H2R18020   4.748  -0.233   3.904
  184POPE   H2S18021   4.674  -0.049   3.953
  184POPE    C318022   4.983   0.232   3.827
  184POPE    HX18023   5.052   0.292   3.766
  184POPE    HY18024   5.047   0.184   3.904
  184POPE   O3118025   4.885   0.319   3.886
  184POPE   C3118026   4.840   0.283   4.006
  184POPE   O3218027   4.867   0.181   4.067
  184POPE   C3218028   4.764   0.400   4.062
  184POPE   H2X18029   4.755   0.479   3.984
  184POPE   H2Y18030   4.820   0.444   4.148
  184POPE   C2318031   4.768  -0.138   4.086
  184POPE   H3R18032   4.801  -0.040   4.114
  184POPE   H3S18033   4.855  -0.186   4.045
  184POPE   C2418034   4.680  -0.148   4.229
  184POPE   H4R18035   4.656  -0.248   4.189
  184POPE   H4S18036   4.629  -0.059   4.204
  184POPE   C2518037   4.708  -0.135   4.402
  184POPE   H5R18038   4.751  -0.227   4.447
  184POPE   H5S18039   4.639  -0.173   4.479
  184POPE   C2618040   4.809  -0.024   4.467
  184POPE   H6R18041   4.749   0.065   4.460
  184POPE   H6S18042   4.896   0.013   4.409
  184POPE   C2718043   4.885  -0.040   4.602
  184POPE   H7R18044   4.976  -0.110   4.601
  184POPE   H7S18045   4.818  -0.074   4.680
  184POPE   C2818046   4.944   0.100   4.641
  184POPE   H8R18047   5.025   0.067   4.594
  184POPE   H8S18048   4.989   0.113   4.741
  184POPE   C2918049   4.921   0.228   4.564
  184POPE   H9118050   4.995   0.271   4.496
  184POPE  C21018051   4.814   0.297   4.588
  184POPE  H10118052   4.798   0.392   4.536
  184POPE  C21118053   4.722   0.242   4.691
  184POPE  H11R18054   4.747   0.140   4.729
  184POPE  H11S18055   4.623   0.224   4.648
  184POPE  C21218056   4.728   0.314   4.825
  184POPE  H12R18057   4.694   0.414   4.814
  184POPE  H12S18058   4.825   0.350   4.860
  184POPE  C21318059   4.649   0.228   4.925
  184POPE  H13R18060   4.703   0.131   4.927
  184POPE  H13S18061   4.546   0.210   4.886
  184POPE  C21418062   4.650   0.282   5.068
  184POPE  H14R18063   4.573   0.353   5.083
  184POPE  H14S18064   4.741   0.338   5.092
  184POPE  C21518065   4.590   0.202   5.180
  184POPE  H15R18066   4.495   0.153   5.151
  184POPE  H15S18067   4.567   0.271   5.266
  184POPE  C21618068   4.691   0.101   5.213
  184POPE  H16R18069   4.793   0.134   5.216
  184POPE  H16S18070   4.700   0.031   5.128
  184POPE  C21718071   4.665   0.039   5.343
  184POPE  H17R18072   4.556   0.021   5.356
  184POPE  H17S18073   4.704   0.094   5.433
  184POPE  C21818074   4.728  -0.093   5.324
  184POPE  H18R18075   4.836  -0.102   5.348
  184POPE  H18S18076   4.702  -0.146   5.231
  184POPE  H18T18077   4.664  -0.138   5.399
  184POPE   C3318078   4.626   0.351   4.103
  184POPE   H3X18079   4.587   0.269   4.039
  184POPE   H3Y18080   4.554   0.434   4.087
  184POPE   C3418081   4.631   0.307   4.249
  184POPE   H4X18082   4.661   0.392   4.309
  184POPE   H4Y18083   4.708   0.230   4.268
  184POPE   C3518084   4.500   0.259   4.302
  184POPE   H5X18085   4.414   0.305   4.248
  184POPE   H5Y18086   4.493   0.292   4.408
  184POPE   C3618087   4.505   0.108   4.299
  184POPE   H6X18088   4.593   0.067   4.346
  184POPE   H6Y18089   4.486   0.064   4.196
  184POPE   C3718090   4.407   0.049   4.388
  184POPE   H7X18091   4.400  -0.062   4.394
  184POPE   H7Y18092   4.337   0.090   4.317
  184POPE   C3818093   4.371   0.119   4.514
  184POPE   H8X18094   4.330   0.223   4.503
  184POPE   H8Y18095   4.452   0.101   4.587
  184POPE   C3918096   4.263   0.054   4.581
  184POPE   H9X18097   4.262  -0.056   4.576
  184POPE   H9Y18098   4.172   0.102   4.536
  184POPE  C31018099   4.282   0.081   4.722
  184POPE  H10X18100   4.179   0.101   4.727
  184POPE  H10Y18101   4.301   0.185   4.750
  184POPE  C31118102   4.344  -0.038   4.800
  184POPE  H11X18103   4.440  -0.060   4.754
  184POPE  H11Y18104   4.306  -0.142   4.782
  184POPE  C31218105   4.329  -0.022   4.953
  184POPE  H12X18106   4.346   0.085   4.976
  184POPE  H12Y18107   4.401  -0.094   4.996
  184POPE  C31318108   4.223  -0.082   5.051
  184POPE  H13X18109   4.194  -0.187   5.042
  184POPE  H13Y18110   4.107  -0.064   5.045
  184POPE  C31418111   4.294  -0.028   5.175
  184POPE  H14X18112   4.213   0.021   5.145
  184POPE  H14Y18113   4.266   0.068   5.219
  184POPE  C31518114   4.307  -0.139   5.276
  184POPE  H15X18115   4.405  -0.168   5.238
  184POPE  H15Y18116   4.260  -0.231   5.253
  184POPE  C31618117   4.274  -0.126   5.425
  184POPE  H16X18118   4.302  -0.030   5.461
  184POPE  H16Y18119   4.325  -0.205   5.483
  184POPE  H16Z18120   4.165  -0.129   5.453
  185POPE     N18121   0.116   1.739   3.798
  185POPE   HN118122   0.126   1.787   3.889
  185POPE   HN218123   0.053   1.656   3.811
  185POPE   HN318124   0.209   1.705   3.768
  185POPE   C1218125   0.063   1.842   3.700
  185POPE  H12A18126  -0.018   1.898   3.752
  185POPE  H12B18127   0.024   1.790   3.611
  185POPE   C1118128   0.168   1.947   3.656
  185POPE  H11A18129   0.210   2.000   3.744
  185POPE  H11B18130   0.114   2.022   3.593
  185POPE     P18131   0.383   1.981   3.513
  185POPE   O1318132   0.381   1.966   3.365
  185POPE   O1418133   0.505   1.954   3.590
  185POPE   O1118134   0.335   2.129   3.546
  185POPE   O1218135   0.270   1.887   3.578
  185POPE    C118136   0.435   2.233   3.536
  185POPE    HA18137   0.402   2.310   3.463
  185POPE    HB18138   0.536   2.197   3.503
  185POPE    C218139   0.467   2.304   3.670
  185POPE    HS18140   0.557   2.370   3.655
  185POPE   O2118141   0.473   2.216   3.781
  185POPE   C2118142   0.594   2.176   3.802
  185POPE   O2218143   0.694   2.215   3.746
  185POPE   C2218144   0.594   2.092   3.928
  185POPE   H2R18145   0.696   2.050   3.938
  185POPE   H2S18146   0.521   2.010   3.916
  185POPE    C318147   0.362   2.400   3.705
  185POPE    HX18148   0.358   2.464   3.614
  185POPE    HY18149   0.399   2.464   3.790
  185POPE   O3118150   0.232   2.343   3.730
  185POPE   C3118151   0.179   2.354   3.850
  185POPE   O3218152   0.226   2.402   3.951
  185POPE   C3218153   0.043   2.283   3.841
  185POPE   H2X18154   0.051   2.200   3.768
  185POPE   H2Y18155  -0.032   2.354   3.798
  185POPE   C2318156   0.552   2.181   4.046
  185POPE   H3R18157   0.443   2.205   4.035
  185POPE   H3S18158   0.611   2.275   4.037
  185POPE   C2418159   0.584   2.129   4.186
  185POPE   H4R18160   0.579   2.214   4.258
  185POPE   H4S18161   0.690   2.095   4.186
  185POPE   C2518162   0.486   2.021   4.231
  185POPE   H5R18163   0.504   1.930   4.171
  185POPE   H5S18164   0.382   2.056   4.209
  185POPE   C2618165   0.496   1.986   4.381
  185POPE   H6R18166   0.594   1.937   4.400
  185POPE   H6S18167   0.416   1.913   4.404
  185POPE   C2718168   0.481   2.108   4.475
  185POPE   H7R18169   0.405   2.175   4.429
  185POPE   H7S18170   0.577   2.164   4.480
  185POPE   C2818171   0.435   2.074   4.619
  185POPE   H8R18172   0.329   2.040   4.615
  185POPE   H8S18173   0.431   2.163   4.683
  185POPE   C2918174   0.527   1.977   4.686
  185POPE   H9118175   0.633   2.007   4.693
  185POPE  C21018176   0.488   1.863   4.742
  185POPE  H10118177   0.562   1.800   4.793
  185POPE  C21118178   0.346   1.812   4.747
  185POPE  H11R18179   0.320   1.751   4.658
  185POPE  H11S18180   0.270   1.893   4.752
  185POPE  C21218181   0.334   1.725   4.871
  185POPE  H12R18182   0.429   1.673   4.900
  185POPE  H12S18183   0.264   1.644   4.848
  185POPE  C21318184   0.281   1.801   4.991
  185POPE  H13R18185   0.262   1.725   5.071
  185POPE  H13S18186   0.182   1.848   4.967
  185POPE  C21418187   0.381   1.905   5.041
  185POPE  H14R18188   0.389   1.987   4.967
  185POPE  H14S18189   0.483   1.862   5.049
  185POPE  C21518190   0.337   1.965   5.175
  185POPE  H15R18191   0.243   2.022   5.156
  185POPE  H15S18192   0.418   2.033   5.208
  185POPE  C21618193   0.307   1.866   5.289
  185POPE  H16R18194   0.223   1.798   5.262
  185POPE  H16S18195   0.272   1.928   5.374
  185POPE  C21718196   0.429   1.781   5.327
  185POPE  H17R18197   0.523   1.835   5.306
  185POPE  H17S18198   0.424   1.691   5.262
  185POPE  C21818199   0.436   1.731   5.470
  185POPE  H18R18200   0.388   1.636   5.462
  185POPE  H18S18201   0.366   1.773   5.538
  185POPE  H18T18202   0.532   1.730   5.525
  185POPE   C3318203  -0.008   2.233   3.977
  185POPE   H3X18204  -0.115   2.205   3.965
  185POPE   H3Y18205  -0.002   2.314   4.053
  185POPE   C3418206   0.070   2.111   4.029
  185POPE   H4X18207   0.175   2.143   4.045
  185POPE   H4Y18208   0.070   2.032   3.950
  185POPE   C3518209   0.013   2.053   4.160
  185POPE   H5X18210   0.054   1.951   4.177
  185POPE   H5Y18211  -0.098   2.042   4.151
  185POPE   C3618212   0.048   2.137   4.285
  185POPE   H6X18213   0.003   2.239   4.277
  185POPE   H6Y18214   0.158   2.152   4.289
  185POPE   C3718215   0.006   2.072   4.418
  185POPE   H7X18216   0.068   1.982   4.436
  185POPE   H7Y18217  -0.100   2.040   4.417
  185POPE   C3818218   0.029   2.165   4.537
  185POPE   H8X18219  -0.038   2.254   4.529
  185POPE   H8Y18220   0.134   2.200   4.537
  185POPE   C3918221   0.006   2.092   4.669
  185POPE   H9X18222   0.094   2.026   4.686
  185POPE   H9Y18223  -0.085   2.028   4.661
  185POPE  C31018224  -0.010   2.188   4.787
  185POPE  H10X18225  -0.110   2.238   4.780
  185POPE  H10Y18226   0.070   2.265   4.782
  185POPE  C31118227   0.002   2.120   4.923
  185POPE  H11X18228   0.004   2.197   5.002
  185POPE  H11Y18229   0.098   2.065   4.928
  185POPE  C31218230  -0.116   2.024   4.947
  185POPE  H12X18231  -0.101   1.937   4.880
  185POPE  H12Y18232  -0.211   2.074   4.917
  185POPE  C31318233  -0.124   1.985   5.096
  185POPE  H13X18234  -0.131   2.080   5.154
  185POPE  H13Y18235  -0.027   1.938   5.122
  185POPE  C31418236  -0.243   1.897   5.136
  185POPE  H14X18237  -0.245   1.801   5.079
  185POPE  H14Y18238  -0.337   1.951   5.112
  185POPE  C31518239  -0.247   1.864   5.287
  185POPE  H15X18240  -0.337   1.802   5.306
  185POPE  H15Y18241  -0.265   1.959   5.340
  185POPE  C31618242  -0.124   1.792   5.347
  185POPE  H16X18243  -0.116   1.690   5.303
  185POPE  H16Y18244  -0.134   1.781   5.457
  185POPE  H16Z18245  -0.029   1.847   5.329
  186POPE     N18246   1.598   7.997   3.569
  186POPE   HN118247   1.652   7.908   3.581
  186POPE   HN218248   1.542   7.969   3.486
  186POPE   HN318249   1.652   8.079   3.535
  186POPE   C1218250   1.487   8.030   3.660
  186POPE  H12A18251   1.538   8.051   3.757
  186POPE  H12B18252   1.423   7.939   3.667
  186POPE   C1118253   1.408   8.152   3.609
  186POPE  H11A18254   1.364   8.204   3.696
  186POPE  H11B18255   1.317   8.129   3.553
  186POPE     P18256   1.579   8.348   3.590
  186POPE   O1318257   1.571   8.478   3.520
  186POPE   O1418258   1.710   8.280   3.599
  186POPE   O1118259   1.520   8.356   3.736
  186POPE   O1218260   1.485   8.238   3.524
  186POPE    C118261   1.578   8.435   3.840
  186POPE    HA18262   1.520   8.530   3.847
  186POPE    HB18263   1.684   8.463   3.819
  186POPE    C218264   1.572   8.364   3.979
  186POPE    HS18265   1.606   8.438   4.055
  186POPE   O2118266   1.661   8.251   3.978
  186POPE   C2118267   1.684   8.182   4.088
  186POPE   O2218268   1.659   8.216   4.202
  186POPE   C2218269   1.744   8.048   4.044
  186POPE   H2R18270   1.852   8.063   4.021
  186POPE   H2S18271   1.694   8.018   3.950
  186POPE    C318272   1.425   8.321   4.013
  186POPE    HX18273   1.359   8.408   3.991
  186POPE    HY18274   1.415   8.301   4.122
  186POPE   O3118275   1.388   8.204   3.936
  186POPE   C3118276   1.262   8.169   3.953
  186POPE   O3218277   1.180   8.233   4.015
  186POPE   C3218278   1.232   8.044   3.869
  186POPE   H2X18279   1.329   7.997   3.845
  186POPE   H2Y18280   1.181   8.078   3.776
  186POPE   C2318281   1.727   7.932   4.145
  186POPE   H3R18282   1.789   7.957   4.233
  186POPE   H3S18283   1.770   7.842   4.096
  186POPE   C2418284   1.581   7.901   4.187
  186POPE   H4R18285   1.518   7.889   4.096
  186POPE   H4S18286   1.539   7.987   4.243
  186POPE   C2518287   1.556   7.771   4.271
  186POPE   H5R18288   1.573   7.684   4.204
  186POPE   H5S18289   1.455   7.774   4.313
  186POPE   C2618290   1.642   7.747   4.393
  186POPE   H6R18291   1.728   7.734   4.334
  186POPE   H6S18292   1.638   7.649   4.444
  186POPE   C2718293   1.638   7.866   4.487
  186POPE   H7R18294   1.541   7.868   4.535
  186POPE   H7S18295   1.663   7.961   4.434
  186POPE   C2818296   1.733   7.869   4.600
  186POPE   H8R18297   1.758   7.969   4.638
  186POPE   H8S18298   1.804   7.816   4.545
  186POPE   C2918299   1.763   7.779   4.701
  186POPE   H9118300   1.826   7.691   4.686
  186POPE  C21018301   1.693   7.799   4.803
  186POPE  H10118302   1.619   7.723   4.790
  186POPE  C21118303   1.593   7.894   4.844
  186POPE  H11R18304   1.509   7.842   4.895
  186POPE  H11S18305   1.555   7.945   4.755
  186POPE  C21218306   1.685   7.975   4.933
  186POPE  H12R18307   1.633   8.072   4.934
  186POPE  H12S18308   1.787   7.994   4.890
  186POPE  C21318309   1.715   7.932   5.078
  186POPE  H13R18310   1.770   7.835   5.085
  186POPE  H13S18311   1.619   7.926   5.132
  186POPE  C21418312   1.802   8.041   5.142
  186POPE  H14R18313   1.740   8.133   5.144
  186POPE  H14S18314   1.893   8.056   5.081
  186POPE  C21518315   1.853   8.008   5.280
  186POPE  H15R18316   1.917   8.089   5.324
  186POPE  H15S18317   1.915   7.916   5.276
  186POPE  C21618318   1.735   7.979   5.364
  186POPE  H16R18319   1.764   7.968   5.462
  186POPE  H16S18320   1.682   7.884   5.348
  186POPE  C21718321   1.654   8.092   5.411
  186POPE  H17R18322   1.595   8.131   5.327
  186POPE  H17S18323   1.718   8.174   5.454
  186POPE  C21818324   1.565   8.023   5.513
  186POPE  H18R18325   1.475   8.080   5.521
  186POPE  H18S18326   1.594   8.014   5.621
  186POPE  H18T18327   1.479   7.980   5.470
  186POPE   C3318328   1.147   7.937   3.939
  186POPE   H3X18329   1.134   7.847   3.875
  186POPE   H3Y18330   1.046   7.976   3.951
  186POPE   C3418331   1.200   7.896   4.077
  186POPE   H4X18332   1.219   7.987   4.138
  186POPE   H4Y18333   1.295   7.841   4.063
  186POPE   C3518334   1.102   7.806   4.155
  186POPE   H5X18335   1.076   7.719   4.091
  186POPE   H5Y18336   1.006   7.854   4.179
  186POPE   C3618337   1.153   7.761   4.292
  186POPE   H6X18338   1.249   7.709   4.276
  186POPE   H6Y18339   1.079   7.690   4.338
  186POPE   C3718340   1.181   7.875   4.392
  186POPE   H7X18341   1.088   7.933   4.404
  186POPE   H7Y18342   1.259   7.941   4.350
  186POPE   C3818343   1.231   7.816   4.525
  186POPE   H8X18344   1.300   7.735   4.495
  186POPE   H8Y18345   1.144   7.767   4.575
  186POPE   C3918346   1.321   7.904   4.618
  186POPE   H9X18347   1.391   7.971   4.563
  186POPE   H9Y18348   1.357   7.846   4.705
  186POPE  C31018349   1.242   8.004   4.689
  186POPE  H10X18350   1.161   7.931   4.709
  186POPE  H10Y18351   1.234   8.071   4.604
  186POPE  C31118352   1.272   8.101   4.806
  186POPE  H11X18353   1.194   8.183   4.816
  186POPE  H11Y18354   1.363   8.157   4.787
  186POPE  C31218355   1.260   8.021   4.934
  186POPE  H12X18356   1.306   7.923   4.913
  186POPE  H12Y18357   1.156   7.998   4.960
  186POPE  C31318358   1.320   8.092   5.051
  186POPE  H13X18359   1.271   8.191   5.065
  186POPE  H13Y18360   1.425   8.108   5.023
  186POPE  C31418361   1.320   8.003   5.176
  186POPE  H14X18362   1.397   8.045   5.245
  186POPE  H14Y18363   1.345   7.899   5.152
  186POPE  C31518364   1.189   7.992   5.248
  186POPE  H15X18365   1.184   7.913   5.322
  186POPE  H15Y18366   1.098   7.994   5.184
  186POPE  C31618367   1.186   8.108   5.332
  186POPE  H16X18368   1.185   8.187   5.252
  186POPE  H16Y18369   1.270   8.130   5.400
  186POPE  H16Z18370   1.091   8.107   5.391
  187POPE     N18371   7.968   5.516   3.498
  187POPE   HN118372   8.056   5.530   3.444
  187POPE   HN218373   7.994   5.506   3.598
  187POPE   HN318374   7.918   5.430   3.466
  187POPE   C1218375   7.884   5.641   3.486
  187POPE  H12A18376   7.777   5.614   3.486
  187POPE  H12B18377   7.910   5.691   3.390
  187POPE   C1118378   7.911   5.736   3.603
  187POPE  H11A18379   7.875   5.690   3.698
  187POPE  H11B18380   7.850   5.829   3.587
  187POPE     P18381   8.121   5.900   3.632
  187POPE   O1318382   8.137   5.958   3.497
  187POPE   O1418383   8.236   5.890   3.722
  187POPE   O1118384   8.004   5.973   3.696
  187POPE   O1218385   8.052   5.758   3.614
  187POPE    C118386   8.031   6.106   3.727
  187POPE    HA18387   8.003   6.175   3.643
  187POPE    HB18388   8.134   6.136   3.760
  187POPE    C218389   7.943   6.128   3.844
  187POPE    HS18390   7.975   6.234   3.849
  187POPE   O2118391   7.976   6.072   3.970
  187POPE   C2118392   8.062   6.150   4.036
  187POPE   O2218393   8.119   6.250   3.996
  187POPE   C2218394   8.045   6.118   4.181
  187POPE   H2R18395   8.069   6.209   4.239
  187POPE   H2S18396   8.122   6.039   4.190
  187POPE    C318397   7.792   6.082   3.796
  187POPE    HX18398   7.794   5.987   3.747
  187POPE    HY18399   7.733   6.143   3.722
  187POPE   O3118400   7.706   6.082   3.903
  187POPE   C3118401   7.611   5.998   3.905
  187POPE   O3218402   7.559   5.938   3.813
  187POPE   C3218403   7.570   6.010   4.044
  187POPE   H2X18404   7.489   6.083   4.024
  187POPE   H2Y18405   7.653   6.047   4.108
  187POPE   C2318406   7.907   6.065   4.224
  187POPE   H3R18407   7.886   5.969   4.172
  187POPE   H3S18408   7.826   6.132   4.193
  187POPE   C2418409   7.899   6.047   4.375
  187POPE   H4R18410   7.803   5.999   4.404
  187POPE   H4S18411   7.904   6.146   4.427
  187POPE   C2518412   8.016   5.964   4.426
  187POPE   H5R18413   8.113   6.013   4.405
  187POPE   H5S18414   8.017   5.866   4.372
  187POPE   C2618415   8.012   5.949   4.576
  187POPE   H6R18416   8.004   6.043   4.632
  187POPE   H6S18417   8.105   5.893   4.607
  187POPE   C2718418   7.890   5.884   4.633
  187POPE   H7R18419   7.790   5.930   4.619
  187POPE   H7S18420   7.934   5.889   4.740
  187POPE   C2818421   7.864   5.761   4.564
  187POPE   H8R18422   7.962   5.737   4.518
  187POPE   H8S18423   7.800   5.735   4.474
  187POPE   C2918424   7.825   5.709   4.701
  187POPE   H9118425   7.736   5.655   4.665
  187POPE  C21018426   7.913   5.643   4.787
  187POPE  H10118427   7.883   5.558   4.840
  187POPE  C21118428   8.055   5.593   4.794
  187POPE  H11R18429   8.135   5.612   4.721
  187POPE  H11S18430   8.067   5.481   4.774
  187POPE  C21218431   8.050   5.653   4.929
  187POPE  H12R18432   8.036   5.761   4.936
  187POPE  H12S18433   8.158   5.654   4.924
  187POPE  C21318434   7.964   5.580   5.041
  187POPE  H13R18435   7.996   5.482   5.045
  187POPE  H13S18436   7.860   5.547   5.029
  187POPE  C21418437   7.962   5.628   5.177
  187POPE  H14R18438   7.909   5.555   5.246
  187POPE  H14S18439   7.922   5.724   5.165
  187POPE  C21518440   8.097   5.668   5.211
  187POPE  H15R18441   8.173   5.688   5.136
  187POPE  H15S18442   8.107   5.567   5.242
  187POPE  C21618443   8.119   5.731   5.337
  187POPE  H16R18444   8.038   5.805   5.357
  187POPE  H16S18445   8.224   5.768   5.356
  187POPE  C21718446   8.107   5.617   5.430
  187POPE  H17R18447   8.201   5.565   5.464
  187POPE  H17S18448   8.019   5.548   5.415
  187POPE  C21818449   8.078   5.677   5.534
  187POPE  H18R18450   8.112   5.785   5.530
  187POPE  H18S18451   8.131   5.646   5.622
  187POPE  H18T18452   7.969   5.660   5.556
  187POPE   C3318453   7.521   5.887   4.109
  187POPE   H3X18454   7.607   5.817   4.106
  187POPE   H3Y18455   7.440   5.872   4.035
  187POPE   C3418456   7.447   5.867   4.241
  187POPE   H4X18457   7.409   5.763   4.236
  187POPE   H4Y18458   7.357   5.925   4.246
  187POPE   C3518459   7.523   5.878   4.368
  187POPE   H5X18460   7.551   5.983   4.391
  187POPE   H5Y18461   7.620   5.826   4.356
  187POPE   C3618462   7.436   5.819   4.480
  187POPE   H6X18463   7.408   5.715   4.458
  187POPE   H6Y18464   7.341   5.873   4.487
  187POPE   C3718465   7.508   5.837   4.611
  187POPE   H7X18466   7.529   5.946   4.614
  187POPE   H7Y18467   7.603   5.782   4.605
  187POPE   C3818468   7.434   5.795   4.738
  187POPE   H8X18469   7.481   5.707   4.786
  187POPE   H8Y18470   7.329   5.768   4.712
  187POPE   C3918471   7.427   5.906   4.842
  187POPE   H9X18472   7.385   5.859   4.934
  187POPE   H9Y18473   7.354   5.977   4.799
  187POPE  C31018474   7.554   5.984   4.880
  187POPE  H10X18475   7.530   6.073   4.943
  187POPE  H10Y18476   7.602   6.025   4.789
  187POPE  C31118477   7.651   5.903   4.966
  187POPE  H11X18478   7.739   5.968   4.987
  187POPE  H11Y18479   7.690   5.815   4.911
  187POPE  C31218480   7.588   5.860   5.100
  187POPE  H12X18481   7.522   5.771   5.087
  187POPE  H12Y18482   7.528   5.943   5.142
  187POPE  C31318483   7.696   5.825   5.199
  187POPE  H13X18484   7.752   5.916   5.234
  187POPE  H13Y18485   7.758   5.764   5.136
  187POPE  C31418486   7.656   5.737   5.314
  187POPE  H14X18487   7.743   5.687   5.364
  187POPE  H14Y18488   7.578   5.661   5.291
  187POPE  C31518489   7.611   5.827   5.419
  187POPE  H15X18490   7.526   5.889   5.382
  187POPE  H15Y18491   7.693   5.896   5.449
  187POPE  C31618492   7.574   5.742   5.534
  187POPE  H16X18493   7.631   5.648   5.549
  187POPE  H16Y18494   7.465   5.722   5.526
  187POPE  H16Z18495   7.589   5.795   5.630
  188POPE     N18496   7.473   0.523   3.545
  188POPE   HN118497   7.401   0.498   3.615
  188POPE   HN218498   7.494   0.442   3.484
  188POPE   HN318499   7.559   0.563   3.589
  188POPE   C1218500   7.411   0.635   3.467
  188POPE  H12A18501   7.300   0.625   3.478
  188POPE  H12B18502   7.442   0.625   3.362
  188POPE   C1118503   7.453   0.771   3.524
  188POPE  H11A18504   7.387   0.793   3.612
  188POPE  H11B18505   7.433   0.850   3.447
  188POPE     P18506   7.641   0.902   3.644
  188POPE   O1318507   7.530   0.996   3.661
  188POPE   O1418508   7.763   0.945   3.575
  188POPE   O1118509   7.677   0.835   3.782
  188POPE   O1218510   7.590   0.773   3.562
  188POPE    C118511   7.678   0.696   3.807
  188POPE    HA18512   7.748   0.644   3.738
  188POPE    HB18513   7.576   0.653   3.791
  188POPE    C218514   7.722   0.674   3.954
  188POPE    HS18515   7.716   0.564   3.977
  188POPE   O2118516   7.639   0.746   4.046
  188POPE   C2118517   7.513   0.712   4.047
  188POPE   O2218518   7.461   0.619   3.988
  188POPE   C2218519   7.440   0.808   4.141
  188POPE   H2R18520   7.345   0.834   4.089
  188POPE   H2S18521   7.499   0.900   4.158
  188POPE    C318522   7.868   0.723   3.978
  188POPE    HX18523   7.873   0.832   3.960
  188POPE    HY18524   7.935   0.679   3.900
  188POPE   O3118525   7.910   0.702   4.116
  188POPE   C3118526   7.942   0.574   4.126
  188POPE   O3218527   7.940   0.499   4.030
  188POPE   C3218528   7.979   0.534   4.267
  188POPE   H2X18529   7.938   0.608   4.336
  188POPE   H2Y18530   8.088   0.544   4.278
  188POPE   C2318531   7.407   0.739   4.274
  188POPE   H3R18532   7.354   0.644   4.250
  188POPE   H3S18533   7.339   0.805   4.332
  188POPE   C2418534   7.525   0.703   4.364
  188POPE   H4R18535   7.592   0.633   4.311
  188POPE   H4S18536   7.485   0.659   4.457
  188POPE   C2518537   7.608   0.818   4.414
  188POPE   H5R18538   7.543   0.907   4.429
  188POPE   H5S18539   7.685   0.845   4.337
  188POPE   C2618540   7.681   0.787   4.547
  188POPE   H6R18541   7.612   0.756   4.628
  188POPE   H6S18542   7.733   0.875   4.588
  188POPE   C2718543   7.800   0.698   4.527
  188POPE   H7R18544   7.876   0.762   4.476
  188POPE   H7S18545   7.771   0.615   4.460
  188POPE   C2818546   7.859   0.645   4.656
  188POPE   H8R18547   7.791   0.586   4.719
  188POPE   H8S18548   7.889   0.733   4.719
  188POPE   C2918549   7.975   0.562   4.608
  188POPE   H9118550   8.038   0.612   4.532
  188POPE  C21018551   8.038   0.477   4.690
  188POPE  H10118552   8.144   0.459   4.662
  188POPE  C21118553   8.000   0.453   4.837
  188POPE  H11R18554   8.013   0.350   4.852
  188POPE  H11S18555   7.892   0.448   4.847
  188POPE  C21218556   8.052   0.503   4.976
  188POPE  H12R18557   8.161   0.497   4.987
  188POPE  H12S18558   8.032   0.430   5.058
  188POPE  C21318559   8.003   0.643   5.014
  188POPE  H13R18560   7.900   0.665   5.010
  188POPE  H13S18561   8.029   0.716   4.945
  188POPE  C21418562   8.083   0.701   5.121
  188POPE  H14R18563   8.125   0.801   5.149
  188POPE  H14S18564   8.164   0.644   5.087
  188POPE  C21518565   8.044   0.667   5.242
  188POPE  H15R18566   8.118   0.706   5.318
  188POPE  H15S18567   8.020   0.557   5.235
  188POPE  C21618568   7.951   0.769   5.255
  188POPE  H16R18569   7.877   0.791   5.176
  188POPE  H16S18570   7.999   0.868   5.285
  188POPE  C21718571   7.914   0.674   5.362
  188POPE  H17R18572   7.975   0.684   5.459
  188POPE  H17S18573   7.865   0.576   5.337
  188POPE  C21818574   7.805   0.730   5.386
  188POPE  H18R18575   7.779   0.672   5.480
  188POPE  H18S18576   7.724   0.740   5.317
  188POPE  H18T18577   7.851   0.835   5.404
  188POPE   C3318578   7.925   0.393   4.307
  188POPE   H3X18579   7.958   0.373   4.412
  188POPE   H3Y18580   7.962   0.311   4.243
  188POPE   C3418581   7.777   0.370   4.289
  188POPE   H4X18582   7.757   0.374   4.179
  188POPE   H4Y18583   7.721   0.452   4.338
  188POPE   C3518584   7.724   0.234   4.338
  188POPE   H5X18585   7.783   0.151   4.291
  188POPE   H5Y18586   7.619   0.229   4.301
  188POPE   C3618587   7.722   0.216   4.489
  188POPE   H6X18588   7.823   0.240   4.530
  188POPE   H6Y18589   7.701   0.109   4.514
  188POPE   C3718590   7.619   0.301   4.563
  188POPE   H7X18591   7.516   0.263   4.549
  188POPE   H7Y18592   7.621   0.408   4.535
  188POPE   C3818593   7.654   0.298   4.710
  188POPE   H8X18594   7.760   0.324   4.731
  188POPE   H8Y18595   7.655   0.190   4.736
  188POPE   C3918596   7.558   0.394   4.783
  188POPE   H9X18597   7.454   0.357   4.772
  188POPE   H9Y18598   7.556   0.493   4.733
  188POPE  C31018599   7.595   0.412   4.930
  188POPE  H10X18600   7.697   0.448   4.946
  188POPE  H10Y18601   7.595   0.308   4.973
  188POPE  C31118602   7.500   0.506   5.007
  188POPE  H11X18603   7.397   0.478   4.986
  188POPE  H11Y18604   7.497   0.608   4.964
  188POPE  C31218605   7.536   0.508   5.157
  188POPE  H12X18606   7.472   0.571   5.218
  188POPE  H12Y18607   7.623   0.571   5.172
  188POPE  C31318608   7.556   0.371   5.223
  188POPE  H13X18609   7.640   0.316   5.176
  188POPE  H13Y18610   7.469   0.301   5.220
  188POPE  C31418611   7.584   0.386   5.371
  188POPE  H14X18612   7.506   0.446   5.423
  188POPE  H14Y18613   7.682   0.436   5.389
  188POPE  C31518614   7.588   0.249   5.429
  188POPE  H15X18615   7.515   0.172   5.398
  188POPE  H15Y18616   7.575   0.261   5.538
  188POPE  C31618617   7.723   0.194   5.413
  188POPE  H16X18618   7.726   0.087   5.417
  188POPE  H16Y18619   7.759   0.234   5.510
  188POPE  H16Z18620   7.794   0.221   5.335
  189PMPG   C1318621   5.630   5.331   7.380
  189PMPG  H13A18622   5.541   5.269   7.354
  189PMPG  H13B18623   5.688   5.345   7.285
  189PMPG   OC318624   5.705   5.275   7.489
  189PMPG   HO318625   5.785   5.248   7.447
  189PMPG   C1218626   5.624   5.478   7.403
  189PMPG  H12A18627   5.727   5.516   7.382
  189PMPG   OC218628   5.602   5.505   7.540
  189PMPG   HO218629   5.536   5.575   7.538
  189PMPG   C1118630   5.530   5.551   7.308
  189PMPG  H11A18631   5.566   5.551   7.202
  189PMPG  H11B18632   5.538   5.656   7.344
  189PMPG     P18633   5.291   5.562   7.406
  189PMPG   O1318634   5.341   5.571   7.543
  189PMPG   O1418635   5.159   5.491   7.399
  189PMPG   O1118636   5.298   5.711   7.347
  189PMPG   O1218637   5.399   5.494   7.312
  189PMPG    C118638   5.211   5.775   7.254
  189PMPG    HA18639   5.210   5.886   7.265
  189PMPG    HB18640   5.106   5.754   7.283
  189PMPG    C218641   5.255   5.742   7.104
  189PMPG    HS18642   5.195   5.805   7.035
  189PMPG   O2118643   5.262   5.605   7.054
  189PMPG   C2118644   5.165   5.529   7.096
  189PMPG   O2218645   5.089   5.562   7.182
  189PMPG   C2218646   5.129   5.409   7.010
  189PMPG   H2R18647   5.022   5.413   6.975
  189PMPG   H2S18648   5.140   5.324   7.079
  189PMPG    C318649   5.396   5.790   7.081
  189PMPG    HX18650   5.452   5.731   7.157
  189PMPG    HY18651   5.405   5.898   7.099
  189PMPG   O3118652   5.432   5.754   6.946
  189PMPG   C3118653   5.546   5.688   6.939
  189PMPG   O3218654   5.636   5.693   7.022
  189PMPG   C3218655   5.554   5.625   6.800
  189PMPG   H2X18656   5.594   5.709   6.755
  189PMPG   H2Y18657   5.461   5.626   6.743
  189PMPG   C2318658   5.198   5.393   6.881
  189PMPG   H3R18659   5.217   5.285   6.873
  189PMPG   H3S18660   5.291   5.454   6.884
  189PMPG   C2418661   5.112   5.422   6.761
  189PMPG   H4R18662   5.000   5.431   6.772
  189PMPG   H4S18663   5.137   5.351   6.682
  189PMPG   C2518664   5.168   5.544   6.704
  189PMPG   H5R18665   5.273   5.573   6.699
  189PMPG   H5S18666   5.145   5.607   6.790
  189PMPG   C2618667   5.096   5.573   6.578
  189PMPG   H6R18668   5.141   5.673   6.582
  189PMPG   H6S18669   4.985   5.561   6.587
  189PMPG   C2718670   5.145   5.537   6.439
  189PMPG   H7R18671   5.053   5.511   6.380
  189PMPG   H7S18672   5.204   5.449   6.468
  189PMPG   C2818673   5.244   5.639   6.371
  189PMPG   H8R18674   5.281   5.589   6.280
  189PMPG   H8S18675   5.313   5.679   6.447
  189PMPG   C2918676   5.180   5.763   6.325
  189PMPG   H9R18677   5.082   5.736   6.320
  189PMPG  C21718678   5.235   5.899   6.338
  189PMPG  H17R18679   5.165   5.966   6.385
  189PMPG  H17S18680   5.337   5.908   6.355
  189PMPG  C21018681   5.190   5.846   6.202
  189PMPG  H10R18682   5.087   5.862   6.169
  189PMPG  C21118683   5.278   5.794   6.098
  189PMPG  H11R18684   5.369   5.827   6.145
  189PMPG  H11S18685   5.273   5.685   6.079
  189PMPG  C21218686   5.255   5.869   5.973
  189PMPG  H12R18687   5.304   5.957   5.989
  189PMPG  H12S18688   5.169   5.903   5.923
  189PMPG  C21318689   5.321   5.843   5.855
  189PMPG  H13R18690   5.311   5.733   5.844
  189PMPG  H13S18691   5.421   5.886   5.881
  189PMPG  C21418692   5.281   5.949   5.752
  189PMPG  H14R18693   5.346   6.038   5.761
  189PMPG  H14S18694   5.179   5.974   5.716
  189PMPG  C21518695   5.375   5.956   5.659
  189PMPG  H15R18696   5.308   5.864   5.656
  189PMPG  H15S18697   5.470   5.915   5.696
  189PMPG  C21618698   5.385   6.059   5.541
  189PMPG  H16R18699   5.409   6.015   5.441
  189PMPG  H16S18700   5.482   6.098   5.513
  189PMPG  H16T18701   5.286   6.092   5.504
  189PMPG   C3318702   5.683   5.552   6.755
  189PMPG   H3X18703   5.661   5.446   6.773
  189PMPG   H3Y18704   5.764   5.580   6.825
  189PMPG   C3418705   5.738   5.578   6.611
  189PMPG   H4X18706   5.827   5.518   6.599
  189PMPG   H4Y18707   5.786   5.674   6.588
  189PMPG   C3518708   5.643   5.531   6.505
  189PMPG   H5X18709   5.558   5.601   6.490
  189PMPG   H5Y18710   5.598   5.439   6.546
  189PMPG   C3618711   5.707   5.505   6.368
  189PMPG   H6X18712   5.801   5.450   6.372
  189PMPG   H6Y18713   5.746   5.592   6.311
  189PMPG   C3718714   5.592   5.441   6.292
  189PMPG   H7X18715   5.506   5.514   6.286
  189PMPG   H7Y18716   5.551   5.357   6.351
  189PMPG   C3818717   5.636   5.400   6.153
  189PMPG   H8X18718   5.722   5.331   6.157
  189PMPG   H8Y18719   5.679   5.483   6.100
  189PMPG   C3918720   5.517   5.351   6.075
  189PMPG   H9X18721   5.427   5.414   6.075
  189PMPG   H9Y18722   5.486   5.264   6.133
  189PMPG  C31018723   5.546   5.308   5.934
  189PMPG  H10X18724   5.451   5.262   5.898
  189PMPG  H10Y18725   5.644   5.255   5.922
  189PMPG  C31118726   5.545   5.401   5.824
  189PMPG  H11X18727   5.607   5.471   5.873
  189PMPG  H11Y18728   5.442   5.448   5.821
  189PMPG  C31218729   5.626   5.368   5.693
  189PMPG  H12X18730   5.567   5.301   5.633
  189PMPG  H12Y18731   5.713   5.305   5.710
  189PMPG  C31318732   5.667   5.477   5.587
  189PMPG  H13X18733   5.583   5.536   5.559
  189PMPG  H13Y18734   5.675   5.442   5.484
  189PMPG  C31418735   5.770   5.580   5.626
  189PMPG  H14X18736   5.750   5.635   5.718
  189PMPG  H14Y18737   5.777   5.667   5.558
  189PMPG  C31518738   5.881   5.516   5.690
  189PMPG  H15X18739   5.916   5.454   5.607
  189PMPG  H15Y18740   5.839   5.456   5.776
  189PMPG  C31618741   5.967   5.629   5.739
  189PMPG  H16X18742   5.935   5.688   5.824
  189PMPG  H16Y18743   5.984   5.704   5.659
  189PMPG  H16Z18744   6.054   5.582   5.782
  190PMPG   C1318745   2.035   3.779   7.664
  190PMPG  H13A18746   1.940   3.798   7.719
  190PMPG  H13B18747   2.098   3.712   7.726
  190PMPG   OC318748   2.099   3.906   7.652
  190PMPG   HO318749   2.136   3.934   7.737
  190PMPG   C1218750   2.011   3.705   7.528
  190PMPG  H12A18751   1.957   3.610   7.547
  190PMPG   OC218752   2.134   3.662   7.470
  190PMPG   HO218753   2.119   3.654   7.376
  190PMPG   C1118754   1.926   3.779   7.425
  190PMPG  H11A18755   1.828   3.811   7.466
  190PMPG  H11B18756   1.910   3.715   7.337
  190PMPG     P18757   1.988   3.955   7.243
  190PMPG   O1318758   2.045   4.084   7.280
  190PMPG   O1418759   1.852   3.944   7.186
  190PMPG   O1118760   2.092   3.887   7.146
  190PMPG   O1218761   1.997   3.891   7.384
  190PMPG    C118762   2.164   3.976   7.059
  190PMPG    HA18763   2.266   3.936   7.042
  190PMPG    HB18764   2.183   4.079   7.101
  190PMPG    C218765   2.084   4.004   6.928
  190PMPG    HS18766   2.008   4.073   6.961
  190PMPG   O2118767   2.032   3.890   6.857
  190PMPG   C2118768   1.942   3.927   6.767
  190PMPG   O2218769   1.881   4.031   6.762
  190PMPG   C2218770   1.921   3.821   6.662
  190PMPG   H2R18771   1.823   3.780   6.681
  190PMPG   H2S18772   1.995   3.740   6.671
  190PMPG    C318773   2.168   4.077   6.832
  190PMPG    HX18774   2.208   4.165   6.893
  190PMPG    HY18775   2.116   4.121   6.743
  190PMPG   O3118776   2.257   3.965   6.794
  190PMPG   C3118777   2.341   4.020   6.726
  190PMPG   O3218778   2.337   4.146   6.722
  190PMPG   C3218779   2.457   3.898   6.669
  190PMPG   H2X18780   2.446   3.812   6.729
  190PMPG   H2Y18781   2.554   3.935   6.685
  190PMPG   C2318782   1.918   3.891   6.526
  190PMPG   H3R18783   1.863   3.988   6.528
  190PMPG   H3S18784   1.868   3.829   6.449
  190PMPG   C2418785   2.057   3.914   6.474
  190PMPG   H4R18786   2.103   3.819   6.439
  190PMPG   H4S18787   2.128   3.955   6.551
  190PMPG   C2518788   2.043   4.014   6.361
  190PMPG   H5R18789   2.111   3.975   6.292
  190PMPG   H5S18790   2.081   4.109   6.396
  190PMPG   C2618791   1.938   4.007   6.249
  190PMPG   H6R18792   1.845   4.047   6.294
  190PMPG   H6S18793   1.929   3.900   6.221
  190PMPG   C2718794   1.962   4.077   6.110
  190PMPG   H7R18795   1.998   4.179   6.108
  190PMPG   H7S18796   1.865   4.080   6.058
  190PMPG   C2818797   2.065   4.035   6.010
  190PMPG   H8R18798   2.055   3.928   5.989
  190PMPG   H8S18799   2.157   4.070   6.061
  190PMPG   C2918800   2.082   4.121   5.887
  190PMPG   H9R18801   2.108   4.225   5.913
  190PMPG  C21718802   2.161   4.059   5.778
  190PMPG  H17R18803   2.215   4.111   5.702
  190PMPG  H17S18804   2.188   3.974   5.827
  190PMPG  C21018805   2.017   4.085   5.756
  190PMPG  H10R18806   2.013   4.154   5.671
  190PMPG  C21118807   1.944   3.957   5.739
  190PMPG  H11R18808   1.988   3.875   5.799
  190PMPG  H11S18809   1.841   3.978   5.775
  190PMPG  C21218810   1.937   3.912   5.591
  190PMPG  H12R18811   1.868   3.977   5.534
  190PMPG  H12S18812   1.895   3.810   5.599
  190PMPG  C21318813   2.067   3.907   5.510
  190PMPG  H13R18814   2.120   4.004   5.514
  190PMPG  H13S18815   2.048   3.881   5.404
  190PMPG  C21418816   2.156   3.796   5.555
  190PMPG  H14R18817   2.108   3.698   5.562
  190PMPG  H14S18818   2.180   3.824   5.660
  190PMPG  C21518819   2.274   3.781   5.459
  190PMPG  H15R18820   2.263   3.737   5.360
  190PMPG  H15S18821   2.330   3.693   5.501
  190PMPG  C21618822   2.352   3.915   5.447
  190PMPG  H16R18823   2.447   3.906   5.392
  190PMPG  H16S18824   2.376   3.952   5.547
  190PMPG  H16T18825   2.309   4.007   5.427
  190PMPG   C3318826   2.573   3.870   6.551
  190PMPG   H3X18827   2.662   3.807   6.558
  190PMPG   H3Y18828   2.652   3.953   6.535
  190PMPG   C3418829   2.467   3.827   6.457
  190PMPG   H4X18830   2.386   3.899   6.452
  190PMPG   H4Y18831   2.406   3.751   6.510
  190PMPG   C3518832   2.503   3.776   6.324
  190PMPG   H5X18833   2.601   3.730   6.335
  190PMPG   H5Y18834   2.523   3.844   6.238
  190PMPG   C3618835   2.389   3.688   6.276
  190PMPG   H6X18836   2.300   3.744   6.251
  190PMPG   H6Y18837   2.311   3.649   6.341
  190PMPG   C3718838   2.444   3.631   6.147
  190PMPG   H7X18839   2.487   3.537   6.179
  190PMPG   H7Y18840   2.530   3.696   6.108
  190PMPG   C3818841   2.351   3.622   6.027
  190PMPG   H8X18842   2.412   3.608   5.936
  190PMPG   H8Y18843   2.289   3.707   6.015
  190PMPG   C3918844   2.216   3.566   6.028
  190PMPG   H9X18845   2.169   3.591   6.124
  190PMPG   H9Y18846   2.253   3.467   6.020
  190PMPG  C31018847   2.124   3.592   5.910
  190PMPG  H10X18848   2.164   3.545   5.817
  190PMPG  H10Y18849   2.097   3.698   5.885
  190PMPG  C31118850   1.997   3.522   5.948
  190PMPG  H11X18851   1.960   3.555   6.047
  190PMPG  H11Y18852   2.011   3.412   5.948
  190PMPG  C31218853   1.900   3.543   5.841
  190PMPG  H12X18854   1.872   3.650   5.833
  190PMPG  H12Y18855   1.815   3.475   5.862
  190PMPG  C31318856   1.953   3.509   5.705
  190PMPG  H13X18857   1.973   3.399   5.701
  190PMPG  H13Y18858   2.038   3.565   5.673
  190PMPG  C31418859   1.860   3.562   5.601
  190PMPG  H14X18860   1.763   3.613   5.601
  190PMPG  H14Y18861   1.811   3.482   5.649
  190PMPG  C31518862   1.897   3.546   5.461
  190PMPG  H15X18863   1.908   3.444   5.417
  190PMPG  H15Y18864   1.987   3.606   5.436
  190PMPG  C31618865   1.797   3.624   5.387
  190PMPG  H16X18866   1.699   3.675   5.396
  190PMPG  H16Y18867   1.818   3.717   5.439
  190PMPG  H16Z18868   1.827   3.605   5.283
  191PMPG   C1318869   3.545   7.029   7.234
  191PMPG  H13A18870   3.506   6.945   7.172
  191PMPG  H13B18871   3.464   7.059   7.305
  191PMPG   OC318872   3.578   7.141   7.152
  191PMPG   HO318873   3.599   7.213   7.212
  191PMPG   C1218874   3.665   6.974   7.317
  191PMPG  H12A18875   3.684   7.044   7.402
  191PMPG   OC218876   3.783   6.964   7.239
  191PMPG   HO218877   3.845   6.921   7.299
  191PMPG   C1118878   3.635   6.835   7.377
  191PMPG  H11A18879   3.614   6.766   7.291
  191PMPG  H11B18880   3.542   6.842   7.439
  191PMPG     P18881   3.730   6.659   7.540
  191PMPG   O1318882   3.625   6.673   7.642
  191PMPG   O1418883   3.862   6.602   7.578
  191PMPG   O1118884   3.673   6.564   7.433
  191PMPG   O1218885   3.748   6.791   7.455
  191PMPG    C118886   3.676   6.424   7.459
  191PMPG    HA18887   3.630   6.397   7.558
  191PMPG    HB18888   3.777   6.380   7.449
  191PMPG    C218889   3.589   6.361   7.355
  191PMPG    HS18890   3.611   6.251   7.353
  191PMPG   O2118891   3.598   6.421   7.221
  191PMPG   C2118892   3.714   6.400   7.156
  191PMPG   O2218893   3.803   6.330   7.202
  191PMPG   C2218894   3.708   6.433   6.995
  191PMPG   H2R18895   3.795   6.388   6.948
  191PMPG   H2S18896   3.678   6.539   6.987
  191PMPG    C318897   3.445   6.375   7.410
  191PMPG    HX18898   3.414   6.320   7.502
  191PMPG    HY18899   3.406   6.317   7.338
  191PMPG   O3118900   3.377   6.495   7.388
  191PMPG   C3118901   3.285   6.506   7.293
  191PMPG   O3218902   3.241   6.427   7.214
  191PMPG   C3218903   3.244   6.645   7.310
  191PMPG   H2X18904   3.328   6.708   7.341
  191PMPG   H2Y18905   3.179   6.631   7.399
  191PMPG   C2318906   3.596   6.384   6.900
  191PMPG   H3R18907   3.546   6.391   6.990
  191PMPG   H3S18908   3.558   6.289   6.871
  191PMPG   C2418909   3.564   6.361   6.757
  191PMPG   H4R18910   3.470   6.305   6.722
  191PMPG   H4S18911   3.644   6.300   6.711
  191PMPG   C2518912   3.577   6.492   6.716
  191PMPG   H5R18913   3.686   6.503   6.715
  191PMPG   H5S18914   3.529   6.559   6.793
  191PMPG   C2618915   3.516   6.479   6.585
  191PMPG   H6R18916   3.530   6.580   6.543
  191PMPG   H6S18917   3.410   6.453   6.599
  191PMPG   C2718918   3.521   6.353   6.500
  191PMPG   H7R18919   3.441   6.278   6.532
  191PMPG   H7S18920   3.623   6.317   6.500
  191PMPG   C2818921   3.489   6.392   6.365
  191PMPG   H8R18922   3.528   6.494   6.362
  191PMPG   H8S18923   3.382   6.391   6.369
  191PMPG   C2918924   3.482   6.300   6.247
  191PMPG   H9R18925   3.438   6.207   6.264
  191PMPG  C21718926   3.513   6.331   6.105
  191PMPG  H17R18927   3.568   6.424   6.113
  191PMPG  H17S18928   3.527   6.431   6.076
  191PMPG  C21018929   3.591   6.238   6.186
  191PMPG  H10R18930   3.567   6.138   6.139
  191PMPG  C21118931   3.712   6.313   6.213
  191PMPG  H11R18932   3.692   6.416   6.251
  191PMPG  H11S18933   3.761   6.258   6.294
  191PMPG  C21218934   3.771   6.331   6.076
  191PMPG  H12R18935   3.862   6.390   6.090
  191PMPG  H12S18936   3.718   6.381   5.995
  191PMPG  C21318937   3.778   6.198   6.017
  191PMPG  H13R18938   3.712   6.110   6.023
  191PMPG  H13S18939   3.831   6.171   6.106
  191PMPG  C21418940   3.841   6.204   5.881
  191PMPG  H14R18941   3.879   6.103   5.876
  191PMPG  H14S18942   3.921   6.280   5.868
  191PMPG  C21518943   3.747   6.176   5.769
  191PMPG  H15R18944   3.674   6.255   5.775
  191PMPG  H15S18945   3.697   6.079   5.790
  191PMPG  C21618946   3.804   6.167   5.630
  191PMPG  H16R18947   3.731   6.125   5.560
  191PMPG  H16S18948   3.887   6.094   5.623
  191PMPG  H16T18949   3.836   6.269   5.595
  191PMPG   C3318950   3.178   6.701   7.184
  191PMPG   H3X18951   3.142   6.804   7.206
  191PMPG   H3Y18952   3.093   6.636   7.149
  191PMPG   C3418953   3.267   6.715   7.070
  191PMPG   H4X18954   3.260   6.612   7.038
  191PMPG   H4Y18955   3.371   6.740   7.099
  191PMPG   C3518956   3.207   6.802   6.960
  191PMPG   H5X18957   3.195   6.904   6.997
  191PMPG   H5Y18958   3.107   6.760   6.931
  191PMPG   C3618959   3.311   6.807   6.850
  191PMPG   H6X18960   3.334   6.700   6.859
  191PMPG   H6Y18961   3.414   6.834   6.873
  191PMPG   C3718962   3.266   6.873   6.715
  191PMPG   H7X18963   3.255   6.980   6.735
  191PMPG   H7Y18964   3.162   6.843   6.686
  191PMPG   C3818965   3.365   6.849   6.595
  191PMPG   H8X18966   3.389   6.743   6.578
  191PMPG   H8Y18967   3.467   6.882   6.621
  191PMPG   C3918968   3.319   6.907   6.458
  191PMPG   H9X18969   3.411   6.905   6.397
  191PMPG   H9Y18970   3.290   7.010   6.479
  191PMPG  C31018971   3.194   6.865   6.373
  191PMPG  H10X18972   3.100   6.877   6.425
  191PMPG  H10Y18973   3.153   6.768   6.381
  191PMPG  C31118974   3.204   6.881   6.218
  191PMPG  H11X18975   3.190   6.981   6.183
  191PMPG  H11Y18976   3.120   6.820   6.173
  191PMPG  C31218977   3.342   6.852   6.153
  191PMPG  H12X18978   3.284   6.764   6.125
  191PMPG  H12Y18979   3.429   6.820   6.216
  191PMPG  C31318980   3.377   6.846   6.005
  191PMPG  H13X18981   3.472   6.789   5.989
  191PMPG  H13Y18982   3.401   6.947   5.979
  191PMPG  C31418983   3.262   6.797   5.916
  191PMPG  H14X18984   3.173   6.859   5.934
  191PMPG  H14Y18985   3.223   6.697   5.943
  191PMPG  C31518986   3.298   6.807   5.768
  191PMPG  H15X18987   3.319   6.912   5.746
  191PMPG  H15Y18988   3.210   6.765   5.713
  191PMPG  C31618989   3.426   6.748   5.716
  191PMPG  H16X18990   3.398   6.648   5.704
  191PMPG  H16Y18991   3.512   6.746   5.787
  191PMPG  H16Z18992   3.452   6.754   5.611
  192PMPG   C1318993   5.234   7.759   7.408
  192PMPG  H13A18994   5.201   7.724   7.307
  192PMPG  H13B18995   5.321   7.826   7.391
  192PMPG   OC318996   5.276   7.646   7.484
  192PMPG   HO318997   5.275   7.677   7.576
  192PMPG   C1218998   5.112   7.834   7.471
  192PMPG  H12A18999   5.078   7.908   7.394
  192PMPG   OC219000   5.144   7.907   7.590
  192PMPG   HO219001   5.057   7.930   7.623
  192PMPG   C1119002   4.992   7.741   7.499
  192PMPG  H11A19003   4.922   7.789   7.567
  192PMPG  H11B19004   5.022   7.648   7.552
  192PMPG     P19005   4.930   7.581   7.300
  192PMPG   O1319006   4.957   7.472   7.396
  192PMPG   O1419007   5.022   7.603   7.186
  192PMPG   O1119008   4.781   7.569   7.251
  192PMPG   O1219009   4.922   7.716   7.379
  192PMPG    C119010   4.687   7.674   7.263
  192PMPG    HA19011   4.695   7.738   7.355
  192PMPG    HB19012   4.583   7.631   7.263
  192PMPG    C219013   4.701   7.767   7.144
  192PMPG    HS19014   4.594   7.776   7.115
  192PMPG   O2119015   4.766   7.712   7.033
  192PMPG   C2119016   4.713   7.611   6.972
  192PMPG   O2219017   4.608   7.553   6.993
  192PMPG   C2219018   4.794   7.606   6.846
  192PMPG   H2R19019   4.901   7.605   6.876
  192PMPG   H2S19020   4.773   7.695   6.782
  192PMPG    C319021   4.778   7.902   7.179
  192PMPG    HX19022   4.870   7.882   7.232
  192PMPG    HY19023   4.707   7.952   7.249
  192PMPG   O3119024   4.807   7.997   7.074
  192PMPG   C3119025   4.915   8.031   7.011
  192PMPG   O3219026   5.026   7.985   7.030
  192PMPG   C3219027   4.890   8.137   6.902
  192PMPG   H2X19028   4.984   8.195   6.891
  192PMPG   H2Y19029   4.809   8.212   6.924
  192PMPG   C2319030   4.765   7.482   6.769
  192PMPG   H3R19031   4.657   7.470   6.745
  192PMPG   H3S19032   4.799   7.395   6.829
  192PMPG   C2419033   4.844   7.492   6.644
  192PMPG   H4R19034   4.953   7.473   6.662
  192PMPG   H4S19035   4.832   7.590   6.591
  192PMPG   C2519036   4.791   7.393   6.549
  192PMPG   H5R19037   4.794   7.292   6.593
  192PMPG   H5S19038   4.880   7.400   6.487
  192PMPG   C2619039   4.648   7.421   6.495
  192PMPG   H6R19040   4.635   7.527   6.470
  192PMPG   H6S19041   4.585   7.393   6.579
  192PMPG   C2719042   4.593   7.339   6.375
  192PMPG   H7R19043   4.610   7.233   6.353
  192PMPG   H7S19044   4.688   7.336   6.344
  192PMPG   C2819045   4.474   7.384   6.287
  192PMPG   H8R19046   4.477   7.478   6.233
  192PMPG   H8S19047   4.411   7.412   6.373
  192PMPG   C2919048   4.427   7.257   6.201
  192PMPG   H9R19049   4.473   7.177   6.248
  192PMPG  C21719050   4.349   7.257   6.076
  192PMPG  H17R19051   4.271   7.188   6.052
  192PMPG  H17S19052   4.353   7.364   6.056
  192PMPG  C21019053   4.476   7.170   6.085
  192PMPG  H10R19054   4.454   7.068   6.057
  192PMPG  C21119055   4.544   7.202   5.975
  192PMPG  H11R19056   4.512   7.305   5.971
  192PMPG  H11S19057   4.634   7.173   6.037
  192PMPG  C21219058   4.664   7.155   5.912
  192PMPG  H12R19059   4.756   7.233   5.941
  192PMPG  H12S19060   4.568   7.186   5.843
  192PMPG  C21319061   4.700   7.069   5.789
  192PMPG  H13R19062   4.620   7.020   5.843
  192PMPG  H13S19063   4.804   7.043   5.811
  192PMPG  C21419064   4.699   7.100   5.629
  192PMPG  H14R19065   4.594   7.093   5.597
  192PMPG  H14S19066   4.750   7.004   5.597
  192PMPG  C21519067   4.760   7.241   5.550
  192PMPG  H15R19068   4.707   7.333   5.532
  192PMPG  H15S19069   4.722   7.219   5.450
  192PMPG  C21619070   4.914   7.314   5.604
  192PMPG  H16R19071   4.999   7.342   5.542
  192PMPG  H16S19072   4.954   7.224   5.658
  192PMPG  H16T19073   4.932   7.371   5.699
  192PMPG   C3319074   4.873   8.074   6.764
  192PMPG   H3X19075   4.871   8.152   6.689
  192PMPG   H3Y19076   4.782   8.024   6.759
  192PMPG   C3419077   4.949   7.950   6.722
  192PMPG   H4X19078   4.941   7.873   6.802
  192PMPG   H4Y19079   5.050   7.995   6.711
  192PMPG   C3519080   4.903   7.883   6.591
  192PMPG   H5X19081   4.876   7.957   6.514
  192PMPG   H5Y19082   4.819   7.811   6.599
  192PMPG   C3619083   5.017   7.806   6.527
  192PMPG   H6X19084   5.044   7.722   6.594
  192PMPG   H6Y19085   5.100   7.880   6.523
  192PMPG   C3719086   4.976   7.760   6.387
  192PMPG   H7X19087   4.930   7.847   6.335
  192PMPG   H7Y19088   4.895   7.685   6.397
  192PMPG   C3819089   5.091   7.699   6.303
  192PMPG   H8X19090   5.058   7.603   6.259
  192PMPG   H8Y19091   5.177   7.678   6.370
  192PMPG   C3919092   5.141   7.784   6.185
  192PMPG   H9X19093   5.233   7.737   6.143
  192PMPG   H9Y19094   5.167   7.886   6.222
  192PMPG  C31019095   5.041   7.804   6.070
  192PMPG  H10X19096   4.941   7.829   6.112
  192PMPG  H10Y19097   5.032   7.711   6.010
  192PMPG  C31119098   5.087   7.914   5.975
  192PMPG  H11X19099   5.195   7.899   5.950
  192PMPG  H11Y19100   5.080   8.013   6.025
  192PMPG  C31219101   5.010   7.911   5.842
  192PMPG  H12X19102   5.044   7.824   5.782
  192PMPG  H12Y19103   5.037   8.005   5.788
  192PMPG  C31319104   4.858   7.901   5.859
  192PMPG  H13X19105   4.831   7.981   5.930
  192PMPG  H13Y19106   4.831   7.804   5.906
  192PMPG  C31419107   4.778   7.912   5.729
  192PMPG  H14X19108   4.820   7.990   5.662
  192PMPG  H14Y19109   4.672   7.942   5.751
  192PMPG  C31519110   4.770   7.774   5.665
  192PMPG  H15X19111   4.699   7.719   5.728
  192PMPG  H15Y19112   4.869   7.724   5.663
  192PMPG  C31619113   4.729   7.772   5.523
  192PMPG  H16X19114   4.803   7.839   5.479
  192PMPG  H16Y19115   4.624   7.810   5.512
  192PMPG  H16Z19116   4.741   7.680   5.464
  193PMPG   C1319117   7.420   4.643   7.514
  193PMPG  H13A19118   7.451   4.685   7.612
  193PMPG  H13B19119   7.489   4.558   7.492
  193PMPG   OC319120   7.441   4.743   7.414
  193PMPG   HO319121   7.481   4.696   7.338
  193PMPG   C1219122   7.272   4.593   7.519
  193PMPG  H12A19123   7.206   4.683   7.521
  193PMPG   OC219124   7.244   4.518   7.637
  193PMPG   HO219125   7.164   4.472   7.611
  193PMPG   C1119126   7.230   4.510   7.395
  193PMPG  H11A19127   7.258   4.566   7.302
  193PMPG  H11B19128   7.120   4.499   7.390
  193PMPG     P19129   7.398   4.333   7.301
  193PMPG   O1319130   7.472   4.225   7.370
  193PMPG   O1419131   7.468   4.446   7.238
  193PMPG   O1119132   7.302   4.272   7.197
  193PMPG   O1219133   7.287   4.379   7.402
  193PMPG    C119134   7.279   4.135   7.216
  193PMPG    HA19135   7.260   4.111   7.317
  193PMPG    HB19136   7.363   4.067   7.189
  193PMPG    C219137   7.165   4.098   7.135
  193PMPG    HS19138   7.138   3.998   7.164
  193PMPG   O2119139   7.215   4.127   6.997
  193PMPG   C2119140   7.298   4.052   6.917
  193PMPG   O2219141   7.374   3.965   6.950
  193PMPG   C2219142   7.273   4.078   6.764
  193PMPG   H2R19143   7.373   4.068   6.719
  193PMPG   H2S19144   7.225   4.177   6.757
  193PMPG    C319145   7.018   4.164   7.168
  193PMPG    HX19146   6.985   4.131   7.265
  193PMPG    HY19147   6.924   4.130   7.116
  193PMPG   O3119148   7.019   4.302   7.171
  193PMPG   C3119149   7.034   4.330   7.048
  193PMPG   O3219150   7.008   4.256   6.953
  193PMPG   C3219151   7.065   4.474   7.056
  193PMPG   H2X19152   7.048   4.525   7.151
  193PMPG   H2Y19153   6.970   4.500   7.025
  193PMPG   C2319154   7.185   3.983   6.675
  193PMPG   H3R19155   7.110   3.941   6.731
  193PMPG   H3S19156   7.207   3.881   6.666
  193PMPG   C2419157   7.139   4.029   6.536
  193PMPG   H4R19158   7.228   4.044   6.474
  193PMPG   H4S19159   7.083   4.123   6.543
  193PMPG   C2519160   7.051   3.928   6.464
  193PMPG   H5R19161   6.989   3.894   6.541
  193PMPG   H5S19162   7.094   3.831   6.440
  193PMPG   C2619163   6.958   3.983   6.353
  193PMPG   H6R19164   6.894   4.064   6.389
  193PMPG   H6S19165   6.896   3.896   6.312
  193PMPG   C2719166   7.037   4.047   6.247
  193PMPG   H7R19167   7.081   3.949   6.250
  193PMPG   H7S19168   7.123   4.106   6.277
  193PMPG   C2819169   6.966   4.080   6.112
  193PMPG   H8R19170   6.892   4.160   6.124
  193PMPG   H8S19171   6.900   3.994   6.096
  193PMPG   C2919172   7.066   4.101   5.992
  193PMPG   H9R19173   7.172   4.120   6.018
  193PMPG  C21719174   7.060   4.019   5.858
  193PMPG  H17R19175   7.157   3.995   5.816
  193PMPG  H17S19176   6.977   3.953   5.847
  193PMPG  C21019177   7.015   4.160   5.866
  193PMPG  H10R19178   7.084   4.232   5.827
  193PMPG  C21119179   6.865   4.169   5.859
  193PMPG  H11R19180   6.818   4.071   5.881
  193PMPG  H11S19181   6.829   4.243   5.932
  193PMPG  C21219182   6.821   4.207   5.721
  193PMPG  H12R19183   6.875   4.298   5.685
  193PMPG  H12S19184   6.711   4.225   5.718
  193PMPG  C21319185   6.850   4.097   5.625
  193PMPG  H13R19186   6.954   4.065   5.609
  193PMPG  H13S19187   6.837   4.165   5.538
  193PMPG  C21419188   6.760   3.972   5.645
  193PMPG  H14R19189   6.650   3.991   5.638
  193PMPG  H14S19190   6.768   3.924   5.744
  193PMPG  C21519191   6.795   3.864   5.546
  193PMPG  H15R19192   6.898   3.833   5.543
  193PMPG  H15S19193   6.807   3.887   5.445
  193PMPG  C21619194   6.697   3.755   5.542
  193PMPG  H16R19195   6.592   3.757   5.569
  193PMPG  H16S19196   6.724   3.721   5.639
  193PMPG  H16T19197   6.713   3.683   5.460
  193PMPG   C3319198   7.173   4.523   6.964
  193PMPG   H3X19199   7.174   4.480   6.866
  193PMPG   H3Y19200   7.272   4.486   6.993
  193PMPG   C3419201   7.171   4.670   6.941
  193PMPG   H4X19202   7.183   4.710   7.043
  193PMPG   H4Y19203   7.081   4.723   6.900
  193PMPG   C3519204   7.292   4.696   6.853
  193PMPG   H5X19205   7.389   4.657   6.887
  193PMPG   H5Y19206   7.301   4.795   6.857
  193PMPG   C3619207   7.296   4.675   6.705
  193PMPG   H6X19208   7.278   4.571   6.730
  193PMPG   H6Y19209   7.391   4.650   6.662
  193PMPG   C3719210   7.222   4.746   6.580
  193PMPG   H7X19211   7.213   4.855   6.563
  193PMPG   H7Y19212   7.118   4.760   6.622
  193PMPG   C3819213   7.273   4.672   6.427
  193PMPG   H8X19214   7.376   4.649   6.427
  193PMPG   H8Y19215   7.273   4.773   6.386
  193PMPG   C3919216   7.193   4.536   6.327
  193PMPG   H9X19217   7.081   4.522   6.324
  193PMPG   H9Y19218   7.215   4.434   6.357
  193PMPG  C31019219   7.124   4.510   6.198
  193PMPG  H10X19220   7.047   4.572   6.152
  193PMPG  H10Y19221   7.064   4.411   6.189
  193PMPG  C31119222   7.252   4.523   6.141
  193PMPG  H11X19223   7.330   4.464   6.199
  193PMPG  H11Y19224   7.285   4.629   6.139
  193PMPG  C31219225   7.213   4.464   6.019
  193PMPG  H12X19226   7.133   4.528   5.975
  193PMPG  H12Y19227   7.168   4.363   6.039
  193PMPG  C31319228   7.345   4.452   5.955
  193PMPG  H13X19229   7.413   4.398   6.024
  193PMPG  H13Y19230   7.386   4.554   5.937
  193PMPG  C31419231   7.323   4.368   5.835
  193PMPG  H14X19232   7.304   4.263   5.859
  193PMPG  H14Y19233   7.415   4.374   5.773
  193PMPG  C31519234   7.201   4.417   5.760
  193PMPG  H15X19235   7.225   4.525   5.771
  193PMPG  H15Y19236   7.098   4.437   5.794
  193PMPG  C31619237   7.196   4.341   5.626
  193PMPG  H16X19238   7.131   4.403   5.562
  193PMPG  H16Y19239   7.151   4.243   5.610
  193PMPG  H16Z19240   7.299   4.334   5.585
  194PMPG   C1319241   0.633   5.356   7.349
  194PMPG  H13A19242   0.596   5.451   7.377
  194PMPG  H13B19243   0.741   5.368   7.371
  194PMPG   OC319244   0.608   5.331   7.210
  194PMPG   HO319245   0.562   5.247   7.211
  194PMPG   C1219246   0.561   5.255   7.439
  194PMPG  H12A19247   0.453   5.250   7.412
  194PMPG   OC219248   0.564   5.295   7.576
  194PMPG   HO219249   0.550   5.216   7.628
  194PMPG   C1119250   0.632   5.121   7.416
  194PMPG  H11A19251   0.607   5.092   7.311
  194PMPG  H11B19252   0.592   5.045   7.487
  194PMPG     P19253   0.864   5.010   7.393
  194PMPG   O1319254   0.798   4.890   7.448
  194PMPG   O1419255   1.003   5.041   7.432
  194PMPG   O1119256   0.845   5.010   7.238
  194PMPG   O1219257   0.774   5.136   7.431
  194PMPG    C119258   0.940   4.983   7.137
  194PMPG    HA19259   0.889   4.922   7.059
  194PMPG    HB19260   1.030   4.928   7.174
  194PMPG    C219261   0.982   5.112   7.065
  194PMPG    HS19262   1.050   5.170   7.132
  194PMPG   O2119263   0.858   5.179   7.028
  194PMPG   C2119264   0.876   5.305   6.999
  194PMPG   O2219265   0.963   5.376   7.045
  194PMPG   C2219266   0.768   5.362   6.910
  194PMPG   H2R19267   0.727   5.439   6.979
  194PMPG   H2S19268   0.689   5.288   6.892
  194PMPG    C319269   1.059   5.083   6.936
  194PMPG    HX19270   1.142   5.010   6.952
  194PMPG    HY19271   1.101   5.179   6.900
  194PMPG   O3119272   0.965   5.029   6.843
  194PMPG   C3119273   1.000   5.054   6.720
  194PMPG   O3219274   1.103   5.106   6.682
  194PMPG   C3219275   0.908   4.988   6.630
  194PMPG   H2X19276   0.802   5.018   6.638
  194PMPG   H2Y19277   0.906   4.889   6.685
  194PMPG   C2319278   0.820   5.431   6.779
  194PMPG   H3R19279   0.903   5.376   6.730
  194PMPG   H3S19280   0.862   5.531   6.806
  194PMPG   C2419281   0.710   5.445   6.673
  194PMPG   H4R19282   0.627   5.509   6.704
  194PMPG   H4S19283   0.661   5.346   6.665
  194PMPG   C2519284   0.759   5.501   6.539
  194PMPG   H5R19285   0.861   5.465   6.516
  194PMPG   H5S19286   0.763   5.612   6.544
  194PMPG   C2619287   0.669   5.462   6.422
  194PMPG   H6R19288   0.701   5.511   6.329
  194PMPG   H6S19289   0.568   5.495   6.445
  194PMPG   C2719290   0.642   5.313   6.405
  194PMPG   H7R19291   0.725   5.257   6.453
  194PMPG   H7S19292   0.641   5.296   6.295
  194PMPG   C2819293   0.502   5.278   6.462
  194PMPG   H8R19294   0.427   5.315   6.392
  194PMPG   H8S19295   0.484   5.323   6.561
  194PMPG   C2919296   0.470   5.134   6.476
  194PMPG   H9R19297   0.534   5.075   6.545
  194PMPG  C21719298   0.333   5.073   6.452
  194PMPG  H17R19299   0.322   4.975   6.497
  194PMPG  H17S19300   0.251   5.136   6.423
  194PMPG  C21019301   0.437   5.072   6.341
  194PMPG  H10R19302   0.533   5.030   6.341
  194PMPG  C21119303   0.427   5.144   6.208
  194PMPG  H11R19304   0.394   5.247   6.215
  194PMPG  H11S19305   0.532   5.140   6.163
  194PMPG  C21219306   0.332   5.080   6.107
  194PMPG  H12R19307   0.334   5.145   6.016
  194PMPG  H12S19308   0.231   5.056   6.142
  194PMPG  C21319309   0.386   4.953   6.058
  194PMPG  H13R19310   0.333   4.862   6.098
  194PMPG  H13S19311   0.479   4.951   6.114
  194PMPG  C21419312   0.401   4.963   5.908
  194PMPG  H14R19313   0.474   5.023   5.850
  194PMPG  H14S19314   0.310   4.965   5.849
  194PMPG  C21519315   0.435   4.833   5.874
  194PMPG  H15R19316   0.412   4.750   5.946
  194PMPG  H15S19317   0.535   4.847   5.877
  194PMPG  C21619318   0.438   4.808   5.739
  194PMPG  H16R19319   0.367   4.750   5.699
  194PMPG  H16S19320   0.474   4.707   5.762
  194PMPG  H16T19321   0.508   4.852   5.668
  194PMPG   C3319322   0.983   4.991   6.488
  194PMPG   H3X19323   1.074   4.927   6.488
  194PMPG   H3Y19324   0.985   5.094   6.450
  194PMPG   C3419325   0.915   4.937   6.365
  194PMPG   H4X19326   0.823   4.983   6.388
  194PMPG   H4Y19327   0.941   4.834   6.377
  194PMPG   C3519328   0.930   4.899   6.218
  194PMPG   H5X19329   0.870   4.820   6.168
  194PMPG   H5Y19330   1.027   4.849   6.204
  194PMPG   C3619331   0.882   5.023   6.159
  194PMPG   H6X19332   0.819   5.083   6.229
  194PMPG   H6Y19333   0.820   5.013   6.070
  194PMPG   C3719334   1.017   5.070   6.125
  194PMPG   H7X19335   1.027   5.039   6.019
  194PMPG   H7Y19336   1.098   5.017   6.181
  194PMPG   C3819337   1.039   5.211   6.169
  194PMPG   H8X19338   1.145   5.233   6.145
  194PMPG   H8Y19339   1.026   5.218   6.279
  194PMPG   C3919340   0.950   5.304   6.092
  194PMPG   H9X19341   0.947   5.402   6.144
  194PMPG   H9Y19342   0.845   5.265   6.089
  194PMPG  C31019343   1.012   5.317   5.953
  194PMPG  H10X19344   1.032   5.217   5.910
  194PMPG  H10Y19345   1.105   5.378   5.960
  194PMPG  C31119346   0.925   5.378   5.849
  194PMPG  H11X19347   0.979   5.385   5.752
  194PMPG  H11Y19348   0.915   5.481   5.885
  194PMPG  C31219349   0.799   5.292   5.834
  194PMPG  H12X19350   0.734   5.301   5.925
  194PMPG  H12Y19351   0.819   5.188   5.807
  194PMPG  C31319352   0.714   5.328   5.718
  194PMPG  H13X19353   0.732   5.433   5.724
  194PMPG  H13Y19354   0.608   5.306   5.744
  194PMPG  C31419355   0.755   5.313   5.573
  194PMPG  H14X19356   0.857   5.353   5.563
  194PMPG  H14Y19357   0.715   5.377   5.491
  194PMPG  C31519358   0.694   5.185   5.530
  194PMPG  H15X19359   0.730   5.120   5.612
  194PMPG  H15Y19360   0.739   5.182   5.428
  194PMPG  C31619361   0.542   5.162   5.526
  194PMPG  H16X19362   0.494   5.123   5.617
  194PMPG  H16Y19363   0.512   5.119   5.428
  194PMPG  H16Z19364   0.484   5.251   5.532
  195PMPG   C1319365   6.230   1.292   7.306
  195PMPG  H13A19366   6.280   1.362   7.373
  195PMPG  H13B19367   6.195   1.348   7.217
  195PMPG   OC319368   6.117   1.240   7.376
  195PMPG   HO319369   6.136   1.236   7.469
  195PMPG   C1219370   6.348   1.194   7.272
  195PMPG  H12A19371   6.418   1.250   7.207
  195PMPG   OC219372   6.312   1.084   7.194
  195PMPG   HO219373   6.368   1.009   7.217
  195PMPG   C1119374   6.425   1.143   7.395
  195PMPG  H11A19375   6.451   1.227   7.461
  195PMPG  H11B19376   6.521   1.103   7.354
  195PMPG     P19377   6.411   0.904   7.494
  195PMPG   O1319378   6.307   0.808   7.534
  195PMPG   O1419379   6.525   0.924   7.588
  195PMPG   O1119380   6.462   0.870   7.347
  195PMPG   O1219381   6.348   1.048   7.471
  195PMPG    C119382   6.529   0.748   7.315
  195PMPG    HA19383   6.500   0.662   7.381
  195PMPG    HB19384   6.639   0.762   7.330
  195PMPG    C219385   6.501   0.701   7.168
  195PMPG    HS19386   6.580   0.630   7.137
  195PMPG   O2119387   6.488   0.805   7.067
  195PMPG   C2119388   6.593   0.883   7.061
  195PMPG   O2219389   6.690   0.875   7.132
  195PMPG   C2219390   6.579   0.998   6.956
  195PMPG   H2R19391   6.674   1.057   6.969
  195PMPG   H2S19392   6.494   1.058   6.986
  195PMPG    C319393   6.372   0.615   7.159
  195PMPG    HX19394   6.386   0.531   7.231
  195PMPG    HY19395   6.361   0.572   7.059
  195PMPG   O3119396   6.252   0.684   7.193
  195PMPG   C3119397   6.185   0.740   7.095
  195PMPG   O3219398   6.215   0.743   6.977
  195PMPG   C3219399   6.053   0.788   7.151
  195PMPG   H2X19400   6.029   0.739   7.246
  195PMPG   H2Y19401   5.977   0.765   7.077
  195PMPG   C2319402   6.573   0.965   6.804
  195PMPG   H3R19403   6.642   0.884   6.808
  195PMPG   H3S19404   6.614   1.044   6.738
  195PMPG   C2419405   6.444   0.905   6.745
  195PMPG   H4R19406   6.371   0.985   6.734
  195PMPG   H4S19407   6.409   0.828   6.819
  195PMPG   C2519408   6.449   0.833   6.608
  195PMPG   H5R19409   6.357   0.776   6.591
  195PMPG   H5S19410   6.508   0.747   6.603
  195PMPG   C2619411   6.512   0.900   6.489
  195PMPG   H6R19412   6.617   0.934   6.508
  195PMPG   H6S19413   6.451   0.989   6.469
  195PMPG   C2719414   6.510   0.800   6.372
  195PMPG   H7R19415   6.407   0.764   6.352
  195PMPG   H7S19416   6.556   0.706   6.406
  195PMPG   C2819417   6.579   0.856   6.248
  195PMPG   H8R19418   6.561   0.788   6.161
  195PMPG   H8S19419   6.689   0.861   6.261
  195PMPG   C2919420   6.529   0.997   6.227
  195PMPG   H9R19421   6.563   1.074   6.298
  195PMPG  C21719422   6.522   1.041   6.082
  195PMPG  H17R19423   6.559   1.143   6.076
  195PMPG  H17S19424   6.544   0.962   6.013
  195PMPG  C21019425   6.395   1.018   6.165
  195PMPG  H10R19426   6.336   1.107   6.182
  195PMPG  C21119427   6.313   0.900   6.124
  195PMPG  H11R19428   6.375   0.812   6.096
  195PMPG  H11S19429   6.244   0.867   6.205
  195PMPG  C21219430   6.233   0.938   6.004
  195PMPG  H12R19431   6.290   0.997   5.928
  195PMPG  H12S19432   6.143   0.999   6.032
  195PMPG  C21319433   6.193   0.806   5.948
  195PMPG  H13R19434   6.122   0.752   6.016
  195PMPG  H13S19435   6.275   0.742   5.909
  195PMPG  C21419436   6.122   0.834   5.827
  195PMPG  H14R19437   6.153   0.920   5.765
  195PMPG  H14S19438   6.027   0.855   5.878
  195PMPG  C21519439   6.103   0.705   5.755
  195PMPG  H15R19440   6.005   0.671   5.790
  195PMPG  H15S19441   6.156   0.624   5.803
  195PMPG  C21619442   6.117   0.710   5.604
  195PMPG  H16R19443   6.081   0.618   5.555
  195PMPG  H16S19444   6.197   0.762   5.555
  195PMPG  H16T19445   6.055   0.767   5.548
  195PMPG   C3319446   6.048   0.939   7.171
  195PMPG   H3X19447   6.132   0.966   7.234
  195PMPG   H3Y19448   5.956   0.962   7.232
  195PMPG   C3419449   6.040   1.016   7.039
  195PMPG   H4X19450   5.931   1.019   7.049
  195PMPG   H4Y19451   6.077   0.955   6.954
  195PMPG   C3519452   6.091   1.161   7.023
  195PMPG   H5X19453   6.200   1.147   7.021
  195PMPG   H5Y19454   6.050   1.217   7.108
  195PMPG   C3619455   6.079   1.249   6.897
  195PMPG   H6X19456   6.118   1.351   6.920
  195PMPG   H6Y19457   5.973   1.269   6.873
  195PMPG   C3719458   6.165   1.201   6.779
  195PMPG   H7X19459   6.112   1.153   6.701
  195PMPG   H7Y19460   6.238   1.121   6.795
  195PMPG   C3819461   6.203   1.309   6.687
  195PMPG   H8X19462   6.285   1.363   6.739
  195PMPG   H8Y19463   6.117   1.378   6.667
  195PMPG   C3919464   6.242   1.242   6.556
  195PMPG   H9X19465   6.174   1.220   6.478
  195PMPG   H9Y19466   6.318   1.161   6.559
  195PMPG  C31019467   6.273   1.350   6.473
  195PMPG  H10X19468   6.362   1.344   6.537
  195PMPG  H10Y19469   6.216   1.447   6.485
  195PMPG  C31119470   6.302   1.320   6.330
  195PMPG  H11X19471   6.365   1.239   6.302
  195PMPG  H11Y19472   6.387   1.377   6.307
  195PMPG  C31219473   6.172   1.348   6.256
  195PMPG  H12X19474   6.104   1.423   6.304
  195PMPG  H12Y19475   6.144   1.250   6.285
  195PMPG  C31319476   6.174   1.369   6.106
  195PMPG  H13X19477   6.274   1.339   6.073
  195PMPG  H13Y19478   6.135   1.475   6.104
  195PMPG  C31419479   6.093   1.305   5.996
  195PMPG  H14X19480   6.004   1.359   6.025
  195PMPG  H14Y19481   6.099   1.196   6.011
  195PMPG  C31519482   6.072   1.334   5.851
  195PMPG  H15X19483   6.167   1.318   5.800
  195PMPG  H15Y19484   6.007   1.422   5.824
  195PMPG  C31619485   5.983   1.228   5.805
  195PMPG  H16X19486   6.016   1.126   5.841
  195PMPG  H16Y19487   5.966   1.233   5.697
  195PMPG  H16Z19488   5.885   1.252   5.850
  196PMPG   C1319489   1.202   6.349   7.257
  196PMPG  H13A19490   1.153   6.251   7.273
  196PMPG  H13B19491   1.272   6.348   7.170
  196PMPG   OC319492   1.277   6.387   7.373
  196PMPG   HO319493   1.238   6.471   7.400
  196PMPG   C1219494   1.081   6.434   7.220
  196PMPG  H12A19495   1.042   6.395   7.123
  196PMPG   OC219496   1.128   6.562   7.192
  196PMPG   HO219497   1.049   6.619   7.195
  196PMPG   C1119498   0.964   6.427   7.324
  196PMPG  H11A19499   0.947   6.317   7.339
  196PMPG  H11B19500   0.873   6.469   7.277
  196PMPG     P19501   0.897   6.594   7.520
  196PMPG   O1319502   0.980   6.679   7.608
  196PMPG   O1419503   0.779   6.526   7.583
  196PMPG   O1119504   0.846   6.677   7.396
  196PMPG   O1219505   0.991   6.485   7.451
  196PMPG    C119506   0.943   6.763   7.338
  196PMPG    HA19507   1.042   6.716   7.330
  196PMPG    HB19508   0.956   6.854   7.399
  196PMPG    C219509   0.903   6.801   7.196
  196PMPG    HS19510   0.820   6.876   7.212
  196PMPG   O2119511   0.866   6.680   7.129
  196PMPG   C2119512   0.807   6.720   7.021
  196PMPG   O2219513   0.794   6.838   6.998
  196PMPG   C2219514   0.761   6.595   6.943
  196PMPG   H2R19515   0.657   6.592   6.914
  196PMPG   H2S19516   0.750   6.517   7.019
  196PMPG    C319517   1.019   6.866   7.117
  196PMPG    HX19518   1.077   6.900   7.200
  196PMPG    HY19519   0.985   6.951   7.049
  196PMPG   O3119520   1.111   6.776   7.062
  196PMPG   C3119521   1.153   6.800   6.942
  196PMPG   O3219522   1.100   6.872   6.859
  196PMPG   C3219523   1.280   6.718   6.924
  196PMPG   H2X19524   1.266   6.621   6.975
  196PMPG   H2Y19525   1.364   6.771   6.974
  196PMPG   C2319526   0.867   6.538   6.846
  196PMPG   H3R19527   0.872   6.429   6.858
  196PMPG   H3S19528   0.967   6.579   6.874
  196PMPG   C2419529   0.850   6.565   6.698
  196PMPG   H4R19530   0.909   6.654   6.679
  196PMPG   H4S19531   0.746   6.558   6.656
  196PMPG   C2519532   0.941   6.488   6.614
  196PMPG   H5R19533   1.042   6.475   6.659
  196PMPG   H5S19534   0.951   6.526   6.509
  196PMPG   C2619535   0.878   6.361   6.606
  196PMPG   H6R19536   0.787   6.372   6.539
  196PMPG   H6S19537   0.839   6.314   6.700
  196PMPG   C2719538   0.998   6.290   6.548
  196PMPG   H7R19539   1.082   6.253   6.611
  196PMPG   H7S19540   1.021   6.335   6.449
  196PMPG   C2819541   0.943   6.165   6.524
  196PMPG   H8R19542   0.870   6.217   6.459
  196PMPG   H8S19543   0.887   6.152   6.617
  196PMPG   C2919544   1.015   6.042   6.455
  196PMPG   H9R19545   1.050   5.967   6.522
  196PMPG  C21719546   0.990   5.896   6.410
  196PMPG  H17R19547   1.039   5.803   6.379
  196PMPG  H17S19548   0.899   5.841   6.426
  196PMPG  C21019549   1.012   6.029   6.310
  196PMPG  H10R19550   1.102   5.981   6.291
  196PMPG  C21119551   0.957   6.162   6.202
  196PMPG  H11R19552   0.856   6.202   6.202
  196PMPG  H11S19553   1.002   6.255   6.239
  196PMPG  C21219554   0.961   6.175   6.036
  196PMPG  H12R19555   1.055   6.207   5.988
  196PMPG  H12S19556   0.911   6.267   6.000
  196PMPG  C21319557   0.908   6.054   5.957
  196PMPG  H13R19558   0.797   6.044   5.975
  196PMPG  H13S19559   0.962   5.961   5.978
  196PMPG  C21419560   0.942   6.021   5.820
  196PMPG  H14R19561   0.905   5.921   5.788
  196PMPG  H14S19562   1.049   6.019   5.796
  196PMPG  C21519563   0.878   6.135   5.768
  196PMPG  H15R19564   0.880   6.232   5.820
  196PMPG  H15S19565   0.767   6.116   5.766
  196PMPG  C21619566   0.965   6.155   5.651
  196PMPG  H16R19567   0.925   6.258   5.638
  196PMPG  H16S19568   0.938   6.069   5.583
  196PMPG  H16T19569   1.069   6.176   5.635
  196PMPG   C3319570   1.308   6.702   6.775
  196PMPG   H3X19571   1.348   6.800   6.739
  196PMPG   H3Y19572   1.214   6.679   6.720
  196PMPG   C3419573   1.410   6.592   6.748
  196PMPG   H4X19574   1.366   6.492   6.772
  196PMPG   H4Y19575   1.493   6.609   6.820
  196PMPG   C3519576   1.463   6.588   6.604
  196PMPG   H5X19577   1.550   6.517   6.610
  196PMPG   H5Y19578   1.506   6.685   6.569
  196PMPG   C3619579   1.368   6.530   6.497
  196PMPG   H6X19580   1.305   6.450   6.543
  196PMPG   H6Y19581   1.434   6.482   6.421
  196PMPG   C3719582   1.272   6.624   6.422
  196PMPG   H7X19583   1.323   6.715   6.384
  196PMPG   H7Y19584   1.195   6.659   6.495
  196PMPG   C3819585   1.202   6.553   6.304
  196PMPG   H8X19586   1.127   6.479   6.342
  196PMPG   H8Y19587   1.276   6.494   6.246
  196PMPG   C3919588   1.136   6.645   6.202
  196PMPG   H9X19589   1.210   6.721   6.168
  196PMPG   H9Y19590   1.054   6.701   6.252
  196PMPG  C31019591   1.082   6.561   6.085
  196PMPG  H10X19592   0.999   6.497   6.122
  196PMPG  H10Y19593   1.163   6.501   6.039
  196PMPG  C31119594   1.025   6.642   5.973
  196PMPG  H11X19595   1.096   6.700   5.910
  196PMPG  H11Y19596   0.974   6.709   6.036
  196PMPG  C31219597   0.912   6.583   5.896
  196PMPG  H12X19598   0.820   6.556   5.955
  196PMPG  H12Y19599   0.953   6.494   5.846
  196PMPG  C31319600   0.872   6.687   5.797
  196PMPG  H13X19601   0.957   6.717   5.733
  196PMPG  H13Y19602   0.827   6.773   5.847
  196PMPG  C31419603   0.756   6.636   5.726
  196PMPG  H14X19604   0.720   6.719   5.657
  196PMPG  H14Y19605   0.679   6.630   5.806
  196PMPG  C31519606   0.789   6.495   5.661
  196PMPG  H15X19607   0.822   6.420   5.731
  196PMPG  H15Y19608   0.858   6.477   5.579
  196PMPG  C31619609   0.690   6.455   5.566
  196PMPG  H16X19610   0.680   6.391   5.478
  196PMPG  H16Y19611   0.656   6.552   5.528
  196PMPG  H16Z19612   0.645   6.400   5.650
  197PMPG   C1319613   6.867   0.521   7.505
  197PMPG  H13A19614   6.963   0.540   7.559
  197PMPG  H13B19615   6.837   0.621   7.461
  197PMPG   OC319616   6.763   0.473   7.586
  197PMPG   HO319617   6.713   0.551   7.609
  197PMPG   C1219618   6.889   0.417   7.397
  197PMPG  H12A19619   6.984   0.457   7.362
  197PMPG   OC219620   6.777   0.403   7.309
  197PMPG   HO219621   6.818   0.386   7.224
  197PMPG   C1119622   6.973   0.294   7.390
  197PMPG  H11A19623   7.056   0.299   7.460
  197PMPG  H11B19624   7.022   0.278   7.288
  197PMPG     P19625   6.919   0.056   7.404
  197PMPG   O1319626   6.811  -0.020   7.468
  197PMPG   O1419627   7.052   0.066   7.470
  197PMPG   O1119628   6.914   0.060   7.241
  197PMPG   O1219629   6.878   0.200   7.425
  197PMPG    C119630   6.787   0.080   7.174
  197PMPG    HA19631   6.763   0.188   7.162
  197PMPG    HB19632   6.705   0.031   7.231
  197PMPG    C219633   6.780   0.013   7.033
  197PMPG    HS19634   6.809  -0.092   7.049
  197PMPG   O2119635   6.874   0.069   6.941
  197PMPG   C2119636   6.920  -0.017   6.847
  197PMPG   O2219637   6.867  -0.122   6.819
  197PMPG   C2219638   7.019   0.058   6.756
  197PMPG   H2R19639   7.125   0.049   6.758
  197PMPG   H2S19640   7.023   0.158   6.805
  197PMPG    C319641   6.636   0.025   6.973
  197PMPG    HX19642   6.568  -0.038   7.034
  197PMPG    HY19643   6.640  -0.020   6.872
  197PMPG   O3119644   6.591   0.161   6.961
  197PMPG   C3119645   6.465   0.190   6.988
  197PMPG   O3219646   6.381   0.112   7.029
  197PMPG   C3219647   6.442   0.337   6.962
  197PMPG   H2X19648   6.415   0.382   7.059
  197PMPG   H2Y19649   6.355   0.346   6.894
  197PMPG   C2319650   6.962   0.054   6.614
  197PMPG   H3R19651   6.937  -0.039   6.560
  197PMPG   H3S19652   7.028   0.120   6.544
  197PMPG   C2419653   6.828   0.113   6.653
  197PMPG   H4R19654   6.852   0.134   6.550
  197PMPG   H4S19655   6.851   0.175   6.743
  197PMPG   C2519656   6.666   0.102   6.656
  197PMPG   H5R19657   6.650   0.146   6.753
  197PMPG   H5S19658   6.699   0.002   6.665
  197PMPG   C2619659   6.526   0.160   6.576
  197PMPG   H6R19660   6.500   0.268   6.590
  197PMPG   H6S19661   6.440   0.120   6.628
  197PMPG   C2719662   6.492   0.174   6.420
  197PMPG   H7R19663   6.589   0.179   6.381
  197PMPG   H7S19664   6.435   0.255   6.370
  197PMPG   C2819665   6.470   0.064   6.329
  197PMPG   H8R19666   6.384   0.024   6.379
  197PMPG   H8S19667   6.534   0.012   6.391
  197PMPG   C2919668   6.540   0.041   6.184
  197PMPG   H9R19669   6.645   0.076   6.178
  197PMPG  C21719670   6.494  -0.082   6.085
  197PMPG  H17R19671   6.541  -0.135   6.004
  197PMPG  H17S19672   6.432  -0.147   6.134
  197PMPG  C21019673   6.495   0.057   6.052
  197PMPG  H10R19674   6.576   0.066   5.982
  197PMPG  C21119675   6.375   0.121   6.066
  197PMPG  H11R19676   6.334   0.063   6.146
  197PMPG  H11S19677   6.371   0.217   6.120
  197PMPG  C21219678   6.308   0.104   5.935
  197PMPG  H12R19679   6.216   0.157   5.945
  197PMPG  H12S19680   6.290  -0.000   5.904
  197PMPG  C21319681   6.380   0.146   5.814
  197PMPG  H13R19682   6.311   0.141   5.730
  197PMPG  H13S19683   6.468   0.078   5.805
  197PMPG  C21419684   6.425   0.284   5.826
  197PMPG  H14R19685   6.457   0.269   5.925
  197PMPG  H14S19686   6.364   0.362   5.877
  197PMPG  C21519687   6.547   0.308   5.729
  197PMPG  H15R19688   6.615   0.221   5.727
  197PMPG  H15S19689   6.602   0.397   5.754
  197PMPG  C21619690   6.540   0.339   5.591
  197PMPG  H16R19691   6.473   0.267   5.552
  197PMPG  H16S19692   6.573   0.431   5.543
  197PMPG  H16T19693   6.480   0.420   5.620
  197PMPG   C3319694   6.559   0.408   6.893
  197PMPG   H3X19695   6.582   0.354   6.800
  197PMPG   H3Y19696   6.653   0.405   6.951
  197PMPG   C3419697   6.514   0.546   6.853
  197PMPG   H4X19698   6.504   0.608   6.942
  197PMPG   H4Y19699   6.423   0.548   6.792
  197PMPG   C3519700   6.612   0.627   6.778
  197PMPG   H5X19701   6.667   0.678   6.852
  197PMPG   H5Y19702   6.575   0.722   6.767
  197PMPG   C3619703   6.646   0.587   6.634
  197PMPG   H6X19704   6.563   0.554   6.573
  197PMPG   H6Y19705   6.664   0.494   6.667
  197PMPG   C3719706   6.749   0.674   6.557
  197PMPG   H7X19707   6.818   0.672   6.636
  197PMPG   H7Y19708   6.704   0.769   6.535
  197PMPG   C3819709   6.854   0.654   6.444
  197PMPG   H8X19710   6.937   0.583   6.468
  197PMPG   H8Y19711   6.884   0.742   6.384
  197PMPG   C3919712   6.789   0.608   6.326
  197PMPG   H9X19713   6.713   0.669   6.289
  197PMPG   H9Y19714   6.696   0.569   6.379
  197PMPG  C31019715   6.889   0.519   6.235
  197PMPG  H10X19716   6.941   0.431   6.276
  197PMPG  H10Y19717   6.943   0.589   6.179
  197PMPG  C31119718   6.864   0.409   6.131
  197PMPG  H11X19719   6.806   0.477   6.082
  197PMPG  H11Y19720   6.807   0.318   6.143
  197PMPG  C31219721   6.919   0.366   6.011
  197PMPG  H12X19722   6.845   0.385   5.933
  197PMPG  H12Y19723   6.935   0.256   6.023
  197PMPG  C31319724   6.952   0.455   5.907
  197PMPG  H13X19725   7.034   0.417   5.942
  197PMPG  H13Y19726   6.960   0.562   5.930
  197PMPG  C31419727   6.951   0.396   5.766
  197PMPG  H14X19728   7.023   0.471   5.728
  197PMPG  H14Y19729   6.853   0.412   5.724
  197PMPG  C31519730   6.980   0.250   5.743
  197PMPG  H15X19731   6.893   0.187   5.767
  197PMPG  H15Y19732   7.060   0.225   5.809
  197PMPG  C31619733   7.020   0.224   5.599
  197PMPG  H16X19734   7.081   0.136   5.579
  197PMPG  H16Y19735   7.083   0.306   5.562
  197PMPG  H16Z19736   6.927   0.224   5.540
  198PMPG   C1319737   7.499   0.219   7.407
  198PMPG  H13A19738   7.505   0.207   7.297
  198PMPG  H13B19739   7.393   0.197   7.437
  198PMPG   OC319740   7.535   0.353   7.442
  198PMPG   HO319741   7.623   0.370   7.405
  198PMPG   C1219742   7.590   0.111   7.472
  198PMPG  H12A19743   7.568   0.111   7.580
  198PMPG   OC219744   7.728   0.144   7.454
  198PMPG   HO219745   7.781   0.066   7.473
  198PMPG   C1119746   7.563  -0.032   7.418
  198PMPG  H11A19747   7.641  -0.100   7.460
  198PMPG  H11B19748   7.582  -0.030   7.307
  198PMPG     P19749   7.334  -0.132   7.335
  198PMPG   O1319750   7.192  -0.126   7.369
  198PMPG   O1419751   7.385  -0.265   7.298
  198PMPG   O1119752   7.363  -0.024   7.222
  198PMPG   O1219753   7.430  -0.078   7.453
  198PMPG    C119754   7.250   0.054   7.177
  198PMPG    HA19755   7.219   0.131   7.252
  198PMPG    HB19756   7.158  -0.009   7.162
  198PMPG    C219757   7.278   0.117   7.039
  198PMPG    HS19758   7.181   0.137   6.988
  198PMPG   O2119759   7.364   0.034   6.957
  198PMPG   C2119760   7.330  -0.093   6.941
  198PMPG   O2219761   7.221  -0.141   6.964
  198PMPG   C2219762   7.441  -0.164   6.863
  198PMPG   H2R19763   7.472  -0.253   6.922
  198PMPG   H2S19764   7.530  -0.099   6.854
  198PMPG    C319765   7.342   0.257   7.054
  198PMPG    HX19766   7.442   0.246   7.104
  198PMPG    HY19767   7.284   0.318   7.124
  198PMPG   O3119768   7.341   0.322   6.924
  198PMPG   C3119769   7.456   0.292   6.866
  198PMPG   O3219770   7.552   0.251   6.924
  198PMPG   C3219771   7.441   0.288   6.721
  198PMPG   H2X19772   7.385   0.197   6.695
  198PMPG   H2Y19773   7.532   0.285   6.666
  198PMPG   C2319774   7.392  -0.200   6.722
  198PMPG   H3R19775   7.303  -0.139   6.693
  198PMPG   H3S19776   7.364  -0.306   6.725
  198PMPG   C2419777   7.494  -0.178   6.611
  198PMPG   H4R19778   7.453  -0.223   6.518
  198PMPG   H4S19779   7.589  -0.230   6.636
  198PMPG   C2519780   7.521  -0.030   6.588
  198PMPG   H5R19781   7.527   0.021   6.686
  198PMPG   H5S19782   7.443   0.024   6.530
  198PMPG   C2619783   7.656  -0.006   6.525
  198PMPG   H6R19784   7.737  -0.048   6.589
  198PMPG   H6S19785   7.658   0.105   6.526
  198PMPG   C2719786   7.678  -0.043   6.380
  198PMPG   H7R19787   7.776  -0.001   6.353
  198PMPG   H7S19788   7.606   0.007   6.314
  198PMPG   C2819789   7.693  -0.191   6.353
  198PMPG   H8R19790   7.598  -0.246   6.371
  198PMPG   H8S19791   7.765  -0.234   6.425
  198PMPG   C2919792   7.743  -0.203   6.210
  198PMPG   H9R19793   7.849  -0.193   6.187
  198PMPG  C21719794   7.667  -0.306   6.144
  198PMPG  H17R19795   7.725  -0.363   6.078
  198PMPG  H17S19796   7.580  -0.338   6.201
  198PMPG  C21019797   7.658  -0.170   6.088
  198PMPG  H10R19798   7.694  -0.187   5.983
  198PMPG  C21119799   7.513  -0.141   6.104
  198PMPG  H11R19800   7.482  -0.153   6.210
  198PMPG  H11S19801   7.499  -0.038   6.073
  198PMPG  C21219802   7.427  -0.231   6.017
  198PMPG  H12R19803   7.440  -0.339   6.044
  198PMPG  H12S19804   7.448  -0.220   5.909
  198PMPG  C21319805   7.281  -0.207   6.045
  198PMPG  H13R19806   7.262  -0.235   6.151
  198PMPG  H13S19807   7.244  -0.283   5.978
  198PMPG  C21419808   7.217  -0.070   6.015
  198PMPG  H14R19809   7.280   0.004   6.066
  198PMPG  H14S19810   7.118  -0.069   6.066
  198PMPG  C21519811   7.194  -0.020   5.868
  198PMPG  H15R19812   7.157   0.081   5.880
  198PMPG  H15S19813   7.105  -0.058   5.813
  198PMPG  C21619814   7.311  -0.024   5.770
  198PMPG  H16R19815   7.329  -0.124   5.729
  198PMPG  H16S19816   7.410  -0.018   5.813
  198PMPG  H16T19817   7.288   0.041   5.682
  198PMPG   C3319818   7.371   0.407   6.678
  198PMPG   H3X19819   7.420   0.507   6.700
  198PMPG   H3Y19820   7.268   0.401   6.707
  198PMPG   C3419821   7.353   0.393   6.533
  198PMPG   H4X19822   7.436   0.439   6.489
  198PMPG   H4Y19823   7.293   0.479   6.547
  198PMPG   C3519824   7.275   0.282   6.459
  198PMPG   H5X19825   7.166   0.306   6.476
  198PMPG   H5Y19826   7.313   0.187   6.495
  198PMPG   C3619827   7.286   0.247   6.307
  198PMPG   H6X19828   7.288   0.346   6.281
  198PMPG   H6Y19829   7.187   0.221   6.264
  198PMPG   C3719830   7.416   0.216   6.223
  198PMPG   H7X19831   7.445   0.113   6.236
  198PMPG   H7Y19832   7.486   0.282   6.272
  198PMPG   C3819833   7.434   0.242   6.069
  198PMPG   H8X19834   7.418   0.343   6.034
  198PMPG   H8Y19835   7.353   0.194   6.013
  198PMPG   C3919836   7.563   0.217   5.998
  198PMPG   H9X19837   7.567   0.111   5.992
  198PMPG   H9Y19838   7.654   0.256   6.050
  198PMPG  C31019839   7.562   0.273   5.857
  198PMPG  H10X19840   7.541   0.367   5.895
  198PMPG  H10Y19841   7.508   0.329   5.781
  198PMPG  C31119842   7.671   0.236   5.781
  198PMPG  H11X19843   7.756   0.243   5.851
  198PMPG  H11Y19844   7.677   0.307   5.695
  198PMPG  C31219845   7.624   0.103   5.735
  198PMPG  H12X19846   7.528   0.120   5.679
  198PMPG  H12Y19847   7.600   0.043   5.823
  198PMPG  C31319848   7.730   0.026   5.666
  198PMPG  H13X19849   7.812  -0.002   5.734
  198PMPG  H13Y19850   7.793   0.088   5.606
  198PMPG  C31419851   7.676  -0.077   5.571
  198PMPG  H14X19852   7.599  -0.042   5.499
  198PMPG  H14Y19853   7.625  -0.150   5.638
  198PMPG  C31519854   7.789  -0.130   5.482
  198PMPG  H15X19855   7.891  -0.106   5.520
  198PMPG  H15Y19856   7.783  -0.095   5.377
  198PMPG  C31619857   7.761  -0.273   5.488
  198PMPG  H16X19858   7.753  -0.281   5.595
  198PMPG  H16Y19859   7.842  -0.343   5.469
  198PMPG  H16Z19860   7.667  -0.306   5.438
  199PMPG   C1319861   5.872   4.860   3.625
  199PMPG  H13A19862   5.903   4.945   3.691
  199PMPG  H13B19863   5.874   4.769   3.690
  199PMPG   OC319864   5.963   4.851   3.516
  199PMPG   HO319865   5.935   4.919   3.455
  199PMPG   C1219866   5.731   4.884   3.569
  199PMPG  H12A19867   5.721   4.987   3.532
  199PMPG   OC219868   5.646   4.887   3.674
  199PMPG   HO219869   5.555   4.868   3.646
  199PMPG   C1119870   5.680   4.779   3.469
  199PMPG  H11A19871   5.722   4.807   3.371
  199PMPG  H11B19872   5.569   4.787   3.457
  199PMPG     P19873   5.644   4.556   3.604
  199PMPG   O1319874   5.718   4.544   3.732
  199PMPG   O1419875   5.586   4.435   3.541
  199PMPG   O1119876   5.521   4.647   3.632
  199PMPG   O1219877   5.722   4.647   3.502
  199PMPG    C119878   5.429   4.596   3.724
  199PMPG    HA19879   5.445   4.493   3.763
  199PMPG    HB19880   5.333   4.590   3.666
  199PMPG    C219881   5.424   4.696   3.843
  199PMPG    HS19882   5.398   4.779   3.780
  199PMPG   O2119883   5.530   4.757   3.911
  199PMPG   C2119884   5.552   4.890   3.914
  199PMPG   O2219885   5.507   4.986   3.856
  199PMPG   C2219886   5.676   4.908   3.979
  199PMPG   H2R19887   5.736   4.948   3.894
  199PMPG   H2S19888   5.712   4.809   4.012
  199PMPG    C319889   5.342   4.621   3.950
  199PMPG    HX19890   5.290   4.541   3.895
  199PMPG    HY19891   5.266   4.679   4.007
  199PMPG   O3119892   5.410   4.540   4.039
  199PMPG   C3119893   5.435   4.598   4.152
  199PMPG   O3219894   5.418   4.714   4.184
  199PMPG   C3219895   5.477   4.482   4.236
  199PMPG   H2X19896   5.400   4.403   4.220
  199PMPG   H2Y19897   5.477   4.511   4.341
  199PMPG   C2319898   5.652   5.009   4.089
  199PMPG   H3R19899   5.587   4.962   4.166
  199PMPG   H3S19900   5.600   5.103   4.057
  199PMPG   C2419901   5.792   5.033   4.137
  199PMPG   H4R19902   5.850   5.077   4.053
  199PMPG   H4S19903   5.834   4.931   4.156
  199PMPG   C2519904   5.801   5.111   4.267
  199PMPG   H5R19905   5.760   5.213   4.248
  199PMPG   H5S19906   5.907   5.123   4.296
  199PMPG   C2619907   5.728   5.036   4.381
  199PMPG   H6R19908   5.777   4.937   4.398
  199PMPG   H6S19909   5.621   5.022   4.359
  199PMPG   C2719910   5.728   5.107   4.514
  199PMPG   H7R19911   5.632   5.104   4.567
  199PMPG   H7S19912   5.731   5.215   4.487
  199PMPG   C2819913   5.835   5.055   4.613
  199PMPG   H8R19914   5.814   5.128   4.690
  199PMPG   H8S19915   5.940   5.055   4.582
  199PMPG   C2919916   5.847   4.923   4.679
  199PMPG   H9R19917   5.912   4.850   4.628
  199PMPG  C21719918   5.891   4.932   4.827
  199PMPG  H17R19919   5.960   4.853   4.852
  199PMPG  H17S19920   5.890   5.026   4.879
  199PMPG  C21019921   5.752   4.885   4.784
  199PMPG  H10R19922   5.733   4.778   4.776
  199PMPG  C21119923   5.633   4.980   4.800
  199PMPG  H11R19924   5.661   5.086   4.817
  199PMPG  H11S19925   5.570   4.975   4.708
  199PMPG  C21219926   5.552   4.929   4.919
  199PMPG  H12R19927   5.548   4.818   4.914
  199PMPG  H12S19928   5.449   4.968   4.916
  199PMPG  C21319929   5.612   4.968   5.053
  199PMPG  H13R19930   5.713   4.925   5.070
  199PMPG  H13S19931   5.544   4.925   5.130
  199PMPG  C21419932   5.620   5.117   5.080
  199PMPG  H14R19933   5.526   5.170   5.050
  199PMPG  H14S19934   5.703   5.163   5.022
  199PMPG  C21519935   5.641   5.129   5.230
  199PMPG  H15R19936   5.732   5.071   5.259
  199PMPG  H15S19937   5.549   5.100   5.284
  199PMPG  C21619938   5.666   5.266   5.271
  199PMPG  H16R19939   5.573   5.326   5.267
  199PMPG  H16S19940   5.737   5.302   5.194
  199PMPG  H16T19941   5.715   5.282   5.369
  199PMPG   C3319942   5.611   4.432   4.181
  199PMPG   H3X19943   5.592   4.385   4.081
  199PMPG   H3Y19944   5.645   4.352   4.249
  199PMPG   C3419945   5.725   4.536   4.167
  199PMPG   H4X19946   5.717   4.587   4.068
  199PMPG   H4Y19947   5.821   4.479   4.164
  199PMPG   C3519948   5.738   4.644   4.277
  199PMPG   H5X19949   5.640   4.686   4.306
  199PMPG   H5Y19950   5.795   4.728   4.232
  199PMPG   C3619951   5.814   4.602   4.405
  199PMPG   H6X19952   5.825   4.694   4.466
  199PMPG   H6Y19953   5.916   4.565   4.379
  199PMPG   C3719954   5.739   4.499   4.491
  199PMPG   H7X19955   5.748   4.400   4.442
  199PMPG   H7Y19956   5.633   4.530   4.496
  199PMPG   C3819957   5.788   4.487   4.636
  199PMPG   H8X19958   5.749   4.392   4.677
  199PMPG   H8Y19959   5.743   4.566   4.698
  199PMPG   C3919960   5.941   4.487   4.647
  199PMPG   H9X19961   5.976   4.589   4.618
  199PMPG   H9Y19962   5.981   4.414   4.573
  199PMPG  C31019963   6.000   4.453   4.784
  199PMPG  H10X19964   6.109   4.475   4.774
  199PMPG  H10Y19965   5.989   4.345   4.805
  199PMPG  C31119966   5.947   4.540   4.900
  199PMPG  H11X19967   5.918   4.639   4.860
  199PMPG  H11Y19968   6.029   4.559   4.973
  199PMPG  C31219969   5.824   4.482   4.972
  199PMPG  H12X19970   5.855   4.393   5.031
  199PMPG  H12Y19971   5.752   4.446   4.895
  199PMPG  C31319972   5.746   4.585   5.059
  199PMPG  H13X19973   5.682   4.530   5.132
  199PMPG  H13Y19974   5.683   4.651   4.996
  199PMPG  C31419975   5.835   4.676   5.139
  199PMPG  H14X19976   5.780   4.746   5.207
  199PMPG  H14Y19977   5.898   4.741   5.074
  199PMPG  C31519978   5.917   4.587   5.225
  199PMPG  H15X19979   5.957   4.491   5.185
  199PMPG  H15Y19980   5.881   4.577   5.326
  199PMPG  C31619981   6.025   4.664   5.259
  199PMPG  H16X19982   6.096   4.597   5.313
  199PMPG  H16Y19983   5.999   4.749   5.327
  199PMPG  H16Z19984   6.072   4.707   5.167
  200PMPG   C1319985   4.414   6.494   3.352
  200PMPG  H13A19986   4.413   6.539   3.252
  200PMPG  H13B19987   4.515   6.509   3.397
  200PMPG   OC319988   4.387   6.355   3.332
  200PMPG   HO319989   4.466   6.319   3.291
  200PMPG   C1219990   4.308   6.567   3.438
  200PMPG  H12A19991   4.207   6.535   3.404
  200PMPG   OC219992   4.317   6.707   3.417
  200PMPG   HO219993   4.263   6.748   3.485
  200PMPG   C1119994   4.323   6.533   3.589
  200PMPG  H11A19995   4.295   6.425   3.596
  200PMPG  H11B19996   4.250   6.592   3.648
  200PMPG     P19997   4.506   6.478   3.765
  200PMPG   O1319998   4.637   6.416   3.736
  200PMPG   O1419999   4.395   6.395   3.818
  200PMPG   O1120000   4.535   6.595   3.864
  200PMPG   O1220001   4.458   6.555   3.635
  200PMPG    C120002   4.588   6.718   3.816
  200PMPG    HA20003   4.553   6.746   3.713
  200PMPG    HB20004   4.697   6.722   3.826
  200PMPG    C220005   4.534   6.827   3.901
  200PMPG    HS20006   4.567   6.930   3.876
  200PMPG   O2120007   4.549   6.800   4.039
  200PMPG   C2120008   4.635   6.867   4.096
  200PMPG   O2220009   4.719   6.937   4.041
  200PMPG   C2220010   4.631   6.823   4.240
  200PMPG   H2R20011   4.673   6.726   4.213
  200PMPG   H2S20012   4.538   6.792   4.287
  200PMPG    C320013   4.388   6.832   3.868
  200PMPG    HX20014   4.363   6.882   3.774
  200PMPG    HY20015   4.379   6.898   3.954
  200PMPG   O3120016   4.304   6.719   3.873
  200PMPG   C3120017   4.297   6.682   3.994
  200PMPG   O3220018   4.343   6.725   4.095
  200PMPG   C3220019   4.200   6.597   4.016
  200PMPG   H2X20020   4.182   6.533   3.930
  200PMPG   H2Y20021   4.130   6.685   4.029
  200PMPG   C2320022   4.708   6.915   4.333
  200PMPG   H3R20023   4.653   7.010   4.348
  200PMPG   H3S20024   4.806   6.941   4.283
  200PMPG   C2420025   4.739   6.858   4.473
  200PMPG   H4R20026   4.809   6.778   4.494
  200PMPG   H4S20027   4.665   6.810   4.536
  200PMPG   C2520028   4.856   6.930   4.513
  200PMPG   H5R20029   4.818   7.026   4.481
  200PMPG   H5S20030   4.956   6.936   4.489
  200PMPG   C2620031   4.899   6.906   4.646
  200PMPG   H6R20032   4.795   6.893   4.677
  200PMPG   H6S20033   4.967   6.993   4.667
  200PMPG   C2720034   4.976   6.808   4.700
  200PMPG   H7R20035   5.058   6.839   4.637
  200PMPG   H7S20036   4.901   6.727   4.683
  200PMPG   C2820037   5.036   6.815   4.830
  200PMPG   H8R20038   4.965   6.739   4.867
  200PMPG   H8S20039   5.068   6.900   4.893
  200PMPG   C2920040   5.145   6.752   4.841
  200PMPG   H9R20041   5.241   6.808   4.832
  200PMPG  C21720042   5.184   6.704   4.960
  200PMPG  H17R20043   5.289   6.686   4.980
  200PMPG  H17S20044   5.123   6.716   5.044
  200PMPG  C21020045   5.101   6.606   4.844
  200PMPG  H10R20046   5.145   6.535   4.785
  200PMPG  C21120047   4.961   6.500   4.853
  200PMPG  H11R20048   4.880   6.543   4.910
  200PMPG  H11S20049   4.919   6.469   4.753
  200PMPG  C21220050   4.965   6.344   4.899
  200PMPG  H12R20051   5.043   6.289   4.959
  200PMPG  H12S20052   5.055   6.292   4.866
  200PMPG  C21320053   4.853   6.287   4.980
  200PMPG  H13R20054   4.913   6.232   5.056
  200PMPG  H13S20055   4.792   6.231   4.907
  200PMPG  C21420056   4.767   6.347   5.090
  200PMPG  H14R20057   4.689   6.271   5.108
  200PMPG  H14S20058   4.732   6.442   5.046
  200PMPG  C21520059   4.824   6.360   5.234
  200PMPG  H15R20060   4.761   6.418   5.301
  200PMPG  H15S20061   4.868   6.457   5.230
  200PMPG  C21620062   4.915   6.246   5.298
  200PMPG  H16R20063   4.986   6.267   5.380
  200PMPG  H16S20064   4.990   6.198   5.231
  200PMPG  H16T20065   4.850   6.175   5.348
  200PMPG   C3320066   4.222   6.528   4.154
  200PMPG   H3X20067   4.192   6.591   4.240
  200PMPG   H3Y20068   4.333   6.517   4.159
  200PMPG   C3420069   4.167   6.387   4.179
  200PMPG   H4X20070   4.202   6.322   4.097
  200PMPG   H4Y20071   4.061   6.363   4.175
  200PMPG   C3520072   4.190   6.343   4.324
  200PMPG   H5X20073   4.195   6.232   4.323
  200PMPG   H5Y20074   4.105   6.372   4.391
  200PMPG   C3620075   4.318   6.404   4.381
  200PMPG   H6X20076   4.310   6.515   4.392
  200PMPG   H6Y20077   4.397   6.383   4.306
  200PMPG   C3720078   4.350   6.347   4.518
  200PMPG   H7X20079   4.329   6.237   4.515
  200PMPG   H7Y20080   4.279   6.392   4.592
  200PMPG   C3820081   4.496   6.370   4.562
  200PMPG   H8X20082   4.561   6.310   4.495
  200PMPG   H8Y20083   4.506   6.327   4.664
  200PMPG   C3920084   4.549   6.514   4.560
  200PMPG   H9X20085   4.541   6.558   4.458
  200PMPG   H9Y20086   4.658   6.509   4.584
  200PMPG  C31020087   4.485   6.605   4.666
  200PMPG  H10X20088   4.375   6.591   4.664
  200PMPG  H10Y20089   4.507   6.712   4.646
  200PMPG  C31120090   4.539   6.567   4.804
  200PMPG  H11X20091   4.650   6.563   4.799
  200PMPG  H11Y20092   4.500   6.464   4.826
  200PMPG  C31220093   4.498   6.657   4.921
  200PMPG  H12X20094   4.537   6.759   4.901
  200PMPG  H12Y20095   4.549   6.618   5.012
  200PMPG  C31320096   4.346   6.662   4.944
  200PMPG  H13X20097   4.303   6.560   4.947
  200PMPG  H13Y20098   4.305   6.705   4.852
  200PMPG  C31420099   4.297   6.740   5.067
  200PMPG  H14X20100   4.340   6.701   5.162
  200PMPG  H14Y20101   4.187   6.747   5.076
  200PMPG  C31520102   4.351   6.877   5.080
  200PMPG  H15X20103   4.373   6.943   5.001
  200PMPG  H15Y20104   4.460   6.862   5.076
  200PMPG  C31620105   4.276   6.968   5.185
  200PMPG  H16X20106   4.310   6.950   5.287
  200PMPG  H16Y20107   4.166   6.972   5.186
  200PMPG  H16Z20108   4.307   7.074   5.159
  201PMPG   C1320109   2.511   1.140   3.573
  201PMPG  H13A20110   2.437   1.213   3.611
  201PMPG  H13B20111   2.473   1.101   3.476
  201PMPG   OC320112   2.522   1.032   3.664
  201PMPG   HO320113   2.445   0.976   3.648
  201PMPG   C1220114   2.647   1.208   3.548
  201PMPG  H12A20115   2.710   1.128   3.507
  201PMPG   OC220116   2.716   1.241   3.669
  201PMPG   HO220117   2.776   1.314   3.651
  201PMPG   C1120118   2.642   1.328   3.449
  201PMPG  H11A20119   2.614   1.287   3.349
  201PMPG  H11B20120   2.741   1.377   3.435
  201PMPG     P20121   2.574   1.526   3.601
  201PMPG   O1320122   2.499   1.651   3.578
  201PMPG   O1420123   2.719   1.540   3.625
  201PMPG   O1120124   2.516   1.442   3.718
  201PMPG   O1220125   2.546   1.426   3.482
  201PMPG    C120126   2.378   1.429   3.724
  201PMPG    HA20127   2.356   1.331   3.774
  201PMPG    HB20128   2.322   1.423   3.627
  201PMPG    C220129   2.329   1.543   3.808
  201PMPG    HS20130   2.291   1.629   3.745
  201PMPG   O2120131   2.419   1.587   3.909
  201PMPG   C2120132   2.387   1.691   3.978
  201PMPG   O2220133   2.284   1.756   3.973
  201PMPG   C2220134   2.502   1.712   4.077
  201PMPG   H2R20135   2.483   1.795   4.139
  201PMPG   H2S20136   2.593   1.732   4.021
  201PMPG    C320137   2.217   1.470   3.863
  201PMPG    HX20138   2.151   1.449   3.780
  201PMPG    HY20139   2.154   1.559   3.890
  201PMPG   O3120140   2.242   1.348   3.961
  201PMPG   C3120141   2.193   1.286   4.078
  201PMPG   O3220142   2.101   1.301   4.151
  201PMPG   C3220143   2.254   1.178   4.148
  201PMPG   H2X20144   2.350   1.167   4.100
  201PMPG   H2Y20145   2.169   1.106   4.127
  201PMPG   C2320146   2.511   1.619   4.198
  201PMPG   H3R20147   2.518   1.515   4.160
  201PMPG   H3S20148   2.417   1.646   4.253
  201PMPG   C2420149   2.600   1.647   4.318
  201PMPG   H4R20150   2.602   1.557   4.382
  201PMPG   H4S20151   2.554   1.729   4.379
  201PMPG   C2520152   2.736   1.691   4.273
  201PMPG   H5R20153   2.720   1.763   4.190
  201PMPG   H5S20154   2.791   1.603   4.233
  201PMPG   C2620155   2.813   1.768   4.380
  201PMPG   H6R20156   2.750   1.846   4.429
  201PMPG   H6S20157   2.892   1.822   4.322
  201PMPG   C2720158   2.888   1.681   4.479
  201PMPG   H7R20159   2.963   1.628   4.415
  201PMPG   H7S20160   2.825   1.604   4.528
  201PMPG   C2820161   2.963   1.760   4.588
  201PMPG   H8R20162   2.894   1.820   4.650
  201PMPG   H8S20163   3.031   1.832   4.537
  201PMPG   C2920164   3.039   1.664   4.677
  201PMPG   H9R20165   3.113   1.595   4.630
  201PMPG  C21720166   3.081   1.714   4.814
  201PMPG  H17R20167   3.180   1.686   4.832
  201PMPG  H17S20168   3.048   1.811   4.845
  201PMPG  C21020169   2.971   1.609   4.802
  201PMPG  H10R20170   2.990   1.505   4.820
  201PMPG  C21120171   2.839   1.658   4.857
  201PMPG  H11R20172   2.835   1.768   4.846
  201PMPG  H11S20173   2.759   1.611   4.797
  201PMPG  C21220174   2.816   1.621   5.006
  201PMPG  H12R20175   2.809   1.510   5.019
  201PMPG  H12S20176   2.716   1.664   5.032
  201PMPG  C21320177   2.921   1.673   5.107
  201PMPG  H13R20178   2.927   1.783   5.096
  201PMPG  H13S20179   3.020   1.630   5.079
  201PMPG  C21420180   2.897   1.638   5.255
  201PMPG  H14R20181   2.967   1.696   5.319
  201PMPG  H14S20182   2.924   1.531   5.274
  201PMPG  C21520183   2.753   1.672   5.296
  201PMPG  H15R20184   2.684   1.597   5.250
  201PMPG  H15S20185   2.728   1.773   5.257
  201PMPG  C21620186   2.727   1.680   5.444
  201PMPG  H16R20187   2.741   1.576   5.472
  201PMPG  H16S20188   2.624   1.713   5.470
  201PMPG  H16T20189   2.803   1.737   5.501
  201PMPG   C3320190   2.256   1.200   4.305
  201PMPG   H3X20191   2.169   1.248   4.360
  201PMPG   H3Y20192   2.342   1.265   4.331
  201PMPG   C3420193   2.293   1.070   4.362
  201PMPG   H4X20194   2.391   1.056   4.311
  201PMPG   H4Y20195   2.218   0.997   4.325
  201PMPG   C3520196   2.320   1.068   4.511
  201PMPG   H5X20197   2.346   0.962   4.533
  201PMPG   H5Y20198   2.230   1.092   4.572
  201PMPG   C3620199   2.441   1.153   4.554
  201PMPG   H6X20200   2.425   1.261   4.534
  201PMPG   H6Y20201   2.531   1.127   4.495
  201PMPG   C3720202   2.470   1.128   4.702
  201PMPG   H7X20203   2.579   1.133   4.721
  201PMPG   H7Y20204   2.438   1.024   4.727
  201PMPG   C3820205   2.396   1.225   4.794
  201PMPG   H8X20206   2.286   1.217   4.780
  201PMPG   H8Y20207   2.428   1.329   4.774
  201PMPG   C3920208   2.425   1.203   4.940
  201PMPG   H9X20209   2.535   1.188   4.950
  201PMPG   H9Y20210   2.375   1.113   4.981
  201PMPG  C31020211   2.381   1.323   5.020
  201PMPG  H10X20212   2.278   1.359   4.994
  201PMPG  H10Y20213   2.448   1.412   5.006
  201PMPG  C31120214   2.382   1.279   5.166
  201PMPG  H11X20215   2.292   1.220   5.191
  201PMPG  H11Y20216   2.365   1.385   5.202
  201PMPG  C31220217   2.516   1.199   5.207
  201PMPG  H12X20218   2.582   1.282   5.176
  201PMPG  H12Y20219   2.537   1.118   5.138
  201PMPG  C31320220   2.556   1.127   5.351
  201PMPG  H13X20221   2.509   1.037   5.381
  201PMPG  H13Y20222   2.464   1.167   5.397
  201PMPG  C31420223   2.704   1.148   5.436
  201PMPG  H14X20224   2.757   1.248   5.427
  201PMPG  H14Y20225   2.783   1.106   5.374
  201PMPG  C31520226   2.722   1.145   5.599
  201PMPG  H15X20227   2.663   1.067   5.650
  201PMPG  H15Y20228   2.662   1.182   5.689
  201PMPG  C31620229   2.862   1.199   5.628
  201PMPG  H16X20230   2.931   1.140   5.568
  201PMPG  H16Y20231   2.861   1.198   5.738
  201PMPG  H16Z20232   2.906   1.300   5.629
  202PMPG   C1320233   1.483   0.952   3.434
  202PMPG  H13A20234   1.511   0.924   3.332
  202PMPG  H13B20235   1.381   0.912   3.458
  202PMPG   OC320236   1.483   1.094   3.449
  202PMPG   HO320237   1.409   1.132   3.401
  202PMPG   C1220238   1.579   0.880   3.531
  202PMPG  H12A20239   1.562   0.771   3.527
  202PMPG   OC220240   1.536   0.906   3.662
  202PMPG   HO220241   1.620   0.918   3.711
  202PMPG   C1120242   1.731   0.898   3.504
  202PMPG  H11A20243   1.755   0.878   3.399
  202PMPG  H11B20244   1.790   0.825   3.565
  202PMPG     P20245   1.822   1.064   3.662
  202PMPG   O1320246   1.731   1.165   3.714
  202PMPG   O1420247   1.970   1.080   3.659
  202PMPG   O1120248   1.782   0.950   3.764
  202PMPG   O1220249   1.776   1.029   3.520
  202PMPG    C120250   1.692   0.992   3.873
  202PMPG    HA20251   1.597   1.045   3.840
  202PMPG    HB20252   1.737   1.067   3.943
  202PMPG    C220253   1.646   0.866   3.942
  202PMPG    HS20254   1.582   0.808   3.871
  202PMPG   O2120255   1.579   0.897   4.062
  202PMPG   C2120256   1.450   0.916   4.058
  202PMPG   O2220257   1.377   0.914   3.960
  202PMPG   C2220258   1.408   0.930   4.203
  202PMPG   H2R20259   1.315   0.983   4.211
  202PMPG   H2S20260   1.484   0.989   4.258
  202PMPG    C320261   1.768   0.775   3.974
  202PMPG    HX20262   1.824   0.754   3.880
  202PMPG    HY20263   1.722   0.680   4.009
  202PMPG   O3120264   1.856   0.839   4.070
  202PMPG   C3120265   1.851   0.796   4.195
  202PMPG   O3220266   1.800   0.692   4.233
  202PMPG   C3220267   1.922   0.897   4.283
  202PMPG   H2X20268   2.017   0.921   4.230
  202PMPG   H2Y20269   1.945   0.851   4.380
  202PMPG   C2320270   1.372   0.797   4.267
  202PMPG   H3R20271   1.320   0.729   4.195
  202PMPG   H3S20272   1.297   0.818   4.347
  202PMPG   C2420273   1.496   0.726   4.318
  202PMPG   H4R20274   1.553   0.789   4.390
  202PMPG   H4S20275   1.562   0.702   4.232
  202PMPG   C2520276   1.461   0.597   4.385
  202PMPG   H5R20277   1.551   0.545   4.424
  202PMPG   H5S20278   1.410   0.529   4.313
  202PMPG   C2620279   1.372   0.623   4.504
  202PMPG   H6R20280   1.360   0.518   4.532
  202PMPG   H6S20281   1.272   0.666   4.478
  202PMPG   C2720282   1.432   0.690   4.627
  202PMPG   H7R20283   1.350   0.710   4.700
  202PMPG   H7S20284   1.468   0.789   4.591
  202PMPG   C2820285   1.551   0.614   4.696
  202PMPG   H8R20286   1.577   0.671   4.787
  202PMPG   H8S20287   1.638   0.618   4.628
  202PMPG   C2920288   1.541   0.465   4.737
  202PMPG   H9R20289   1.532   0.391   4.655
  202PMPG  C21720290   1.621   0.428   4.863
  202PMPG  H17R20291   1.643   0.325   4.887
  202PMPG  H17S20292   1.642   0.511   4.930
  202PMPG  C21020293   1.473   0.422   4.865
  202PMPG  H10R20294   1.423   0.325   4.847
  202PMPG  C21120295   1.412   0.534   4.945
  202PMPG  H11R20296   1.452   0.635   4.946
  202PMPG  H11S20297   1.348   0.551   4.862
  202PMPG  C21220298   1.361   0.486   5.083
  202PMPG  H12R20299   1.434   0.470   5.162
  202PMPG  H12S20300   1.319   0.387   5.065
  202PMPG  C21320301   1.277   0.574   5.172
  202PMPG  H13R20302   1.252   0.539   5.271
  202PMPG  H13S20303   1.175   0.591   5.158
  202PMPG  C21420304   1.315   0.707   5.160
  202PMPG  H14R20305   1.326   0.749   5.056
  202PMPG  H14S20306   1.406   0.704   5.225
  202PMPG  C21520307   1.201   0.765   5.233
  202PMPG  H15R20308   1.274   0.841   5.205
  202PMPG  H15S20309   1.205   0.752   5.343
  202PMPG  C21620310   1.057   0.789   5.176
  202PMPG  H16R20311   0.953   0.758   5.175
  202PMPG  H16S20312   1.061   0.807   5.070
  202PMPG  H16T20313   1.019   0.855   5.259
  202PMPG   C3320314   1.846   1.032   4.299
  202PMPG   H3X20315   1.757   1.020   4.364
  202PMPG   H3Y20316   1.813   1.068   4.198
  202PMPG   C3420317   1.940   1.136   4.358
  202PMPG   H4X20318   2.013   1.151   4.279
  202PMPG   H4Y20319   1.994   1.097   4.447
  202PMPG   C3520320   1.885   1.274   4.391
  202PMPG   H5X20321   1.845   1.323   4.298
  202PMPG   H5Y20322   1.964   1.339   4.430
  202PMPG   C3620323   1.785   1.275   4.503
  202PMPG   H6X20324   1.709   1.205   4.466
  202PMPG   H6Y20325   1.754   1.382   4.513
  202PMPG   C3720326   1.829   1.235   4.643
  202PMPG   H7X20327   1.911   1.306   4.666
  202PMPG   H7Y20328   1.867   1.131   4.642
  202PMPG   C3820329   1.722   1.252   4.751
  202PMPG   H8X20330   1.688   1.357   4.742
  202PMPG   H8Y20331   1.767   1.251   4.852
  202PMPG   C3920332   1.605   1.151   4.744
  202PMPG   H9X20333   1.574   1.139   4.639
  202PMPG   H9Y20334   1.515   1.187   4.799
  202PMPG  C31020335   1.637   1.010   4.794
  202PMPG  H10X20336   1.734   0.977   4.750
  202PMPG  H10Y20337   1.557   0.943   4.753
  202PMPG  C31120338   1.643   0.996   4.947
  202PMPG  H11X20339   1.555   1.045   4.994
  202PMPG  H11Y20340   1.733   1.050   4.983
  202PMPG  C31220341   1.649   0.848   4.988
  202PMPG  H12X20342   1.735   0.798   4.936
  202PMPG  H12Y20343   1.555   0.800   4.955
  202PMPG  C31320344   1.659   0.815   5.136
  202PMPG  H13X20345   1.626   0.708   5.146
  202PMPG  H13Y20346   1.592   0.877   5.199
  202PMPG  C31420347   1.800   0.823   5.190
  202PMPG  H14X20348   1.842   0.924   5.204
  202PMPG  H14Y20349   1.859   0.775   5.110
  202PMPG  C31520350   1.795   0.755   5.327
  202PMPG  H15X20351   1.751   0.652   5.316
  202PMPG  H15Y20352   1.736   0.828   5.381
  202PMPG  C31620353   1.913   0.757   5.420
  202PMPG  H16X20354   1.975   0.698   5.487
  202PMPG  H16Y20355   1.984   0.838   5.404
  202PMPG  H16Z20356   1.929   0.648   5.388
  203PMPG   C1320357   1.363   7.248   3.400
  203PMPG  H13A20358   1.277   7.223   3.467
  203PMPG  H13B20359   1.321   7.281   3.307
  203PMPG   OC320360   1.441   7.135   3.365
  203PMPG   HO320361   1.451   7.142   3.269
  203PMPG   C1220362   1.446   7.368   3.450
  203PMPG  H12A20363   1.381   7.458   3.457
  203PMPG   OC220364   1.553   7.399   3.360
  203PMPG   HO220365   1.613   7.450   3.417
  203PMPG   C1120366   1.504   7.338   3.589
  203PMPG  H11A20367   1.550   7.237   3.588
  203PMPG  H11B20368   1.418   7.335   3.661
  203PMPG     P20369   1.616   7.503   3.761
  203PMPG   O1320370   1.547   7.633   3.754
  203PMPG   O1420371   1.758   7.498   3.801
  203PMPG   O1120372   1.532   7.403   3.852
  203PMPG   O1220373   1.603   7.434   3.620
  203PMPG    C120374   1.600   7.281   3.888
  203PMPG    HA20375   1.676   7.306   3.967
  203PMPG    HB20376   1.649   7.236   3.801
  203PMPG    C220377   1.506   7.176   3.947
  203PMPG    HS20378   1.437   7.135   3.869
  203PMPG   O2120379   1.444   7.255   4.045
  203PMPG   C2120380   1.346   7.196   4.086
  203PMPG   O2220381   1.297   7.092   4.040
  203PMPG   C2220382   1.303   7.290   4.196
  203PMPG   H2R20383   1.280   7.389   4.149
  203PMPG   H2S20384   1.356   7.306   4.289
  203PMPG    C320385   1.571   7.058   4.014
  203PMPG    HX20386   1.627   7.004   3.936
  203PMPG    HY20387   1.507   6.980   4.061
  203PMPG   O3120388   1.653   7.128   4.105
  203PMPG   C3120389   1.623   7.123   4.230
  203PMPG   O3220390   1.533   7.066   4.287
  203PMPG   C3220391   1.737   7.171   4.300
  203PMPG   H2X20392   1.788   7.260   4.254
  203PMPG   H2Y20393   1.795   7.078   4.293
  203PMPG   C2320394   1.193   7.215   4.252
  203PMPG   H3R20395   1.154   7.128   4.192
  203PMPG   H3S20396   1.122   7.304   4.266
  203PMPG   C2420397   1.171   7.176   4.383
  203PMPG   H4R20398   1.075   7.120   4.384
  203PMPG   H4S20399   1.163   7.272   4.437
  203PMPG   C2520400   1.233   7.053   4.419
  203PMPG   H5R20401   1.330   7.103   4.424
  203PMPG   H5S20402   1.217   6.985   4.331
  203PMPG   C2620403   1.172   6.997   4.548
  203PMPG   H6R20404   1.249   6.934   4.591
  203PMPG   H6S20405   1.079   6.937   4.526
  203PMPG   C2720406   1.124   7.104   4.648
  203PMPG   H7R20407   1.064   7.068   4.734
  203PMPG   H7S20408   1.057   7.145   4.577
  203PMPG   C2820409   1.204   7.230   4.680
  203PMPG   H8R20410   1.161   7.285   4.765
  203PMPG   H8S20411   1.200   7.308   4.603
  203PMPG   C2920412   1.345   7.183   4.690
  203PMPG   H9R20413   1.403   7.173   4.598
  203PMPG  C21720414   1.417   7.227   4.813
  203PMPG  H17R20415   1.521   7.246   4.792
  203PMPG  H17S20416   1.355   7.286   4.879
  203PMPG  C21020417   1.378   7.080   4.795
  203PMPG  H10R20418   1.460   7.012   4.768
  203PMPG  C21120419   1.272   7.022   4.889
  203PMPG  H11R20420   1.188   7.093   4.902
  203PMPG  H11S20421   1.232   6.927   4.846
  203PMPG  C21220422   1.332   6.988   5.025
  203PMPG  H12R20423   1.387   6.891   5.020
  203PMPG  H12S20424   1.248   6.975   5.097
  203PMPG  C21320425   1.430   7.094   5.079
  203PMPG  H13R20426   1.380   7.193   5.078
  203PMPG  H13S20427   1.519   7.101   5.013
  203PMPG  C21420428   1.479   7.057   5.219
  203PMPG  H14R20429   1.576   7.109   5.238
  203PMPG  H14S20430   1.498   6.948   5.220
  203PMPG  C21520431   1.376   7.097   5.325
  203PMPG  H15R20432   1.406   7.059   5.425
  203PMPG  H15S20433   1.280   7.046   5.299
  203PMPG  C21620434   1.355   7.248   5.329
  203PMPG  H16R20435   1.359   7.290   5.431
  203PMPG  H16S20436   1.259   7.277   5.281
  203PMPG  H16T20437   1.438   7.297   5.272
  203PMPG   C3320438   1.691   7.179   4.443
  203PMPG   H3X20439   1.673   7.078   4.490
  203PMPG   H3Y20440   1.627   7.265   4.469
  203PMPG   C3420441   1.800   7.222   4.517
  203PMPG   H4X20442   1.847   7.285   4.441
  203PMPG   H4Y20443   1.853   7.124   4.519
  203PMPG   C3520444   1.784   7.304   4.646
  203PMPG   H5X20445   1.873   7.281   4.706
  203PMPG   H5Y20446   1.708   7.270   4.715
  203PMPG   C3620447   1.775   7.456   4.625
  203PMPG   H6X20448   1.753   7.469   4.517
  203PMPG   H6Y20449   1.865   7.521   4.628
  203PMPG   C3720450   1.664   7.509   4.715
  203PMPG   H7X20451   1.578   7.444   4.708
  203PMPG   H7Y20452   1.633   7.593   4.655
  203PMPG   C3820453   1.690   7.529   4.869
  203PMPG   H8X20454   1.774   7.594   4.904
  203PMPG   H8Y20455   1.698   7.422   4.880
  203PMPG   C3920456   1.601   7.599   4.973
  203PMPG   H9X20457   1.498   7.586   4.945
  203PMPG   H9Y20458   1.630   7.705   4.993
  203PMPG  C31020459   1.634   7.581   5.115
  203PMPG  H10X20460   1.730   7.626   5.149
  203PMPG  H10Y20461   1.619   7.473   5.118
  203PMPG  C31120462   1.553   7.659   5.211
  203PMPG  H11X20463   1.454   7.669   5.163
  203PMPG  H11Y20464   1.598   7.760   5.223
  203PMPG  C31220465   1.559   7.586   5.343
  203PMPG  H12X20466   1.656   7.604   5.397
  203PMPG  H12Y20467   1.545   7.478   5.325
  203PMPG  C31320468   1.442   7.621   5.425
  203PMPG  H13X20469   1.446   7.572   5.525
  203PMPG  H13Y20470   1.353   7.587   5.368
  203PMPG  C31420471   1.439   7.767   5.436
  203PMPG  H14X20472   1.420   7.823   5.342
  203PMPG  H14Y20473   1.541   7.794   5.474
  203PMPG  C31520474   1.332   7.807   5.531
  203PMPG  H15X20475   1.311   7.917   5.532
  203PMPG  H15Y20476   1.379   7.778   5.629
  203PMPG  C31620477   1.203   7.735   5.503
  203PMPG  H16X20478   1.162   7.752   5.404
  203PMPG  H16Y20479   1.116   7.779   5.547
  203PMPG  H16Z20480   1.204   7.632   5.541
  204PMPG   C1320481   8.142   5.167   3.348
  204PMPG  H13A20482   8.121   5.069   3.313
  204PMPG  H13B20483   8.059   5.228   3.303
  204PMPG   OC320484   8.271   5.185   3.296
  204PMPG   HO320485   8.255   5.165   3.203
  204PMPG   C1220486   8.143   5.163   3.499
  204PMPG  H12A20487   8.161   5.267   3.535
  204PMPG   OC220488   8.249   5.079   3.546
  204PMPG   HO220489   8.237   5.078   3.641
  204PMPG   C1120490   8.006   5.110   3.543
  204PMPG  H11A20491   7.997   5.002   3.516
  204PMPG  H11B20492   7.927   5.165   3.487
  204PMPG     P20493   7.866   5.056   3.753
  204PMPG   O1320494   7.903   4.914   3.774
  204PMPG   O1420495   7.747   5.090   3.673
  204PMPG   O1120496   7.865   5.132   3.885
  204PMPG   O1220497   7.988   5.130   3.681
  204PMPG    C120498   7.966   5.213   3.942
  204PMPG    HA20499   7.913   5.290   4.001
  204PMPG    HB20500   8.024   5.269   3.866
  204PMPG    C220501   8.055   5.124   4.034
  204PMPG    HS20502   8.130   5.071   3.972
  204PMPG   O2120503   7.973   5.033   4.097
  204PMPG   C2120504   8.035   4.960   4.180
  204PMPG   O2220505   8.153   4.931   4.189
  204PMPG   C2220506   7.933   4.892   4.249
  204PMPG   H2R20507   7.981   4.821   4.313
  204PMPG   H2S20508   7.911   4.832   4.167
  204PMPG    C320509   8.124   5.200   4.145
  204PMPG    HX20510   8.188   5.249   4.072
  204PMPG    HY20511   8.197   5.158   4.216
  204PMPG   O3120512   8.013   5.256   4.217
  204PMPG   C3120513   8.028   5.361   4.285
  204PMPG   O3220514   8.076   5.466   4.268
  204PMPG   C3220515   7.970   5.371   4.404
  204PMPG   H2X20516   7.964   5.274   4.447
  204PMPG   H2Y20517   7.881   5.426   4.360
  204PMPG   C2320518   7.815   4.970   4.301
  204PMPG   H3R20519   7.711   4.940   4.316
  204PMPG   H3S20520   7.782   5.051   4.241
  204PMPG   C2420521   7.861   4.987   4.437
  204PMPG   H4R20522   7.763   5.008   4.484
  204PMPG   H4S20523   7.936   5.067   4.419
  204PMPG   C2520524   7.918   4.875   4.522
  204PMPG   H5R20525   7.998   4.810   4.492
  204PMPG   H5S20526   7.820   4.828   4.505
  204PMPG   C2620527   7.945   4.892   4.669
  204PMPG   H6R20528   7.927   4.816   4.746
  204PMPG   H6S20529   7.854   4.952   4.681
  204PMPG   C2720530   8.086   4.929   4.710
  204PMPG   H7R20531   8.147   4.840   4.734
  204PMPG   H7S20532   8.087   4.977   4.807
  204PMPG   C2820533   8.158   5.023   4.619
  204PMPG   H8R20534   8.120   5.125   4.610
  204PMPG   H8S20535   8.160   4.985   4.516
  204PMPG   C2920536   8.288   5.036   4.688
  204PMPG   H9R20537   8.356   4.953   4.675
  204PMPG  C21720538   8.341   5.162   4.634
  204PMPG  H17R20539   8.438   5.195   4.644
  204PMPG  H17S20540   8.271   5.226   4.584
  204PMPG  C21020541   8.319   5.148   4.780
  204PMPG  H10R20542   8.390   5.141   4.862
  204PMPG  C21120543   8.237   5.247   4.823
  204PMPG  H11R20544   8.160   5.264   4.748
  204PMPG  H11S20545   8.226   5.190   4.913
  204PMPG  C21220546   8.292   5.371   4.882
  204PMPG  H12R20547   8.308   5.436   4.796
  204PMPG  H12S20548   8.370   5.330   4.938
  204PMPG  C21320549   8.236   5.445   5.001
  204PMPG  H13R20550   8.148   5.450   4.946
  204PMPG  H13S20551   8.270   5.547   5.012
  204PMPG  C21420552   8.178   5.386   5.124
  204PMPG  H14R20553   8.134   5.314   5.075
  204PMPG  H14S20554   8.084   5.407   5.177
  204PMPG  C21520555   8.256   5.357   5.232
  204PMPG  H15R20556   8.314   5.274   5.187
  204PMPG  H15S20557   8.192   5.331   5.315
  204PMPG  C21620558   8.313   5.487   5.260
  204PMPG  H16R20559   8.370   5.466   5.346
  204PMPG  H16S20560   8.285   5.572   5.311
  204PMPG  H16T20561   8.352   5.546   5.175
  204PMPG   C3320562   8.035   5.467   4.493
  204PMPG   H3X20563   8.072   5.568   4.445
  204PMPG   H3Y20564   8.110   5.433   4.565
  204PMPG   C3420565   7.907   5.500   4.562
  204PMPG   H4X20566   7.840   5.544   4.492
  204PMPG   H4Y20567   7.981   5.573   4.593
  204PMPG   C3520568   7.803   5.438   4.671
  204PMPG   H5X20569   7.879   5.385   4.715
  204PMPG   H5Y20570   7.722   5.416   4.607
  204PMPG   C3620571   7.693   5.476   4.790
  204PMPG   H6X20572   7.608   5.529   4.745
  204PMPG   H6Y20573   7.716   5.547   4.872
  204PMPG   C3720574   7.641   5.378   4.894
  204PMPG   H7X20575   7.609   5.298   4.828
  204PMPG   H7Y20576   7.571   5.442   4.944
  204PMPG   C3820577   7.698   5.341   5.040
  204PMPG   H8X20578   7.733   5.418   5.107
  204PMPG   H8Y20579   7.763   5.353   4.975
  204PMPG   C3920580   7.707   5.194   5.097
  204PMPG   H9X20581   7.693   5.111   5.023
  204PMPG   H9Y20582   7.630   5.195   5.165
  204PMPG  C31020583   7.780   5.168   5.230
  204PMPG  H10X20584   7.793   5.253   5.295
  204PMPG  H10Y20585   7.883   5.167   5.222
  204PMPG  C31120586   7.761   5.029   5.280
  204PMPG  H11X20587   7.779   4.969   5.192
  204PMPG  H11Y20588   7.659   5.005   5.310
  204PMPG  C31220589   7.873   4.976   5.365
  204PMPG  H12X20590   7.976   4.979   5.319
  204PMPG  H12Y20591   7.849   4.875   5.400
  204PMPG  C31320592   7.933   5.057   5.463
  204PMPG  H13X20593   7.946   5.157   5.418
  204PMPG  H13Y20594   8.020   5.000   5.506
  204PMPG  C31420595   7.859   5.081   5.579
  204PMPG  H14X20596   7.852   4.973   5.601
  204PMPG  H14Y20597   7.769   5.141   5.549
  204PMPG  C31520598   7.905   5.113   5.712
  204PMPG  H15X20599   7.874   5.219   5.709
  204PMPG  H15Y20600   7.992   5.170   5.740
  204PMPG  C31620601   7.889   5.017   5.832
  204PMPG  H16X20602   7.790   5.010   5.880
  204PMPG  H16Y20603   7.875   5.116   5.866
  204PMPG  H16Z20604   7.825   4.933   5.873
  205PMPG   C1320605   0.544   7.034   3.496
  205PMPG  H13A20606   0.559   7.122   3.562
  205PMPG  H13B20607   0.469   7.063   3.420
  205PMPG   OC320608   0.491   6.926   3.574
  205PMPG   HO320609   0.560   6.911   3.640
  205PMPG   C1220610   0.681   7.002   3.425
  205PMPG  H12A20611   0.677   7.042   3.322
  205PMPG   OC220612   0.703   6.861   3.412
  205PMPG   HO220613   0.795   6.846   3.389
  205PMPG   C1120614   0.800   7.069   3.497
  205PMPG  H11A20615   0.787   7.180   3.493
  205PMPG  H11B20616   0.894   7.042   3.445
  205PMPG     P20617   0.928   7.074   3.719
  205PMPG   O1320618   1.052   7.030   3.650
  205PMPG   O1420619   0.905   7.031   3.859
  205PMPG   O1120620   0.916   7.233   3.707
  205PMPG   O1220621   0.804   7.027   3.633
  205PMPG    C120622   0.799   7.304   3.755
  205PMPG    HA20623   0.716   7.234   3.778
  205PMPG    HB20624   0.767   7.378   3.679
  205PMPG    C220625   0.824   7.394   3.877
  205PMPG    HS20626   0.868   7.491   3.846
  205PMPG   O2120627   0.924   7.332   3.936
  205PMPG   C2120628   0.968   7.386   4.030
  205PMPG   O2220629   0.977   7.501   4.072
  205PMPG   C2220630   1.016   7.267   4.078
  205PMPG   H2R20631   1.098   7.339   4.097
  205PMPG   H2S20632   1.090   7.215   4.011
  205PMPG    C320633   0.711   7.409   3.982
  205PMPG    HX20634   0.636   7.462   3.922
  205PMPG    HY20635   0.743   7.474   4.068
  205PMPG   O3120636   0.666   7.279   4.031
  205PMPG   C3120637   0.552   7.284   4.099
  205PMPG   O3220638   0.496   7.385   4.136
  205PMPG   C3220639   0.499   7.142   4.121
  205PMPG   H2X20640   0.583   7.076   4.153
  205PMPG   H2Y20641   0.462   7.105   4.023
  205PMPG   C2320642   0.929   7.186   4.195
  205PMPG   H3R20643   0.976   7.087   4.220
  205PMPG   H3S20644   0.847   7.139   4.141
  205PMPG   C2420645   0.895   7.245   4.344
  205PMPG   H4R20646   0.873   7.351   4.339
  205PMPG   H4S20647   0.970   7.271   4.420
  205PMPG   C2520648   0.845   7.143   4.454
  205PMPG   H5R20649   0.909   7.052   4.467
  205PMPG   H5S20650   0.751   7.108   4.412
  205PMPG   C2620651   0.837   7.197   4.600
  205PMPG   H6R20652   0.927   7.226   4.659
  205PMPG   H6S20653   0.796   7.118   4.667
  205PMPG   C2720654   0.783   7.334   4.611
  205PMPG   H7R20655   0.679   7.322   4.578
  205PMPG   H7S20656   0.840   7.408   4.548
  205PMPG   C2820657   0.797   7.374   4.755
  205PMPG   H8R20658   0.902   7.404   4.779
  205PMPG   H8S20659   0.771   7.285   4.818
  205PMPG   C2920660   0.699   7.484   4.775
  205PMPG   H9R20661   0.678   7.556   4.695
  205PMPG  C21720662   0.589   7.447   4.872
  205PMPG  H17R20663   0.498   7.503   4.853
  205PMPG  H17S20664   0.600   7.356   4.929
  205PMPG  C21020665   0.701   7.539   4.911
  205PMPG  H10R20666   0.662   7.643   4.913
  205PMPG  C21120667   0.822   7.480   4.991
  205PMPG  H11R20668   0.821   7.371   5.001
  205PMPG  H11S20669   0.921   7.525   4.958
  205PMPG  C21220670   0.806   7.479   5.138
  205PMPG  H12R20671   0.882   7.562   5.146
  205PMPG  H12S20672   0.887   7.472   5.213
  205PMPG  C21320673   0.647   7.485   5.183
  205PMPG  H13R20674   0.567   7.523   5.115
  205PMPG  H13S20675   0.608   7.549   5.268
  205PMPG  C21420676   0.612   7.369   5.259
  205PMPG  H14R20677   0.663   7.371   5.359
  205PMPG  H14S20678   0.649   7.295   5.187
  205PMPG  C21520679   0.466   7.373   5.276
  205PMPG  H15R20680   0.413   7.363   5.178
  205PMPG  H15S20681   0.422   7.462   5.331
  205PMPG  C21620682   0.442   7.255   5.357
  205PMPG  H16R20683   0.471   7.259   5.462
  205PMPG  H16S20684   0.453   7.155   5.312
  205PMPG  H16T20685   0.339   7.286   5.356
  205PMPG   C3320686   0.383   7.138   4.225
  205PMPG   H3X20687   0.334   7.039   4.216
  205PMPG   H3Y20688   0.305   7.214   4.199
  205PMPG   C3420689   0.433   7.161   4.369
  205PMPG   H4X20690   0.455   7.270   4.384
  205PMPG   H4Y20691   0.527   7.105   4.386
  205PMPG   C3520692   0.339   7.115   4.481
  205PMPG   H5X20693   0.338   7.005   4.487
  205PMPG   H5Y20694   0.235   7.147   4.457
  205PMPG   C3620695   0.390   7.165   4.618
  205PMPG   H6X20696   0.400   7.275   4.613
  205PMPG   H6Y20697   0.495   7.136   4.635
  205PMPG   C3720698   0.307   7.115   4.737
  205PMPG   H7X20699   0.262   7.016   4.716
  205PMPG   H7Y20700   0.223   7.181   4.751
  205PMPG   C3820701   0.371   7.118   4.875
  205PMPG   H8X20702   0.293   7.096   4.952
  205PMPG   H8Y20703   0.413   7.219   4.898
  205PMPG   C3920704   0.474   7.007   4.880
  205PMPG   H9X20705   0.548   7.019   4.798
  205PMPG   H9Y20706   0.418   6.913   4.861
  205PMPG  C31020707   0.544   6.998   5.013
  205PMPG  H10X20708   0.472   7.011   5.096
  205PMPG  H10Y20709   0.621   7.078   5.021
  205PMPG  C31120710   0.612   6.863   5.022
  205PMPG  H11X20711   0.679   6.849   4.934
  205PMPG  H11Y20712   0.533   6.783   5.012
  205PMPG  C31220713   0.695   6.852   5.149
  205PMPG  H12X20714   0.627   6.838   5.237
  205PMPG  H12Y20715   0.763   6.937   5.168
  205PMPG  C31320716   0.785   6.734   5.136
  205PMPG  H13X20717   0.846   6.723   5.044
  205PMPG  H13Y20718   0.699   6.670   5.137
  205PMPG  C31420719   0.871   6.697   5.251
  205PMPG  H14X20720   0.946   6.774   5.274
  205PMPG  H14Y20721   0.923   6.604   5.224
  205PMPG  C31520722   0.805   6.659   5.376
  205PMPG  H15X20723   0.782   6.550   5.372
  205PMPG  H15Y20724   0.709   6.711   5.396
  205PMPG  C31620725   0.920   6.681   5.470
  205PMPG  H16X20726   0.893   6.656   5.563
  205PMPG  H16Y20727   0.924   6.776   5.524
  205PMPG  H16Z20728   0.979   6.590   5.492
  206PMPG   C1320729   6.633   7.677   3.381
  206PMPG  H13A20730   6.743   7.680   3.371
  206PMPG  H13B20731   6.604   7.570   3.391
  206PMPG   OC320732   6.572   7.731   3.263
  206PMPG   HO320733   6.640   7.737   3.195
  206PMPG   C1220734   6.592   7.748   3.514
  206PMPG  H12A20735   6.483   7.734   3.530
  206PMPG   OC220736   6.623   7.888   3.514
  206PMPG   HO220737   6.604   7.914   3.605
  206PMPG   C1120738   6.669   7.680   3.631
  206PMPG  H11A20739   6.643   7.727   3.729
  206PMPG  H11B20740   6.777   7.698   3.612
  206PMPG     P20741   6.733   7.446   3.725
  206PMPG   O1320742   6.834   7.530   3.794
  206PMPG   O1420743   6.775   7.331   3.640
  206PMPG   O1120744   6.626   7.396   3.829
  206PMPG   O1220745   6.642   7.540   3.634
  206PMPG    C120746   6.528   7.301   3.787
  206PMPG    HA20747   6.577   7.205   3.758
  206PMPG    HB20748   6.473   7.340   3.698
  206PMPG    C220749   6.424   7.268   3.899
  206PMPG    HS20750   6.333   7.232   3.847
  206PMPG   O2120751   6.391   7.380   3.983
  206PMPG   C2120752   6.334   7.482   3.924
  206PMPG   O2220753   6.290   7.485   3.809
  206PMPG   C2220754   6.321   7.592   4.029
  206PMPG   H2R20755   6.311   7.543   4.129
  206PMPG   H2S20756   6.228   7.647   4.007
  206PMPG    C320757   6.468   7.153   3.994
  206PMPG    HX20758   6.504   7.068   3.932
  206PMPG    HY20759   6.376   7.118   4.045
  206PMPG   O3120760   6.570   7.191   4.090
  206PMPG   C3120761   6.535   7.215   4.215
  206PMPG   O3220762   6.427   7.189   4.266
  206PMPG   C3220763   6.655   7.276   4.287
  206PMPG   H2X20764   6.697   7.355   4.222
  206PMPG   H2Y20765   6.733   7.199   4.298
  206PMPG   C2320766   6.442   7.688   4.033
  206PMPG   H3R20767   6.428   7.760   4.117
  206PMPG   H3S20768   6.445   7.750   3.941
  206PMPG   C2420769   6.574   7.618   4.063
  206PMPG   H4R20770   6.629   7.595   3.969
  206PMPG   H4S20771   6.554   7.519   4.111
  206PMPG   C2520772   6.664   7.702   4.154
  206PMPG   H5R20773   6.610   7.729   4.247
  206PMPG   H5S20774   6.688   7.798   4.101
  206PMPG   C2620775   6.795   7.630   4.186
  206PMPG   H6R20776   6.841   7.592   4.092
  206PMPG   H6S20777   6.775   7.543   4.253
  206PMPG   C2720778   6.894   7.719   4.257
  206PMPG   H7R20779   6.897   7.823   4.216
  206PMPG   H7S20780   6.998   7.679   4.243
  206PMPG   C2820781   6.853   7.719   4.404
  206PMPG   H8R20782   6.837   7.618   4.446
  206PMPG   H8S20783   6.761   7.776   4.420
  206PMPG   C2920784   6.971   7.764   4.477
  206PMPG   H9R20785   7.044   7.813   4.405
  206PMPG  C21720786   6.957   7.885   4.543
  206PMPG  H17R20787   7.046   7.945   4.532
  206PMPG  H17S20788   6.865   7.910   4.580
  206PMPG  C21020789   6.955   7.780   4.628
  206PMPG  H10R20790   7.027   7.835   4.690
  206PMPG  C21120791   6.822   7.723   4.686
  206PMPG  H11R20792   6.736   7.768   4.632
  206PMPG  H11S20793   6.823   7.613   4.680
  206PMPG  C21220794   6.798   7.756   4.832
  206PMPG  H12R20795   6.695   7.783   4.857
  206PMPG  H12S20796   6.848   7.850   4.825
  206PMPG  C21320797   6.861   7.659   4.934
  206PMPG  H13R20798   6.959   7.683   4.974
  206PMPG  H13S20799   6.895   7.573   4.875
  206PMPG  C21420800   6.820   7.652   5.082
  206PMPG  H14R20801   6.713   7.638   5.095
  206PMPG  H14S20802   6.796   7.742   5.117
  206PMPG  C21520803   6.939   7.644   5.197
  206PMPG  H15R20804   7.036   7.676   5.191
  206PMPG  H15S20805   7.006   7.563   5.169
  206PMPG  C21620806   6.917   7.644   5.352
  206PMPG  H16R20807   6.960   7.739   5.376
  206PMPG  H16S20808   6.968   7.561   5.406
  206PMPG  H16T20809   6.810   7.633   5.380
  206PMPG   C3320810   6.617   7.333   4.425
  206PMPG   H3X20811   6.523   7.392   4.424
  206PMPG   H3Y20812   6.698   7.402   4.456
  206PMPG   C3420813   6.607   7.228   4.534
  206PMPG   H4X20814   6.684   7.149   4.525
  206PMPG   H4Y20815   6.513   7.168   4.529
  206PMPG   C3520816   6.614   7.304   4.668
  206PMPG   H5X20817   6.538   7.382   4.685
  206PMPG   H5Y20818   6.714   7.348   4.686
  206PMPG   C3620819   6.578   7.213   4.780
  206PMPG   H6X20820   6.633   7.131   4.733
  206PMPG   H6Y20821   6.480   7.165   4.780
  206PMPG   C3720822   6.620   7.278   4.913
  206PMPG   H7X20823   6.545   7.349   4.947
  206PMPG   H7Y20824   6.700   7.348   4.892
  206PMPG   C3820825   6.629   7.187   5.033
  206PMPG   H8X20826   6.685   7.099   5.051
  206PMPG   H8Y20827   6.541   7.132   5.037
  206PMPG   C3920828   6.680   7.212   5.162
  206PMPG   H9X20829   6.780   7.216   5.130
  206PMPG   H9Y20830   6.689   7.129   5.232
  206PMPG  C31020831   6.618   7.328   5.216
  206PMPG  H10X20832   6.605   7.401   5.134
  206PMPG  H10Y20833   6.673   7.371   5.302
  206PMPG  C31120834   6.557   7.323   5.339
  206PMPG  H11X20835   6.566   7.234   5.379
  206PMPG  H11Y20836   6.464   7.313   5.306
  206PMPG  C31220837   6.509   7.430   5.411
  206PMPG  H12X20838   6.595   7.451   5.476
  206PMPG  H12Y20839   6.419   7.381   5.461
  206PMPG  C31320840   6.465   7.537   5.327
  206PMPG  H13X20841   6.376   7.503   5.273
  206PMPG  H13Y20842   6.541   7.575   5.256
  206PMPG  C31420843   6.431   7.619   5.443
  206PMPG  H14X20844   6.508   7.621   5.523
  206PMPG  H14Y20845   6.344   7.570   5.485
  206PMPG  C31520846   6.398   7.752   5.397
  206PMPG  H15X20847   6.497   7.792   5.374
  206PMPG  H15Y20848   6.371   7.803   5.488
  206PMPG  C31620849   6.297   7.750   5.282
  206PMPG  H16X20850   6.348   7.749   5.186
  206PMPG  H16Y20851   6.225   7.833   5.287
  206PMPG  H16Z20852   6.242   7.656   5.274
  207PMPG   C1320853   1.053   0.747   3.440
  207PMPG  H13A20854   0.942   0.756   3.433
  207PMPG  H13B20855   1.096   0.844   3.473
  207PMPG   OC320856   1.101   0.714   3.309
  207PMPG   HO320857   1.039   0.646   3.280
  207PMPG   C1220858   1.089   0.641   3.548
  207PMPG  H12A20859   1.198   0.651   3.567
  207PMPG   OC220860   1.073   0.507   3.502
  207PMPG   HO220861   1.047   0.460   3.581
  207PMPG   C1120862   1.018   0.658   3.685
  207PMPG  H11A20863   1.072   0.733   3.746
  207PMPG  H11B20864   1.029   0.561   3.739
  207PMPG     P20865   0.764   0.593   3.698
  207PMPG   O1320866   0.792   0.529   3.828
  207PMPG   O1420867   0.760   0.503   3.581
  207PMPG   O1120868   0.631   0.674   3.701
  207PMPG   O1220869   0.881   0.700   3.672
  207PMPG    C120870   0.617   0.809   3.739
  207PMPG    HA20871   0.527   0.844   3.687
  207PMPG    HB20872   0.700   0.874   3.705
  207PMPG    C220873   0.593   0.821   3.891
  207PMPG    HS20874   0.559   0.925   3.912
  207PMPG   O2120875   0.713   0.783   3.965
  207PMPG   C2120876   0.790   0.882   4.005
  207PMPG   O2220877   0.774   0.999   3.981
  207PMPG   C2220878   0.906   0.838   4.096
  207PMPG   H2R20879   0.997   0.895   4.067
  207PMPG   H2S20880   0.924   0.731   4.080
  207PMPG    C320881   0.474   0.736   3.942
  207PMPG    HX20882   0.501   0.630   3.920
  207PMPG    HY20883   0.380   0.754   3.889
  207PMPG   O3120884   0.456   0.764   4.082
  207PMPG   C3120885   0.386   0.692   4.167
  207PMPG   O3220886   0.305   0.607   4.165
  207PMPG   C3220887   0.413   0.718   4.300
  207PMPG   H2X20888   0.310   0.763   4.321
  207PMPG   H2Y20889   0.514   0.763   4.290
  207PMPG   C2320890   0.876   0.864   4.247
  207PMPG   H3R20891   0.929   0.784   4.305
  207PMPG   H3S20892   0.767   0.851   4.261
  207PMPG   C2420893   0.922   1.000   4.303
  207PMPG   H4R20894   0.871   1.084   4.253
  207PMPG   H4S20895   1.030   1.012   4.281
  207PMPG   C2520896   0.910   1.018   4.456
  207PMPG   H5R20897   0.926   1.126   4.477
  207PMPG   H5S20898   0.994   0.961   4.501
  207PMPG   C2620899   0.779   0.976   4.525
  207PMPG   H6R20900   0.745   0.875   4.500
  207PMPG   H6S20901   0.704   1.053   4.499
  207PMPG   C2720902   0.773   0.995   4.675
  207PMPG   H7R20903   0.809   1.096   4.675
  207PMPG   H7S20904   0.839   0.923   4.726
  207PMPG   C2820905   0.629   1.001   4.729
  207PMPG   H8R20906   0.598   0.900   4.702
  207PMPG   H8S20907   0.570   1.077   4.672
  207PMPG   C2920908   0.599   1.020   4.877
  207PMPG   H9R20909   0.615   1.119   4.919
  207PMPG  C21720910   0.490   0.948   4.947
  207PMPG  H17R20911   0.449   0.990   5.037
  207PMPG  H17S20912   0.443   0.881   4.889
  207PMPG  C21020913   0.633   0.899   4.963
  207PMPG  H10R20914   0.664   0.909   5.067
  207PMPG  C21120915   0.693   0.778   4.886
  207PMPG  H11R20916   0.628   0.749   4.801
  207PMPG  H11S20917   0.798   0.777   4.859
  207PMPG  C21220918   0.714   0.667   4.982
  207PMPG  H12R20919   0.616   0.697   5.017
  207PMPG  H12S20920   0.764   0.693   5.076
  207PMPG  C21320921   0.733   0.518   4.933
  207PMPG  H13R20922   0.821   0.486   4.880
  207PMPG  H13S20923   0.655   0.472   4.880
  207PMPG  C21420924   0.713   0.416   5.035
  207PMPG  H14R20925   0.611   0.408   5.026
  207PMPG  H14S20926   0.731   0.432   5.139
  207PMPG  C21520927   0.717   0.281   5.019
  207PMPG  H15R20928   0.822   0.245   5.032
  207PMPG  H15S20929   0.713   0.248   4.917
  207PMPG  C21620930   0.602   0.274   5.145
  207PMPG  H16R20931   0.497   0.264   5.146
  207PMPG  H16S20932   0.595   0.215   5.235
  207PMPG  H16T20933   0.652   0.205   5.088
  207PMPG   C3320934   0.437   0.623   4.410
  207PMPG   H3X20935   0.393   0.528   4.379
  207PMPG   H3Y20936   0.337   0.627   4.456
  207PMPG   C3420937   0.573   0.665   4.494
  207PMPG   H4X20938   0.587   0.604   4.579
  207PMPG   H4Y20939   0.569   0.758   4.551
  207PMPG   C3520940   0.724   0.645   4.456
  207PMPG   H5X20941   0.763   0.704   4.378
  207PMPG   H5Y20942   0.686   0.581   4.385
  207PMPG   C3620943   0.830   0.567   4.547
  207PMPG   H6X20944   0.799   0.497   4.627
  207PMPG   H6Y20945   0.889   0.642   4.598
  207PMPG   C3720946   0.925   0.467   4.479
  207PMPG   H7X20947   0.972   0.498   4.385
  207PMPG   H7Y20948   0.865   0.379   4.467
  207PMPG   C3820949   1.019   0.401   4.574
  207PMPG   H8X20950   1.071   0.314   4.528
  207PMPG   H8Y20951   0.972   0.373   4.670
  207PMPG   C3920952   1.137   0.477   4.592
  207PMPG   H9X20953   1.106   0.578   4.623
  207PMPG   H9Y20954   1.177   0.481   4.489
  207PMPG  C31020955   1.220   0.392   4.684
  207PMPG  H10X20956   1.314   0.445   4.693
  207PMPG  H10Y20957   1.243   0.289   4.653
  207PMPG  C31120958   1.159   0.392   4.818
  207PMPG  H11X20959   1.233   0.347   4.888
  207PMPG  H11Y20960   1.071   0.330   4.840
  207PMPG  C31220961   1.116   0.533   4.847
  207PMPG  H12X20962   1.028   0.589   4.815
  207PMPG  H12Y20963   1.192   0.614   4.821
  207PMPG  C31320964   1.093   0.515   4.985
  207PMPG  H13X20965   1.123   0.621   4.995
  207PMPG  H13Y20966   1.147   0.434   5.039
  207PMPG  C31420967   0.982   0.480   5.074
  207PMPG  H14X20968   0.968   0.372   5.043
  207PMPG  H14Y20969   0.910   0.551   5.048
  207PMPG  C31520970   0.994   0.493   5.232
  207PMPG  H15X20971   1.085   0.443   5.263
  207PMPG  H15Y20972   0.899   0.450   5.247
  207PMPG  C31620973   0.968   0.597   5.339
  207PMPG  H16X20974   1.066   0.635   5.346
  207PMPG  H16Y20975   0.959   0.598   5.448
  207PMPG  H16Z20976   0.884   0.655   5.297
  208PMPG   C1320977   7.978   6.396   3.409
  208PMPG  H13A20978   8.021   6.307   3.461
  208PMPG  H13B20979   7.866   6.373   3.398
  208PMPG   OC320980   8.056   6.444   3.303
  208PMPG   HO320981   8.101   6.513   3.355
  208PMPG   C1220982   7.973   6.525   3.481
  208PMPG  H12A20983   7.933   6.450   3.548
  208PMPG   OC220984   7.875   6.614   3.419
  208PMPG   HO220985   7.819   6.656   3.489
  208PMPG   C1120986   8.093   6.588   3.574
  208PMPG  H11A20987   8.153   6.635   3.497
  208PMPG  H11B20988   8.140   6.496   3.620
  208PMPG     P20989   8.058   6.847   3.693
  208PMPG   O1320990   7.930   6.895   3.633
  208PMPG   O1420991   8.177   6.909   3.636
  208PMPG   O1120992   8.032   6.873   3.848
  208PMPG   O1220993   8.076   6.684   3.682
  208PMPG    C120994   7.987   6.783   3.953
  208PMPG    HA20995   8.071   6.727   3.993
  208PMPG    HB20996   7.930   6.694   3.928
  208PMPG    C220997   7.906   6.851   4.065
  208PMPG    HS20998   7.811   6.900   4.032
  208PMPG   O2120999   8.005   6.948   4.111
  208PMPG   C2121000   7.956   7.019   4.209
  208PMPG   O2221001   7.861   6.984   4.274
  208PMPG   C2221002   8.032   7.148   4.238
  208PMPG   H2R21003   8.045   7.210   4.146
  208PMPG   H2S21004   8.131   7.113   4.273
  208PMPG    C321005   7.858   6.738   4.167
  208PMPG    HX21006   7.772   6.682   4.126
  208PMPG    HY21007   7.818   6.777   4.260
  208PMPG   O3121008   7.954   6.641   4.196
  208PMPG   C3121009   8.016   6.666   4.309
  208PMPG   O3221010   8.003   6.762   4.382
  208PMPG   C3221011   8.110   6.553   4.329
  208PMPG   H2X21012   8.152   6.539   4.227
  208PMPG   H2Y21013   8.053   6.460   4.353
  208PMPG   C2321014   7.970   7.235   4.352
  208PMPG   H3R21015   7.920   7.330   4.326
  208PMPG   H3S21016   8.050   7.282   4.403
  208PMPG   C2421017   7.918   7.175   4.482
  208PMPG   H4R21018   7.818   7.134   4.471
  208PMPG   H4S21019   7.907   7.266   4.545
  208PMPG   C2521020   8.017   7.072   4.540
  208PMPG   H5R21021   8.107   7.127   4.572
  208PMPG   H5S21022   8.056   7.004   4.462
  208PMPG   C2621023   7.958   6.968   4.640
  208PMPG   H6R21024   8.047   6.912   4.680
  208PMPG   H6S21025   7.895   6.901   4.586
  208PMPG   C2721026   7.856   7.016   4.747
  208PMPG   H7R21027   7.793   7.105   4.729
  208PMPG   H7S21028   7.953   7.044   4.773
  208PMPG   C2821029   7.815   6.944   4.878
  208PMPG   H8R21030   7.873   6.852   4.883
  208PMPG   H8S21031   7.705   6.942   4.853
  208PMPG   C2921032   7.827   7.006   5.019
  208PMPG   H9R21033   7.734   7.067   5.032
  208PMPG  C21721034   7.844   6.905   5.131
  208PMPG  H17R21035   7.790   6.932   5.223
  208PMPG  H17S21036   7.904   6.822   5.107
  208PMPG  C21021037   7.954   7.006   5.122
  208PMPG  H10R21038   7.949   7.056   5.216
  208PMPG  C21121039   8.113   7.000   5.094
  208PMPG  H11R21040   8.142   6.950   5.000
  208PMPG  H11S21041   8.167   7.099   5.081
  208PMPG  C21221042   8.179   6.943   5.210
  208PMPG  H12R21043   8.283   6.924   5.177
  208PMPG  H12S21044   8.111   6.855   5.214
  208PMPG  C21321045   8.173   7.024   5.337
  208PMPG  H13R21046   8.191   6.951   5.417
  208PMPG  H13S21047   8.078   7.065   5.355
  208PMPG  C21421048   8.251   7.152   5.352
  208PMPG  H14R21049   8.221   7.242   5.292
  208PMPG  H14S21050   8.343   7.115   5.304
  208PMPG  C21521051   8.277   7.190   5.500
  208PMPG  H15R21052   8.357   7.262   5.520
  208PMPG  H15S21053   8.298   7.096   5.553
  208PMPG  C21621054   8.182   7.273   5.576
  208PMPG  H16R21055   8.158   7.365   5.521
  208PMPG  H16S21056   8.211   7.308   5.677
  208PMPG  H16T21057   8.104   7.198   5.583
  208PMPG   C3321058   8.214   6.591   4.438
  208PMPG   H3X21059   8.274   6.680   4.412
  208PMPG   H3Y21060   8.297   6.519   4.442
  208PMPG   C3421061   8.145   6.596   4.575
  208PMPG   H4X21062   8.082   6.504   4.582
  208PMPG   H4Y21063   8.080   6.685   4.578
  208PMPG   C3521064   8.233   6.599   4.701
  208PMPG   H5X21065   8.311   6.677   4.696
  208PMPG   H5Y21066   8.280   6.502   4.700
  208PMPG   C3621067   8.150   6.602   4.830
  208PMPG   H6X21068   8.070   6.525   4.820
  208PMPG   H6Y21069   8.103   6.702   4.840
  208PMPG   C3721070   8.228   6.570   4.958
  208PMPG   H7X21071   8.312   6.641   4.974
  208PMPG   H7Y21072   8.266   6.465   4.961
  208PMPG   C3821073   8.139   6.583   5.078
  208PMPG   H8X21074   8.065   6.663   5.069
  208PMPG   H8Y21075   8.209   6.620   5.154
  208PMPG   C3921076   8.066   6.453   5.106
  208PMPG   H9X21077   8.125   6.362   5.102
  208PMPG   H9Y21078   7.994   6.420   5.032
  208PMPG  C31021079   7.990   6.460   5.232
  208PMPG  H10X21080   8.052   6.450   5.321
  208PMPG  H10Y21081   7.944   6.361   5.247
  208PMPG  C31121082   7.904   6.588   5.252
  208PMPG  H11X21083   7.944   6.680   5.214
  208PMPG  H11Y21084   7.901   6.629   5.355
  208PMPG  C31221085   7.758   6.561   5.235
  208PMPG  H12X21086   7.732   6.456   5.261
  208PMPG  H12Y21087   7.737   6.573   5.129
  208PMPG  C31321088   7.668   6.660   5.309
  208PMPG  H13X21089   7.565   6.640   5.290
  208PMPG  H13Y21090   7.671   6.757   5.257
  208PMPG  C31421091   7.646   6.641   5.459
  208PMPG  H14X21092   7.741   6.670   5.509
  208PMPG  H14Y21093   7.621   6.539   5.488
  208PMPG  C31521094   7.518   6.710   5.512
  208PMPG  H15X21095   7.487   6.687   5.618
  208PMPG  H15Y21096   7.431   6.739   5.457
  208PMPG  C31621097   7.557   6.829   5.515
  208PMPG  H16X21098   7.619   6.851   5.429
  208PMPG  H16Y21099   7.623   6.794   5.602
  208PMPG  H16Z21100   7.492   6.914   5.545
  209QMPE     N21101   4.309   1.755   7.716
  209QMPE   HN121102   4.344   1.702   7.799
  209QMPE   HN221103   4.382   1.821   7.681
  209QMPE   HN321104   4.226   1.810   7.745
  209QMPE   C1221105   4.272   1.658   7.606
  209QMPE  H12A21106   4.187   1.598   7.642
  209QMPE  H12B21107   4.361   1.594   7.587
  209QMPE   C1121108   4.232   1.726   7.473
  209QMPE  H11A21109   4.135   1.779   7.489
  209QMPE  H11B21110   4.212   1.643   7.400
  209QMPE     P21111   4.328   1.858   7.270
  209QMPE   O1321112   4.331   2.006   7.268
  209QMPE   O1421113   4.220   1.781   7.206
  209QMPE   O1121114   4.461   1.810   7.211
  209QMPE   O1221115   4.334   1.814   7.425
  209QMPE    C121116   4.582   1.855   7.270
  209QMPE    HA21117   4.579   1.841   7.381
  209QMPE    HB21118   4.598   1.963   7.249
  209QMPE    C221119   4.699   1.767   7.220
  209QMPE    HS21120   4.791   1.790   7.278
  209QMPE   O2121121   4.725   1.784   7.079
  209QMPE   C2121122   4.749   1.903   7.028
  209QMPE   O2221123   4.758   2.010   7.085
  209QMPE   C2221124   4.776   1.891   6.879
  209QMPE   H2R21125   4.712   1.811   6.837
  209QMPE   H2S21126   4.882   1.863   6.863
  209QMPE    C321127   4.666   1.617   7.256
  209QMPE    HX21128   4.640   1.618   7.364
  209QMPE    HY21129   4.755   1.552   7.247
  209QMPE   O3121130   4.552   1.561   7.189
  209QMPE   C3121131   4.576   1.523   7.065
  209QMPE   O3221132   4.684   1.519   7.010
  209QMPE   C3221133   4.443   1.502   6.993
  209QMPE   H2X21134   4.426   1.396   6.965
  209QMPE   H2Y21135   4.360   1.534   7.060
  209QMPE   C2321136   4.737   2.030   6.822
  209QMPE   H3R21137   4.790   2.112   6.877
  209QMPE   H3S21138   4.628   2.042   6.838
  209QMPE   C2421139   4.761   2.048   6.674
  209QMPE   H4R21140   4.717   1.959   6.623
  209QMPE   H4S21141   4.871   2.054   6.658
  209QMPE   C2521142   4.694   2.171   6.614
  209QMPE   H5R21143   4.737   2.264   6.659
  209QMPE   H5S21144   4.585   2.169   6.634
  209QMPE   C2621145   4.708   2.176   6.464
  209QMPE   H6R21146   4.672   2.088   6.407
  209QMPE   H6S21147   4.811   2.181   6.440
  209QMPE   C2721148   4.674   2.307   6.403
  209QMPE   H7R21149   4.733   2.392   6.443
  209QMPE   H7S21150   4.565   2.329   6.416
  209QMPE   C2821151   4.709   2.290   6.259
  209QMPE   H8R21152   4.662   2.204   6.208
  209QMPE   H8S21153   4.813   2.298   6.227
  209QMPE   C2921154   4.642   2.401   6.214
  209QMPE   H9R21155   4.675   2.503   6.253
  209QMPE  C21721156   4.499   2.366   6.166
  209QMPE  H17R21157   4.453   2.322   6.086
  209QMPE  H17S21158   4.432   2.446   6.158
  209QMPE  C21021159   4.625   2.377   6.075
  209QMPE  H10R21160   4.647   2.478   6.072
  209QMPE  C21121161   4.691   2.275   5.957
  209QMPE  H11R21162   4.680   2.177   5.994
  209QMPE  H11S21163   4.642   2.284   5.857
  209QMPE  C21221164   4.838   2.290   5.893
  209QMPE  H12R21165   4.898   2.300   5.981
  209QMPE  H12S21166   4.859   2.373   5.823
  209QMPE  C21321167   4.907   2.207   5.794
  209QMPE  H13R21168   4.857   2.119   5.835
  209QMPE  H13S21169   5.012   2.206   5.824
  209QMPE  C21421170   4.895   2.258   5.646
  209QMPE  H14R21171   4.786   2.256   5.625
  209QMPE  H14S21172   4.950   2.176   5.598
  209QMPE  C21521173   4.951   2.393   5.580
  209QMPE  H15R21174   4.924   2.488   5.632
  209QMPE  H15S21175   4.893   2.399   5.485
  209QMPE  C21621176   5.098   2.400   5.533
  209QMPE  H16R21177   5.172   2.400   5.611
  209QMPE  H16S21178   5.124   2.496   5.484
  209QMPE  H16T21179   5.129   2.312   5.474
  209QMPE   C3321180   4.444   1.591   6.868
  209QMPE   H3X21181   4.505   1.545   6.788
  209QMPE   H3Y21182   4.487   1.691   6.893
  209QMPE   C3421183   4.302   1.621   6.824
  209QMPE   H4X21184   4.257   1.678   6.909
  209QMPE   H4Y21185   4.245   1.527   6.812
  209QMPE   C3521186   4.295   1.701   6.695
  209QMPE   H5X21187   4.188   1.709   6.665
  209QMPE   H5Y21188   4.350   1.649   6.614
  209QMPE   C3621189   4.351   1.843   6.714
  209QMPE   H6X21190   4.461   1.844   6.704
  209QMPE   H6Y21191   4.319   1.880   6.814
  209QMPE   C3721192   4.293   1.936   6.610
  209QMPE   H7X21193   4.186   1.910   6.626
  209QMPE   H7Y21194   4.314   2.042   6.638
  209QMPE   C3821195   4.332   1.903   6.466
  209QMPE   H8X21196   4.441   1.886   6.469
  209QMPE   H8Y21197   4.290   1.805   6.437
  209QMPE   C3921198   4.294   2.005   6.355
  209QMPE   H9X21199   4.260   2.103   6.395
  209QMPE   H9Y21200   4.211   1.965   6.292
  209QMPE  C31021201   4.402   2.019   6.250
  209QMPE  H10X21202   4.471   1.932   6.259
  209QMPE  H10Y21203   4.457   2.112   6.272
  209QMPE  C31121204   4.346   2.016   6.106
  209QMPE  H11X21205   4.256   2.082   6.099
  209QMPE  H11Y21206   4.317   1.912   6.079
  209QMPE  C31221207   4.456   2.058   6.010
  209QMPE  H12X21208   4.551   2.012   6.045
  209QMPE  H12Y21209   4.466   2.164   6.020
  209QMPE  C31321210   4.441   2.038   5.859
  209QMPE  H13X21211   4.536   2.073   5.810
  209QMPE  H13Y21212   4.430   1.930   5.841
  209QMPE  C31421213   4.327   2.116   5.797
  209QMPE  H14X21214   4.349   2.226   5.806
  209QMPE  H14Y21215   4.233   2.095   5.853
  209QMPE  C31521216   4.303   2.084   5.650
  209QMPE  H15X21217   4.256   1.986   5.628
  209QMPE  H15Y21218   4.219   2.146   5.622
  209QMPE  H15Z21219   4.392   2.101   5.586
  210QMPE     N21220   2.678   2.051   7.478
  210QMPE   HN121221   2.629   1.967   7.438
  210QMPE   HN221222   2.706   2.032   7.577
  210QMPE   HN321223   2.623   2.139   7.473
  210QMPE   C1221224   2.803   2.082   7.400
  210QMPE  H12A21225   2.773   2.098   7.294
  210QMPE  H12B21226   2.871   1.995   7.408
  210QMPE   C1121227   2.870   2.209   7.452
  210QMPE  H11A21228   2.961   2.224   7.388
  210QMPE  H11B21229   2.908   2.196   7.557
  210QMPE     P21230   2.817   2.451   7.369
  210QMPE   O1321231   2.957   2.481   7.402
  210QMPE   O1421232   2.711   2.547   7.402
  210QMPE   O1121233   2.796   2.393   7.222
  210QMPE   O1221234   2.778   2.318   7.448
  210QMPE    C121235   2.659   2.365   7.192
  210QMPE    HA21236   2.596   2.457   7.200
  210QMPE    HB21237   2.618   2.286   7.259
  210QMPE    C221238   2.636   2.315   7.049
  210QMPE    HS21239   2.669   2.209   7.040
  210QMPE   O2121240   2.701   2.400   6.956
  210QMPE   C2121241   2.823   2.371   6.922
  210QMPE   O2221242   2.887   2.270   6.946
  210QMPE   C2221243   2.871   2.489   6.842
  210QMPE   H2R21244   2.786   2.534   6.786
  210QMPE   H2S21245   2.949   2.457   6.771
  210QMPE    C321246   2.485   2.325   7.029
  210QMPE    HX21247   2.454   2.431   7.049
  210QMPE    HY21248   2.432   2.260   7.101
  210QMPE   O3121249   2.453   2.289   6.897
  210QMPE   C3121250   2.449   2.394   6.812
  210QMPE   O3221251   2.472   2.511   6.835
  210QMPE   C3221252   2.419   2.343   6.681
  210QMPE   H2X21253   2.349   2.266   6.717
  210QMPE   H2Y21254   2.344   2.395   6.620
  210QMPE   C2321255   2.924   2.592   6.939
  210QMPE   H3R21256   2.996   2.549   7.013
  210QMPE   H3S21257   2.842   2.642   6.996
  210QMPE   C2421258   2.998   2.696   6.861
  210QMPE   H4R21259   3.084   2.643   6.815
  210QMPE   H4S21260   3.037   2.764   6.942
  210QMPE   C2521261   2.914   2.764   6.751
  210QMPE   H5R21262   2.936   2.868   6.717
  210QMPE   H5S21263   2.813   2.778   6.791
  210QMPE   C2621264   2.931   2.710   6.612
  210QMPE   H6R21265   2.896   2.607   6.606
  210QMPE   H6S21266   3.034   2.707   6.571
  210QMPE   C2721267   2.852   2.805   6.526
  210QMPE   H7R21268   2.890   2.910   6.527
  210QMPE   H7S21269   2.748   2.808   6.565
  210QMPE   C2821270   2.869   2.752   6.389
  210QMPE   H8R21271   2.800   2.666   6.373
  210QMPE   H8S21272   2.969   2.708   6.382
  210QMPE   C2921273   2.868   2.868   6.294
  210QMPE   H9R21274   2.872   2.973   6.330
  210QMPE  C21721275   2.738   2.848   6.250
  210QMPE  H17R21276   2.679   2.757   6.261
  210QMPE  H17S21277   2.703   2.943   6.221
  210QMPE  C21021278   2.841   2.849   6.144
  210QMPE  H10R21279   2.827   2.939   6.079
  210QMPE  C21121280   2.827   2.715   6.079
  210QMPE  H11R21281   2.898   2.636   6.085
  210QMPE  H11S21282   2.774   2.647   6.145
  210QMPE  C21221283   2.842   2.721   5.930
  210QMPE  H12R21284   2.870   2.623   5.885
  210QMPE  H12S21285   2.903   2.805   5.891
  210QMPE  C21321286   2.716   2.762   5.885
  210QMPE  H13R21287   2.686   2.860   5.925
  210QMPE  H13S21288   2.638   2.698   5.895
  210QMPE  C21421289   2.696   2.761   5.747
  210QMPE  H14R21290   2.767   2.845   5.753
  210QMPE  H14S21291   2.590   2.789   5.729
  210QMPE  C21521292   2.745   2.662   5.648
  210QMPE  H15R21293   2.851   2.658   5.670
  210QMPE  H15S21294   2.726   2.716   5.555
  210QMPE  C21621295   2.678   2.531   5.610
  210QMPE  H16R21296   2.681   2.479   5.704
  210QMPE  H16S21297   2.721   2.450   5.555
  210QMPE  H16T21298   2.583   2.546   5.558
  210QMPE   C3321299   2.561   2.316   6.616
  210QMPE   H3X21300   2.552   2.223   6.569
  210QMPE   H3Y21301   2.642   2.260   6.662
  210QMPE   C3421302   2.596   2.422   6.509
  210QMPE   H4X21303   2.651   2.502   6.560
  210QMPE   H4Y21304   2.499   2.468   6.488
  210QMPE   C3521305   2.665   2.395   6.371
  210QMPE   H5X21306   2.664   2.492   6.319
  210QMPE   H5Y21307   2.625   2.330   6.292
  210QMPE   C3621308   2.802   2.337   6.386
  210QMPE   H6X21309   2.796   2.247   6.451
  210QMPE   H6Y21310   2.859   2.419   6.435
  210QMPE   C3721311   2.863   2.300   6.250
  210QMPE   H7X21312   2.841   2.193   6.227
  210QMPE   H7Y21313   2.816   2.362   6.170
  210QMPE   C3821314   3.013   2.325   6.254
  210QMPE   H8X21315   3.033   2.433   6.269
  210QMPE   H8Y21316   3.051   2.272   6.344
  210QMPE   C3921317   3.086   2.267   6.133
  210QMPE   H9X21318   3.029   2.180   6.094
  210QMPE   H9Y21319   3.189   2.236   6.162
  210QMPE  C31021320   3.110   2.366   6.024
  210QMPE  H10X21321   3.162   2.448   6.074
  210QMPE  H10Y21322   3.012   2.403   5.989
  210QMPE  C31121323   3.207   2.311   5.919
  210QMPE  H11X21324   3.172   2.214   5.879
  210QMPE  H11Y21325   3.314   2.311   5.950
  210QMPE  C31221326   3.206   2.391   5.796
  210QMPE  H12X21327   3.278   2.357   5.719
  210QMPE  H12Y21328   3.230   2.492   5.810
  210QMPE  C31321329   3.067   2.422   5.760
  210QMPE  H13X21330   3.026   2.320   5.742
  210QMPE  H13Y21331   2.993   2.474   5.823
  210QMPE  C31421332   3.066   2.517   5.644
  210QMPE  H14X21333   2.958   2.518   5.626
  210QMPE  H14Y21334   3.137   2.443   5.599
  210QMPE  C31521335   3.130   2.633   5.573
  210QMPE  H15X21336   3.122   2.630   5.465
  210QMPE  H15Y21337   3.085   2.726   5.612
  210QMPE  H15Z21338   3.237   2.622   5.551
  211QMPE     N21339   6.217   1.561   7.479
  211QMPE   HN121340   6.134   1.571   7.542
  211QMPE   HN221341   6.249   1.462   7.479
  211QMPE   HN321342   6.295   1.620   7.514
  211QMPE   C1221343   6.176   1.609   7.341
  211QMPE  H12A21344   6.072   1.574   7.324
  211QMPE  H12B21345   6.242   1.564   7.265
  211QMPE   C1121346   6.183   1.761   7.337
  211QMPE  H11A21347   6.162   1.799   7.234
  211QMPE  H11B21348   6.287   1.796   7.360
  211QMPE     P21349   5.940   1.841   7.408
  211QMPE   O1321350   5.898   1.954   7.491
  211QMPE   O1421351   5.876   1.710   7.431
  211QMPE   O1121352   5.926   1.875   7.255
  211QMPE   O1221353   6.094   1.814   7.433
  211QMPE    C121354   5.925   2.014   7.220
  211QMPE    HA21355   6.020   2.062   7.253
  211QMPE    HB21356   5.841   2.071   7.266
  211QMPE    C221357   5.918   2.039   7.069
  211QMPE    HS21358   5.901   2.145   7.047
  211QMPE   O2121359   5.827   1.958   6.999
  211QMPE   C2121360   5.715   2.015   6.973
  211QMPE   O2221361   5.672   2.120   7.015
  211QMPE   C2221362   5.657   1.921   6.873
  211QMPE   H2R21363   5.557   1.963   6.850
  211QMPE   H2S21364   5.658   1.818   6.915
  211QMPE    C321365   6.050   2.005   7.013
  211QMPE    HX21366   6.066   1.900   7.048
  211QMPE    HY21367   6.125   2.075   7.054
  211QMPE   O3121368   6.037   2.016   6.872
  211QMPE   C3121369   6.101   1.916   6.816
  211QMPE   O3221370   6.177   1.839   6.872
  211QMPE   C3221371   6.093   1.934   6.668
  211QMPE   H2X21372   5.997   1.959   6.626
  211QMPE   H2Y21373   6.130   2.039   6.682
  211QMPE   C2321374   5.729   1.901   6.745
  211QMPE   H3R21375   5.660   1.831   6.693
  211QMPE   H3S21376   5.818   1.840   6.760
  211QMPE   C2421377   5.756   2.038   6.685
  211QMPE   H4R21378   5.829   2.026   6.608
  211QMPE   H4S21379   5.792   2.106   6.767
  211QMPE   C2521380   5.639   2.101   6.617
  211QMPE   H5R21381   5.592   2.195   6.608
  211QMPE   H5S21382   5.589   2.106   6.714
  211QMPE   C2621383   5.591   2.063   6.472
  211QMPE   H6R21384   5.508   2.121   6.425
  211QMPE   H6S21385   5.491   2.039   6.448
  211QMPE   C2721386   5.685   1.977   6.403
  211QMPE   H7R21387   5.717   1.890   6.460
  211QMPE   H7S21388   5.762   2.055   6.397
  211QMPE   C2821389   5.650   1.946   6.263
  211QMPE   H8R21390   5.721   1.976   6.187
  211QMPE   H8S21391   5.575   2.030   6.259
  211QMPE   C2921392   5.596   1.806   6.240
  211QMPE   H9R21393   5.499   1.789   6.244
  211QMPE  C21721394   5.684   1.692   6.215
  211QMPE  H17R21395   5.772   1.753   6.204
  211QMPE  H17S21396   5.647   1.629   6.297
  211QMPE  C21021397   5.576   1.722   6.116
  211QMPE  H10R21398   5.476   1.680   6.107
  211QMPE  C21121399   5.601   1.775   5.989
  211QMPE  H11R21400   5.536   1.858   5.977
  211QMPE  H11S21401   5.702   1.803   5.966
  211QMPE  C21221402   5.511   1.711   5.891
  211QMPE  H12R21403   5.519   1.750   5.789
  211QMPE  H12S21404   5.400   1.713   5.919
  211QMPE  C21321405   5.568   1.592   5.848
  211QMPE  H13R21406   5.598   1.546   5.944
  211QMPE  H13S21407   5.665   1.583   5.800
  211QMPE  C21421408   5.438   1.563   5.768
  211QMPE  H14R21409   5.334   1.554   5.808
  211QMPE  H14S21410   5.480   1.488   5.819
  211QMPE  C21521411   5.448   1.531   5.627
  211QMPE  H15R21412   5.459   1.629   5.582
  211QMPE  H15S21413   5.357   1.474   5.590
  211QMPE  C21621414   5.571   1.452   5.600
  211QMPE  H16R21415   5.662   1.452   5.662
  211QMPE  H16S21416   5.593   1.462   5.497
  211QMPE  H16T21417   5.536   1.354   5.619
  211QMPE   C3321418   6.172   1.825   6.580
  211QMPE   H3X21419   6.148   1.729   6.631
  211QMPE   H3Y21420   6.282   1.820   6.590
  211QMPE   C3421421   6.151   1.809   6.424
  211QMPE   H4X21422   6.042   1.813   6.406
  211QMPE   H4Y21423   6.193   1.714   6.405
  211QMPE   C3521424   6.235   1.876   6.304
  211QMPE   H5X21425   6.336   1.925   6.311
  211QMPE   H5Y21426   6.174   1.937   6.355
  211QMPE   C3621427   6.174   1.939   6.179
  211QMPE   H6X21428   6.180   1.860   6.106
  211QMPE   H6Y21429   6.236   2.027   6.141
  211QMPE   C3721430   6.026   1.966   6.191
  211QMPE   H7X21431   5.961   1.896   6.240
  211QMPE   H7Y21432   5.994   2.048   6.250
  211QMPE   C3821433   5.982   2.007   6.061
  211QMPE   H8X21434   5.876   2.037   6.069
  211QMPE   H8Y21435   6.058   2.083   6.027
  211QMPE   C3921436   5.995   1.911   5.958
  211QMPE   H9X21437   5.958   1.819   6.005
  211QMPE   H9Y21438   6.103   1.914   5.926
  211QMPE  C31021439   5.901   1.942   5.848
  211QMPE  H10X21440   5.921   2.044   5.820
  211QMPE  H10Y21441   5.798   1.967   5.877
  211QMPE  C31121442   5.945   1.829   5.752
  211QMPE  H11X21443   5.938   1.738   5.813
  211QMPE  H11Y21444   6.050   1.845   5.717
  211QMPE  C31221445   5.862   1.774   5.638
  211QMPE  H12X21446   5.797   1.841   5.596
  211QMPE  H12Y21447   5.762   1.786   5.682
  211QMPE  C31321448   5.932   1.783   5.497
  211QMPE  H13X21449   5.981   1.879   5.470
  211QMPE  H13Y21450   6.016   1.716   5.517
  211QMPE  C31421451   5.849   1.726   5.376
  211QMPE  H14X21452   5.786   1.650   5.424
  211QMPE  H14Y21453   5.914   1.676   5.303
  211QMPE  C31521454   5.776   1.802   5.263
  211QMPE  H15X21455   5.697   1.752   5.208
  211QMPE  H15Y21456   5.739   1.886   5.303
  211QMPE  H15Z21457   5.790   1.907   5.227
  212QMPE     N21458   6.474   6.094   7.405
  212QMPE   HN121459   6.446   6.043   7.319
  212QMPE   HN221460   6.453   6.032   7.486
  212QMPE   HN321461   6.413   6.179   7.410
  212QMPE   C1221462   6.621   6.128   7.405
  212QMPE  H12A21463   6.634   6.224   7.458
  212QMPE  H12B21464   6.654   6.140   7.300
  212QMPE   C1121465   6.701   6.018   7.479
  212QMPE  H11A21466   6.692   5.921   7.424
  212QMPE  H11B21467   6.656   6.001   7.580
  212QMPE     P21468   6.938   6.062   7.371
  212QMPE   O1321469   7.077   6.025   7.408
  212QMPE   O1421470   6.911   6.194   7.310
  212QMPE   O1121471   6.875   5.950   7.277
  212QMPE   O1221472   6.838   6.054   7.495
  212QMPE    C121473   6.941   5.903   7.158
  212QMPE    HA21474   6.931   5.792   7.151
  212QMPE    HB21475   7.050   5.926   7.154
  212QMPE    C221476   6.880   5.965   7.030
  212QMPE    HS21477   6.913   5.904   6.942
  212QMPE   O2121478   6.915   6.103   7.016
  212QMPE   C2121479   7.032   6.129   6.967
  212QMPE   O2221480   7.110   6.047   6.919
  212QMPE   C2221481   7.053   6.280   6.971
  212QMPE   H2R21482   7.097   6.302   7.070
  212QMPE   H2S21483   6.954   6.331   6.966
  212QMPE    C321484   6.728   5.964   7.030
  212QMPE    HX21485   6.690   6.019   7.119
  212QMPE    HY21486   6.697   5.861   7.042
  212QMPE   O3121487   6.679   6.022   6.909
  212QMPE   C3121488   6.696   5.950   6.798
  212QMPE   O3221489   6.740   5.836   6.792
  212QMPE   C3221490   6.636   6.028   6.683
  212QMPE   H2X21491   6.534   6.060   6.715
  212QMPE   H2Y21492   6.696   6.118   6.667
  212QMPE   C2321493   7.150   6.329   6.861
  212QMPE   H3R21494   7.245   6.273   6.871
  212QMPE   H3S21495   7.169   6.437   6.883
  212QMPE   C2421496   7.099   6.310   6.718
  212QMPE   H4R21497   6.994   6.347   6.714
  212QMPE   H4S21498   7.098   6.202   6.693
  212QMPE   C2521499   7.185   6.371   6.606
  212QMPE   H5R21500   7.271   6.307   6.582
  212QMPE   H5S21501   7.232   6.465   6.634
  212QMPE   C2621502   7.101   6.394   6.481
  212QMPE   H6R21503   7.035   6.479   6.509
  212QMPE   H6S21504   7.027   6.314   6.470
  212QMPE   C2721505   7.185   6.405   6.349
  212QMPE   H7R21506   7.251   6.317   6.344
  212QMPE   H7S21507   7.265   6.479   6.340
  212QMPE   C2821508   7.098   6.423   6.221
  212QMPE   H8R21509   7.020   6.346   6.237
  212QMPE   H8S21510   7.164   6.397   6.136
  212QMPE   C2921511   7.030   6.560   6.189
  212QMPE   H9R21512   7.081   6.649   6.153
  212QMPE  C21721513   6.890   6.580   6.237
  212QMPE  H17R21514   6.849   6.488   6.274
  212QMPE  H17S21515   6.881   6.679   6.280
  212QMPE  C21021516   6.921   6.574   6.088
  212QMPE  H10R21517   6.922   6.671   6.034
  212QMPE  C21121518   6.874   6.448   6.023
  212QMPE  H11R21519   6.947   6.365   6.037
  212QMPE  H11S21520   6.778   6.423   6.072
  212QMPE  C21221521   6.840   6.470   5.877
  212QMPE  H12R21522   6.752   6.538   5.872
  212QMPE  H12S21523   6.815   6.374   5.829
  212QMPE  C21321524   6.952   6.531   5.796
  212QMPE  H13R21525   7.025   6.454   5.765
  212QMPE  H13S21526   7.008   6.608   5.854
  212QMPE  C21421527   6.895   6.588   5.668
  212QMPE  H14R21528   6.835   6.678   5.701
  212QMPE  H14S21529   6.818   6.530   5.617
  212QMPE  C21521530   7.016   6.595   5.573
  212QMPE  H15R21531   7.078   6.508   5.574
  212QMPE  H15S21532   7.088   6.660   5.624
  212QMPE  C21621533   6.994   6.642   5.429
  212QMPE  H16R21534   6.987   6.567   5.352
  212QMPE  H16S21535   7.073   6.715   5.396
  212QMPE  H16T21536   6.897   6.695   5.432
  212QMPE   C3321537   6.635   5.954   6.547
  212QMPE   H3X21538   6.583   5.860   6.567
  212QMPE   H3Y21539   6.736   5.922   6.520
  212QMPE   C3421540   6.572   6.047   6.436
  212QMPE   H4X21541   6.636   6.136   6.439
  212QMPE   H4Y21542   6.468   6.073   6.466
  212QMPE   C3521543   6.574   6.013   6.283
  212QMPE   H5X21544   6.553   6.092   6.212
  212QMPE   H5Y21545   6.475   5.981   6.248
  212QMPE   C3621546   6.683   5.910   6.249
  212QMPE   H6X21547   6.674   5.844   6.160
  212QMPE   H6Y21548   6.703   5.849   6.337
  212QMPE   C3721549   6.805   5.970   6.207
  212QMPE   H7X21550   6.777   6.028   6.116
  212QMPE   H7Y21551   6.827   6.031   6.298
  212QMPE   C3821552   6.916   5.871   6.178
  212QMPE   H8X21553   6.937   5.808   6.269
  212QMPE   H8Y21554   6.900   5.800   6.094
  212QMPE   C3921555   7.023   5.971   6.150
  212QMPE   H9X21556   7.120   5.940   6.172
  212QMPE   H9Y21557   7.022   6.045   6.233
  212QMPE  C31021558   7.024   6.032   6.010
  212QMPE  H10X21559   7.121   6.089   6.010
  212QMPE  H10Y21560   6.941   6.102   6.001
  212QMPE  C31121561   7.010   5.943   5.883
  212QMPE  H11X21562   6.911   5.917   5.845
  212QMPE  H11Y21563   7.046   5.842   5.910
  212QMPE  C31221564   7.090   6.006   5.765
  212QMPE  H12X21565   7.117   5.927   5.692
  212QMPE  H12Y21566   7.184   6.050   5.802
  212QMPE  C31321567   7.042   6.140   5.717
  212QMPE  H13X21568   6.942   6.119   5.675
  212QMPE  H13Y21569   7.036   6.205   5.807
  212QMPE  C31421570   7.135   6.208   5.617
  212QMPE  H14X21571   7.223   6.247   5.674
  212QMPE  H14Y21572   7.085   6.299   5.578
  212QMPE  C31521573   7.179   6.120   5.499
  212QMPE  H15X21574   7.200   6.015   5.529
  212QMPE  H15Y21575   7.110   6.121   5.414
  212QMPE  H15Z21576   7.271   6.160   5.453
  213QMPE     N21577   6.787   2.150   7.261
  213QMPE   HN121578   6.721   2.089   7.314
  213QMPE   HN221579   6.809   2.109   7.168
  213QMPE   HN321580   6.874   2.159   7.316
  213QMPE   C1221581   6.743   2.293   7.244
  213QMPE  H12A21582   6.641   2.293   7.200
  213QMPE  H12B21583   6.814   2.342   7.175
  213QMPE   C1121584   6.748   2.370   7.377
  213QMPE  H11A21585   6.723   2.478   7.360
  213QMPE  H11B21586   6.852   2.371   7.416
  213QMPE     P21587   6.502   2.330   7.458
  213QMPE   O1321588   6.448   2.387   7.583
  213QMPE   O1421589   6.449   2.204   7.402
  213QMPE   O1121590   6.491   2.443   7.345
  213QMPE   O1221591   6.661   2.312   7.473
  213QMPE    C121592   6.369   2.456   7.269
  213QMPE    HA21593   6.308   2.536   7.314
  213QMPE    HB21594   6.305   2.363   7.270
  213QMPE    C221595   6.395   2.484   7.118
  213QMPE    HS21596   6.299   2.517   7.071
  213QMPE   O2121597   6.445   2.366   7.057
  213QMPE   C2121598   6.355   2.295   6.994
  213QMPE   O2221599   6.234   2.310   6.998
  213QMPE   C2221600   6.431   2.196   6.910
  213QMPE   H2R21601   6.492   2.133   6.977
  213QMPE   H2S21602   6.494   2.249   6.836
  213QMPE    C321603   6.496   2.596   7.087
  213QMPE    HX21604   6.599   2.569   7.121
  213QMPE    HY21605   6.467   2.685   7.145
  213QMPE   O3121606   6.488   2.631   6.948
  213QMPE   C3121607   6.579   2.574   6.867
  213QMPE   O3221608   6.666   2.497   6.902
  213QMPE   C3221609   6.562   2.626   6.724
  213QMPE   H2X21610   6.468   2.683   6.714
  213QMPE   H2Y21611   6.646   2.696   6.703
  213QMPE   C2321612   6.332   2.105   6.844
  213QMPE   H3R21613   6.255   2.160   6.786
  213QMPE   H3S21614   6.281   2.055   6.930
  213QMPE   C2421615   6.401   1.996   6.764
  213QMPE   H4R21616   6.324   1.937   6.722
  213QMPE   H4S21617   6.454   1.921   6.826
  213QMPE   C2521618   6.476   2.039   6.639
  213QMPE   H5R21619   6.503   1.944   6.586
  213QMPE   H5S21620   6.566   2.090   6.674
  213QMPE   C2621621   6.403   2.138   6.544
  213QMPE   H6R21622   6.458   2.140   6.446
  213QMPE   H6S21623   6.358   2.230   6.585
  213QMPE   C2721624   6.286   2.081   6.487
  213QMPE   H7R21625   6.200   2.067   6.535
  213QMPE   H7S21626   6.322   1.979   6.484
  213QMPE   C2821627   6.194   2.148   6.389
  213QMPE   H8R21628   6.098   2.085   6.390
  213QMPE   H8S21629   6.244   2.150   6.293
  213QMPE   C2921630   6.140   2.274   6.422
  213QMPE   H9R21631   6.153   2.319   6.520
  213QMPE  C21721632   5.995   2.263   6.400
  213QMPE  H17R21633   5.936   2.174   6.375
  213QMPE  H17S21634   5.951   2.351   6.438
  213QMPE  C21021635   6.080   2.337   6.302
  213QMPE  H10R21636   6.049   2.443   6.305
  213QMPE  C21121637   6.089   2.263   6.173
  213QMPE  H11R21638   6.185   2.235   6.129
  213QMPE  H11S21639   6.001   2.201   6.172
  213QMPE  C21221640   6.032   2.331   6.064
  213QMPE  H12R21641   6.068   2.430   6.090
  213QMPE  H12S21642   5.948   2.367   6.118
  213QMPE  C21321643   5.986   2.269   5.922
  213QMPE  H13R21644   5.893   2.261   5.860
  213QMPE  H13S21645   5.932   2.180   5.938
  213QMPE  C21421646   6.094   2.277   5.829
  213QMPE  H14R21647   6.172   2.224   5.886
  213QMPE  H14S21648   6.109   2.384   5.828
  213QMPE  C21521649   6.075   2.231   5.689
  213QMPE  H15R21650   6.148   2.286   5.629
  213QMPE  H15S21651   5.972   2.252   5.651
  213QMPE  C21621652   6.120   2.091   5.676
  213QMPE  H16R21653   6.168   2.038   5.761
  213QMPE  H16S21654   6.118   2.046   5.575
  213QMPE  H16T21655   6.033   2.040   5.690
  213QMPE   C3321656   6.569   2.512   6.621
  213QMPE   H3X21657   6.491   2.435   6.643
  213QMPE   H3Y21658   6.667   2.460   6.628
  213QMPE   C3421659   6.548   2.565   6.479
  213QMPE   H4X21660   6.630   2.636   6.454
  213QMPE   H4Y21661   6.451   2.620   6.478
  213QMPE   C3521662   6.546   2.455   6.374
  213QMPE   H5X21663   6.525   2.498   6.273
  213QMPE   H5Y21664   6.462   2.385   6.397
  213QMPE   C3621665   6.680   2.381   6.365
  213QMPE   H6X21666   6.710   2.336   6.462
  213QMPE   H6Y21667   6.760   2.453   6.337
  213QMPE   C3721668   6.675   2.271   6.260
  213QMPE   H7X21669   6.645   2.174   6.306
  213QMPE   H7Y21670   6.598   2.297   6.183
  213QMPE   C3821671   6.810   2.253   6.193
  213QMPE   H8X21672   6.837   2.343   6.133
  213QMPE   H8Y21673   6.887   2.242   6.272
  213QMPE   C3921674   6.808   2.129   6.106
  213QMPE   H9X21675   6.735   2.054   6.145
  213QMPE   H9Y21676   6.907   2.080   6.103
  213QMPE  C31021677   6.762   2.165   5.966
  213QMPE  H10X21678   6.828   2.239   5.917
  213QMPE  H10Y21679   6.655   2.195   5.966
  213QMPE  C31121680   6.772   2.047   5.880
  213QMPE  H11X21681   6.689   1.976   5.906
  213QMPE  H11Y21682   6.874   2.005   5.895
  213QMPE  C31221683   6.736   2.079   5.742
  213QMPE  H12X21684   6.763   1.997   5.678
  213QMPE  H12Y21685   6.806   2.144   5.688
  213QMPE  C31321686   6.580   2.110   5.753
  213QMPE  H13X21687   6.521   2.034   5.811
  213QMPE  H13Y21688   6.569   2.216   5.774
  213QMPE  C31421689   6.520   2.092   5.622
  213QMPE  H14X21690   6.554   1.987   5.613
  213QMPE  H14Y21691   6.608   2.141   5.590
  213QMPE  C31521692   6.388   2.124   5.535
  213QMPE  H15X21693   6.341   2.222   5.536
  213QMPE  H15Y21694   6.403   2.114   5.426
  213QMPE  H15Z21695   6.323   2.040   5.510
  214QMPE     N21696   1.050   3.939   7.359
  214QMPE   HN121697   1.061   3.852   7.303
  214QMPE   HN221698   1.102   4.013   7.307
  214QMPE   HN321699   1.095   3.928   7.452
  214QMPE   C1221700   0.906   3.985   7.367
  214QMPE  H12A21701   0.848   3.898   7.405
  214QMPE  H12B21702   0.871   4.010   7.265
  214QMPE   C1121703   0.884   4.107   7.461
  214QMPE  H11A21704   0.902   4.074   7.566
  214QMPE  H11B21705   0.776   4.136   7.455
  214QMPE     P21706   0.923   4.365   7.396
  214QMPE   O1321707   0.894   4.441   7.519
  214QMPE   O1421708   0.819   4.353   7.292
  214QMPE   O1121709   1.056   4.418   7.335
  214QMPE   O1221710   0.972   4.216   7.432
  214QMPE    C121711   1.190   4.378   7.365
  214QMPE    HA21712   1.197   4.303   7.448
  214QMPE    HB21713   1.246   4.467   7.400
  214QMPE    C221714   1.263   4.327   7.236
  214QMPE    HS21715   1.363   4.373   7.228
  214QMPE   O2121716   1.187   4.357   7.117
  214QMPE   C2121717   1.183   4.486   7.089
  214QMPE   O2221718   1.250   4.574   7.139
  214QMPE   C2221719   1.081   4.514   6.981
  214QMPE   H2R21720   0.995   4.563   7.031
  214QMPE   H2S21721   1.045   4.418   6.937
  214QMPE    C321722   1.290   4.176   7.241
  214QMPE    HX21723   1.197   4.130   7.279
  214QMPE    HY21724   1.371   4.151   7.314
  214QMPE   O3121725   1.328   4.132   7.109
  214QMPE   C3121726   1.232   4.074   7.039
  214QMPE   O3221727   1.128   4.030   7.086
  214QMPE   C3221728   1.283   4.057   6.896
  214QMPE   H2X21729   1.342   4.142   6.861
  214QMPE   H2Y21730   1.354   3.976   6.907
  214QMPE   C2321731   1.142   4.603   6.870
  214QMPE   H3R21732   1.236   4.554   6.835
  214QMPE   H3S21733   1.171   4.703   6.910
  214QMPE   C2421734   1.046   4.612   6.752
  214QMPE   H4R21735   0.944   4.642   6.786
  214QMPE   H4S21736   1.037   4.510   6.707
  214QMPE   C2521737   1.084   4.699   6.635
  214QMPE   H5R21738   1.188   4.674   6.601
  214QMPE   H5S21739   1.091   4.807   6.660
  214QMPE   C2621740   0.985   4.664   6.521
  214QMPE   H6R21741   0.971   4.557   6.505
  214QMPE   H6S21742   1.042   4.697   6.432
  214QMPE   C2721743   0.833   4.705   6.532
  214QMPE   H7R21744   0.835   4.807   6.542
  214QMPE   H7S21745   0.774   4.696   6.623
  214QMPE   C2821746   0.752   4.722   6.404
  214QMPE   H8R21747   0.745   4.630   6.353
  214QMPE   H8S21748   0.791   4.753   6.313
  214QMPE   C2921749   0.661   4.846   6.396
  214QMPE   H9R21750   0.663   4.942   6.453
  214QMPE  C21721751   0.548   4.794   6.449
  214QMPE  H17R21752   0.587   4.719   6.515
  214QMPE  H17S21753   0.465   4.845   6.489
  214QMPE  C21021754   0.566   4.819   6.290
  214QMPE  H10R21755   0.463   4.853   6.280
  214QMPE  C21121756   0.622   4.734   6.165
  214QMPE  H11R21757   0.683   4.648   6.184
  214QMPE  H11S21758   0.534   4.699   6.104
  214QMPE  C21221759   0.677   4.783   6.038
  214QMPE  H12R21760   0.730   4.870   6.033
  214QMPE  H12S21761   0.595   4.849   6.035
  214QMPE  C21321762   0.686   4.687   5.917
  214QMPE  H13R21763   0.589   4.639   5.889
  214QMPE  H13S21764   0.740   4.597   5.943
  214QMPE  C21421765   0.722   4.748   5.786
  214QMPE  H14R21766   0.826   4.775   5.791
  214QMPE  H14S21767   0.677   4.849   5.767
  214QMPE  C21521768   0.678   4.645   5.684
  214QMPE  H15R21769   0.588   4.673   5.640
  214QMPE  H15S21770   0.653   4.542   5.720
  214QMPE  C21621771   0.734   4.654   5.553
  214QMPE  H16R21772   0.839   4.642   5.576
  214QMPE  H16S21773   0.697   4.745   5.498
  214QMPE  H16T21774   0.691   4.566   5.503
  214QMPE   C3321775   1.176   4.008   6.797
  214QMPE   H3X21776   1.110   3.932   6.845
  214QMPE   H3Y21777   1.220   3.956   6.709
  214QMPE   C3421778   1.095   4.122   6.737
  214QMPE   H4X21779   1.067   4.192   6.819
  214QMPE   H4Y21780   1.002   4.076   6.695
  214QMPE   C3521781   1.167   4.198   6.624
  214QMPE   H5X21782   1.271   4.225   6.654
  214QMPE   H5Y21783   1.112   4.293   6.605
  214QMPE   C3621784   1.172   4.115   6.495
  214QMPE   H6X21785   1.070   4.073   6.479
  214QMPE   H6Y21786   1.243   4.030   6.510
  214QMPE   C3721787   1.217   4.189   6.368
  214QMPE   H7X21788   1.318   4.232   6.385
  214QMPE   H7Y21789   1.226   4.116   6.285
  214QMPE   C3821790   1.118   4.299   6.325
  214QMPE   H8X21791   1.018   4.271   6.364
  214QMPE   H8Y21792   1.150   4.394   6.372
  214QMPE   C3921793   1.110   4.322   6.172
  214QMPE   H9X21794   1.099   4.227   6.120
  214QMPE   H9Y21795   1.204   4.368   6.136
  214QMPE  C31021796   0.983   4.397   6.132
  214QMPE  H10X21797   0.969   4.481   6.203
  214QMPE  H10Y21798   0.897   4.326   6.144
  214QMPE  C31121799   0.980   4.460   5.991
  214QMPE  H11X21800   1.072   4.519   5.973
  214QMPE  H11Y21801   0.897   4.528   5.989
  214QMPE  C31221802   0.957   4.366   5.875
  214QMPE  H12X21803   0.877   4.291   5.886
  214QMPE  H12Y21804   1.048   4.311   5.879
  214QMPE  C31321805   0.956   4.432   5.738
  214QMPE  H13X21806   0.852   4.464   5.720
  214QMPE  H13Y21807   1.022   4.521   5.741
  214QMPE  C31421808   1.002   4.336   5.627
  214QMPE  H14X21809   0.947   4.240   5.640
  214QMPE  H14Y21810   1.112   4.319   5.638
  214QMPE  C31521811   0.976   4.388   5.487
  214QMPE  H15X21812   0.874   4.431   5.486
  214QMPE  H15Y21813   1.045   4.471   5.464
  214QMPE  H15Z21814   0.984   4.310   5.409
  215QMPE     N21815   5.023   0.281   7.616
  215QMPE   HN121816   5.008   0.384   7.614
  215QMPE   HN221817   4.947   0.247   7.553
  215QMPE   HN321818   5.006   0.247   7.712
  215QMPE   C1221819   5.161   0.257   7.562
  215QMPE  H12A21820   5.185   0.149   7.569
  215QMPE  H12B21821   5.233   0.318   7.621
  215QMPE   C1121822   5.165   0.308   7.418
  215QMPE  H11A21823   5.092   0.251   7.356
  215QMPE  H11B21824   5.268   0.288   7.380
  215QMPE     P21825   5.035   0.520   7.321
  215QMPE   O1321826   5.043   0.665   7.350
  215QMPE   O1421827   4.908   0.446   7.338
  215QMPE   O1121828   5.090   0.497   7.175
  215QMPE   O1221829   5.141   0.448   7.418
  215QMPE    C121830   5.230   0.500   7.164
  215QMPE    HA21831   5.260   0.394   7.182
  215QMPE    HB21832   5.282   0.558   7.244
  215QMPE    C221833   5.284   0.552   7.028
  215QMPE    HS21834   5.394   0.570   7.025
  215QMPE   O2121835   5.235   0.672   6.991
  215QMPE   C2121836   5.282   0.705   6.873
  215QMPE   O2221837   5.388   0.676   6.820
  215QMPE   C2221838   5.193   0.811   6.843
  215QMPE   H2R21839   5.202   0.868   6.937
  215QMPE   H2S21840   5.090   0.776   6.843
  215QMPE    C321841   5.249   0.452   6.919
  215QMPE    HX21842   5.230   0.359   6.974
  215QMPE    HY21843   5.334   0.454   6.846
  215QMPE   O3121844   5.127   0.470   6.859
  215QMPE   C3121845   5.110   0.400   6.753
  215QMPE   O3221846   5.191   0.335   6.688
  215QMPE   C3221847   4.963   0.415   6.738
  215QMPE   H2X21848   4.913   0.326   6.780
  215QMPE   H2Y21849   4.930   0.507   6.792
  215QMPE   C2321850   5.242   0.882   6.721
  215QMPE   H3R21851   5.258   0.814   6.635
  215QMPE   H3S21852   5.348   0.912   6.732
  215QMPE   C2421853   5.150   0.994   6.671
  215QMPE   H4R21854   5.194   1.009   6.579
  215QMPE   H4S21855   5.131   1.100   6.694
  215QMPE   C2521856   5.014   0.998   6.676
  215QMPE   H5R21857   4.965   1.085   6.734
  215QMPE   H5S21858   5.016   0.915   6.741
  215QMPE   C2621859   5.009   0.985   6.527
  215QMPE   H6R21860   5.059   1.072   6.481
  215QMPE   H6S21861   4.933   1.025   6.468
  215QMPE   C2721862   5.030   0.837   6.498
  215QMPE   H7R21863   5.023   0.774   6.592
  215QMPE   H7S21864   5.133   0.836   6.462
  215QMPE   C2821865   4.932   0.777   6.399
  215QMPE   H8R21866   4.836   0.762   6.453
  215QMPE   H8S21867   4.963   0.674   6.375
  215QMPE   C2921868   4.917   0.864   6.272
  215QMPE   H9R21869   4.883   0.970   6.279
  215QMPE  C21721870   4.841   0.786   6.164
  215QMPE  H17R21871   4.838   0.678   6.171
  215QMPE  H17S21872   4.777   0.844   6.099
  215QMPE  C21021873   4.980   0.838   6.143
  215QMPE  H10R21874   4.967   0.913   6.067
  215QMPE  C21121875   5.086   0.732   6.135
  215QMPE  H11R21876   5.053   0.643   6.193
  215QMPE  H11S21877   5.090   0.702   6.029
  215QMPE  C21221878   5.220   0.776   6.196
  215QMPE  H12R21879   5.276   0.681   6.209
  215QMPE  H12S21880   5.208   0.826   6.292
  215QMPE  C21321881   5.308   0.866   6.111
  215QMPE  H13R21882   5.402   0.890   6.165
  215QMPE  H13S21883   5.261   0.965   6.096
  215QMPE  C21421884   5.343   0.792   5.982
  215QMPE  H14R21885   5.253   0.751   5.931
  215QMPE  H14S21886   5.416   0.712   6.003
  215QMPE  C21521887   5.415   0.876   5.886
  215QMPE  H15R21888   5.493   0.832   5.822
  215QMPE  H15S21889   5.452   0.962   5.946
  215QMPE  C21621890   5.320   0.930   5.792
  215QMPE  H16R21891   5.226   0.894   5.757
  215QMPE  H16S21892   5.372   0.961   5.702
  215QMPE  H16T21893   5.304   1.015   5.859
  215QMPE   C3321894   4.938   0.434   6.592
  215QMPE   H3X21895   5.006   0.510   6.547
  215QMPE   H3Y21896   4.833   0.467   6.579
  215QMPE   C3421897   4.957   0.303   6.522
  215QMPE   H4X21898   4.880   0.232   6.558
  215QMPE   H4Y21899   5.049   0.244   6.541
  215QMPE   C3521900   4.948   0.332   6.375
  215QMPE   H5X21901   4.891   0.418   6.338
  215QMPE   H5Y21902   4.875   0.261   6.364
  215QMPE   C3621903   5.066   0.283   6.294
  215QMPE   H6X21904   5.088   0.176   6.314
  215QMPE   H6Y21905   5.147   0.346   6.336
  215QMPE   C3721906   5.047   0.308   6.144
  215QMPE   H7X21907   4.987   0.225   6.099
  215QMPE   H7Y21908   4.989   0.402   6.132
  215QMPE   C3821909   5.181   0.321   6.073
  215QMPE   H8X21910   5.235   0.411   6.109
  215QMPE   H8Y21911   5.242   0.233   6.106
  215QMPE   C3921912   5.169   0.326   5.918
  215QMPE   H9X21913   5.105   0.239   5.890
  215QMPE   H9Y21914   5.269   0.310   5.874
  215QMPE  C31021915   5.109   0.460   5.863
  215QMPE  H10X21916   5.178   0.542   5.891
  215QMPE  H10Y21917   5.013   0.476   5.916
  215QMPE  C31121918   5.081   0.469   5.711
  215QMPE  H11X21919   5.021   0.379   5.687
  215QMPE  H11Y21920   5.173   0.475   5.649
  215QMPE  C31221921   4.990   0.580   5.658
  215QMPE  H12X21922   4.901   0.593   5.723
  215QMPE  H12Y21923   4.952   0.552   5.556
  215QMPE  C31321924   5.054   0.713   5.635
  215QMPE  H13X21925   5.110   0.741   5.727
  215QMPE  H13Y21926   5.133   0.715   5.555
  215QMPE  C31421927   4.934   0.802   5.592
  215QMPE  H14X21928   4.867   0.771   5.513
  215QMPE  H14Y21929   4.984   0.879   5.533
  215QMPE  C31521930   4.832   0.847   5.703
  215QMPE  H15X21931   4.812   0.815   5.806
  215QMPE  H15Y21932   4.926   0.836   5.755
  215QMPE  H15Z21933   4.804   0.955   5.704
  216QMPE     N21934   2.468   7.466   7.558
  216QMPE   HN121935   2.479   7.569   7.553
  216QMPE   HN221936   2.515   7.430   7.643
  216QMPE   HN321937   2.509   7.422   7.472
  216QMPE   C1221938   2.324   7.427   7.571
  216QMPE  H12A21939   2.280   7.489   7.651
  216QMPE  H12B21940   2.318   7.320   7.599
  216QMPE   C1121941   2.248   7.453   7.441
  216QMPE  H11A21942   2.263   7.560   7.413
  216QMPE  H11B21943   2.140   7.434   7.461
  216QMPE     P21944   2.299   7.216   7.327
  216QMPE   O1321945   2.177   7.164   7.391
  216QMPE   O1421946   2.430   7.179   7.389
  216QMPE   O1121947   2.294   7.186   7.174
  216QMPE   O1221948   2.294   7.375   7.332
  216QMPE    C121949   2.336   7.281   7.077
  216QMPE    HA21950   2.393   7.227   6.998
  216QMPE    HB21951   2.408   7.354   7.120
  216QMPE    C221952   2.215   7.357   7.013
  216QMPE    HS21953   2.159   7.404   7.098
  216QMPE   O2121954   2.130   7.264   6.944
  216QMPE   C2121955   2.005   7.299   6.927
  216QMPE   O2221956   1.951   7.401   6.968
  216QMPE   C2221957   1.939   7.192   6.843
  216QMPE   H2R21958   1.901   7.113   6.910
  216QMPE   H2S21959   2.017   7.148   6.778
  216QMPE    C321960   2.264   7.470   6.917
  216QMPE    HX21961   2.332   7.534   6.977
  216QMPE    HY21962   2.179   7.534   6.886
  216QMPE   O3121963   2.327   7.416   6.799
  216QMPE   C3121964   2.445   7.465   6.768
  216QMPE   O3221965   2.511   7.544   6.833
  216QMPE   C3221966   2.489   7.420   6.629
  216QMPE   H2X21967   2.426   7.466   6.551
  216QMPE   H2Y21968   2.591   7.460   6.617
  216QMPE   C2321969   1.828   7.245   6.753
  216QMPE   H3R21970   1.776   7.330   6.801
  216QMPE   H3S21971   1.750   7.166   6.741
  216QMPE   C2421972   1.887   7.282   6.618
  216QMPE   H4R21973   1.810   7.275   6.538
  216QMPE   H4S21974   1.966   7.209   6.591
  216QMPE   C2521975   1.952   7.422   6.610
  216QMPE   H5R21976   2.027   7.445   6.686
  216QMPE   H5S21977   1.873   7.497   6.633
  216QMPE   C2621978   2.009   7.433   6.468
  216QMPE   H6R21979   1.932   7.411   6.391
  216QMPE   H6S21980   2.090   7.361   6.452
  216QMPE   C2721981   2.070   7.565   6.437
  216QMPE   H7R21982   2.152   7.588   6.508
  216QMPE   H7S21983   1.981   7.628   6.458
  216QMPE   C2821984   2.130   7.567   6.296
  216QMPE   H8R21985   2.055   7.539   6.222
  216QMPE   H8S21986   2.210   7.494   6.288
  216QMPE   C2921987   2.203   7.692   6.266
  216QMPE   H9R21988   2.285   7.720   6.333
  216QMPE  C21721989   2.130   7.765   6.150
  216QMPE  H17R21990   2.049   7.762   6.217
  216QMPE  H17S21991   2.061   7.832   6.172
  216QMPE  C21021992   2.273   7.730   6.148
  216QMPE  H10R21993   2.336   7.818   6.135
  216QMPE  C21121994   2.237   7.669   6.032
  216QMPE  H11R21995   2.301   7.586   6.004
  216QMPE  H11S21996   2.144   7.609   6.042
  216QMPE  C21221997   2.244   7.791   5.939
  216QMPE  H12R21998   2.223   7.721   5.866
  216QMPE  H12S21999   2.353   7.810   5.934
  216QMPE  C21322000   2.155   7.919   5.899
  216QMPE  H13R22001   2.193   7.967   5.811
  216QMPE  H13S22002   2.186   7.971   5.986
  216QMPE  C21422003   2.004   7.946   5.854
  216QMPE  H14R22004   1.963   8.042   5.858
  216QMPE  H14S22005   1.958   7.925   5.945
  216QMPE  C21522006   1.923   7.884   5.737
  216QMPE  H15R22007   1.816   7.870   5.770
  216QMPE  H15S22008   1.949   7.784   5.719
  216QMPE  C21622009   1.936   7.905   5.591
  216QMPE  H16R22010   1.985   7.835   5.526
  216QMPE  H16S22011   1.971   8.000   5.555
  216QMPE  H16T22012   1.830   7.880   5.585
  216QMPE   C3322013   2.485   7.267   6.614
  216QMPE   H3X22014   2.529   7.219   6.704
  216QMPE   H3Y22015   2.550   7.238   6.528
  216QMPE   C3422016   2.346   7.215   6.578
  216QMPE   H4X22017   2.302   7.278   6.498
  216QMPE   H4Y22018   2.276   7.209   6.665
  216QMPE   C3522019   2.356   7.076   6.524
  216QMPE   H5X22020   2.385   7.016   6.614
  216QMPE   H5Y22021   2.434   7.070   6.443
  216QMPE   C3622022   2.229   7.014   6.471
  216QMPE   H6X22023   2.161   6.982   6.552
  216QMPE   H6Y22024   2.267   6.927   6.420
  216QMPE   C3722025   2.161   7.090   6.360
  216QMPE   H7X22026   2.125   7.184   6.401
  216QMPE   H7Y22027   2.238   7.112   6.283
  216QMPE   C3822028   2.042   7.014   6.300
  216QMPE   H8X22029   2.061   6.904   6.300
  216QMPE   H8Y22030   1.954   7.029   6.366
  216QMPE   C3922031   2.010   7.062   6.157
  216QMPE   H9X22032   1.920   7.006   6.123
  216QMPE   H9Y22033   2.094   7.035   6.090
  216QMPE  C31022034   1.985   7.214   6.149
  216QMPE  H10X22035   2.078   7.272   6.167
  216QMPE  H10Y22036   1.914   7.239   6.231
  216QMPE  C31122037   1.925   7.265   6.017
  216QMPE  H11X22038   1.879   7.364   6.037
  216QMPE  H11Y22039   1.845   7.196   5.983
  216QMPE  C31222040   2.027   7.281   5.904
  216QMPE  H12X22041   2.085   7.188   5.891
  216QMPE  H12Y22042   2.104   7.356   5.936
  216QMPE  C31322043   1.961   7.310   5.766
  216QMPE  H13X22044   1.881   7.238   5.744
  216QMPE  H13Y22045   1.902   7.403   5.755
  216QMPE  C31422046   2.067   7.306   5.657
  216QMPE  H14X22047   2.101   7.201   5.649
  216QMPE  H14Y22048   2.158   7.360   5.692
  216QMPE  C31522049   2.015   7.357   5.523
  216QMPE  H15X22050   1.924   7.309   5.487
  216QMPE  H15Y22051   1.979   7.462   5.533
  216QMPE  H15Z22052   2.096   7.354   5.445
  217QMPE     N22053   7.013   1.594   7.684
  217QMPE   HN122054   6.948   1.535   7.628
  217QMPE   HN222055   7.083   1.528   7.724
  217QMPE   HN322056   6.962   1.641   7.761
  217QMPE   C1222057   7.075   1.691   7.588
  217QMPE  H12A22058   7.185   1.672   7.587
  217QMPE  H12B22059   7.059   1.794   7.626
  217QMPE   C1122060   7.023   1.672   7.443
  217QMPE  H11A22061   7.083   1.590   7.398
  217QMPE  H11B22062   7.044   1.765   7.385
  217QMPE     P22063   6.825   1.598   7.288
  217QMPE   O1322064   6.755   1.719   7.238
  217QMPE   O1422065   6.746   1.475   7.300
  217QMPE   O1122066   6.955   1.572   7.201
  217QMPE   O1222067   6.884   1.639   7.435
  217QMPE    C122068   7.014   1.671   7.115
  217QMPE    HA22069   7.123   1.674   7.137
  217QMPE    HB22070   6.972   1.773   7.132
  217QMPE    C222071   6.998   1.642   6.963
  217QMPE    HS22072   7.059   1.716   6.906
  217QMPE   O2122073   6.860   1.652   6.922
  217QMPE   C2122074   6.814   1.772   6.887
  217QMPE   O2222075   6.875   1.877   6.894
  217QMPE   C2222076   6.678   1.758   6.822
  217QMPE   H2R22077   6.665   1.834   6.742
  217QMPE   H2S22078   6.596   1.772   6.895
  217QMPE    C322079   7.055   1.501   6.930
  217QMPE    HX22080   6.999   1.423   6.984
  217QMPE    HY22081   7.160   1.496   6.968
  217QMPE   O3122082   7.048   1.469   6.790
  217QMPE   C3122083   7.160   1.491   6.723
  217QMPE   O3222084   7.254   1.560   6.759
  217QMPE   C3222085   7.151   1.414   6.592
  217QMPE   H2X22086   7.233   1.340   6.588
  217QMPE   H2Y22087   7.055   1.357   6.592
  217QMPE   C2322088   6.667   1.622   6.758
  217QMPE   H3R22089   6.665   1.538   6.833
  217QMPE   H3S22090   6.754   1.606   6.690
  217QMPE   C2422091   6.546   1.618   6.673
  217QMPE   H4R22092   6.548   1.701   6.598
  217QMPE   H4S22093   6.448   1.623   6.727
  217QMPE   C2522094   6.562   1.497   6.591
  217QMPE   H5R22095   6.530   1.405   6.649
  217QMPE   H5S22096   6.660   1.478   6.543
  217QMPE   C2622097   6.467   1.522   6.480
  217QMPE   H6R22098   6.376   1.537   6.546
  217QMPE   H6S22099   6.498   1.422   6.439
  217QMPE   C2722100   6.451   1.616   6.362
  217QMPE   H7R22101   6.546   1.605   6.309
  217QMPE   H7S22102   6.427   1.713   6.410
  217QMPE   C2822103   6.338   1.591   6.256
  217QMPE   H8R22104   6.235   1.581   6.296
  217QMPE   H8S22105   6.348   1.502   6.197
  217QMPE   C2922106   6.349   1.666   6.128
  217QMPE   H9R22107   6.346   1.771   6.133
  217QMPE  C21722108   6.289   1.604   6.004
  217QMPE  H17R22109   6.291   1.502   5.979
  217QMPE  H17S22110   6.223   1.666   5.948
  217QMPE  C21022111   6.440   1.617   6.019
  217QMPE  H10R22112   6.470   1.689   5.944
  217QMPE  C21122113   6.512   1.479   6.024
  217QMPE  H11R22114   6.605   1.490   6.083
  217QMPE  H11S22115   6.459   1.394   6.071
  217QMPE  C21222116   6.546   1.433   5.881
  217QMPE  H12R22117   6.612   1.345   5.893
  217QMPE  H12S22118   6.601   1.514   5.829
  217QMPE  C21322119   6.421   1.392   5.799
  217QMPE  H13R22120   6.350   1.477   5.797
  217QMPE  H13S22121   6.374   1.306   5.851
  217QMPE  C21422122   6.437   1.353   5.652
  217QMPE  H14R22123   6.432   1.443   5.588
  217QMPE  H14S22124   6.354   1.284   5.624
  217QMPE  C21522125   6.564   1.277   5.623
  217QMPE  H15R22126   6.578   1.199   5.701
  217QMPE  H15S22127   6.650   1.347   5.632
  217QMPE  C21622128   6.562   1.215   5.484
  217QMPE  H16R22129   6.470   1.179   5.440
  217QMPE  H16S22130   6.628   1.126   5.487
  217QMPE  H16T22131   6.602   1.289   5.411
  217QMPE   C3322132   7.157   1.513   6.475
  217QMPE   H3X22133   7.263   1.519   6.440
  217QMPE   H3Y22134   7.127   1.615   6.510
  217QMPE   C3422135   7.061   1.483   6.359
  217QMPE   H4X22136   6.957   1.476   6.396
  217QMPE   H4Y22137   7.089   1.388   6.309
  217QMPE   C3522138   7.067   1.592   6.252
  217QMPE   H5X22139   7.174   1.616   6.233
  217QMPE   H5Y22140   7.019   1.686   6.288
  217QMPE   C3622141   7.010   1.546   6.118
  217QMPE   H6X22142   6.904   1.513   6.123
  217QMPE   H6Y22143   7.070   1.459   6.084
  217QMPE   C3722144   7.029   1.655   6.012
  217QMPE   H7X22145   7.137   1.683   6.014
  217QMPE   H7Y22146   7.005   1.611   5.913
  217QMPE   C3822147   6.945   1.780   6.032
  217QMPE   H8X22148   6.919   1.802   6.138
  217QMPE   H8Y22149   7.004   1.868   5.996
  217QMPE   C3922150   6.815   1.768   5.953
  217QMPE   H9X22151   6.757   1.844   6.008
  217QMPE   H9Y22152   6.756   1.678   5.977
  217QMPE  C31022153   6.831   1.778   5.797
  217QMPE  H10X22154   6.893   1.696   5.760
  217QMPE  H10Y22155   6.894   1.864   5.767
  217QMPE  C31122156   6.699   1.778   5.715
  217QMPE  H11X22157   6.627   1.854   5.747
  217QMPE  H11Y22158   6.639   1.687   5.730
  217QMPE  C31222159   6.720   1.807   5.564
  217QMPE  H12X22160   6.810   1.869   5.538
  217QMPE  H12Y22161   6.631   1.841   5.513
  217QMPE  C31322162   6.717   1.687   5.488
  217QMPE  H13X22163   6.798   1.655   5.559
  217QMPE  H13Y22164   6.630   1.622   5.504
  217QMPE  C31422165   6.759   1.697   5.341
  217QMPE  H14X22166   6.687   1.739   5.273
  217QMPE  H14Y22167   6.760   1.597   5.290
  217QMPE  C31522168   6.901   1.750   5.329
  217QMPE  H15X22169   6.982   1.685   5.368
  217QMPE  H15Y22170   6.915   1.736   5.228
  217QMPE  H15Z22171   6.921   1.857   5.343
  218QMPE     N22172   1.651   0.801   7.468
  218QMPE   HN122173   1.755   0.793   7.456
  218QMPE   HN222174   1.625   0.902   7.467
  218QMPE   HN322175   1.619   0.760   7.559
  218QMPE   C1222176   1.578   0.736   7.354
  218QMPE  H12A22177   1.634   0.756   7.262
  218QMPE  H12B22178   1.478   0.785   7.346
  218QMPE   C1122179   1.565   0.584   7.374
  218QMPE  H11A22180   1.656   0.536   7.415
  218QMPE  H11B22181   1.554   0.537   7.273
  218QMPE     P22182   1.309   0.539   7.398
  218QMPE   O1322183   1.217   0.624   7.475
  218QMPE   O1422184   1.279   0.396   7.391
  218QMPE   O1122185   1.336   0.601   7.254
  218QMPE   O1222186   1.456   0.557   7.461
  218QMPE    C122187   1.235   0.660   7.172
  218QMPE    HA22188   1.226   0.767   7.201
  218QMPE    HB22189   1.136   0.611   7.186
  218QMPE    C222190   1.272   0.653   7.020
  218QMPE    HS22191   1.187   0.700   6.965
  218QMPE   O2122192   1.294   0.516   6.980
  218QMPE   C2122193   1.295   0.490   6.850
  218QMPE   O2222194   1.260   0.567   6.762
  218QMPE   C2222195   1.347   0.349   6.822
  218QMPE   H2R22196   1.266   0.288   6.779
  218QMPE   H2S22197   1.379   0.294   6.912
  218QMPE    C322198   1.401   0.737   6.998
  218QMPE    HX22199   1.479   0.689   7.061
  218QMPE    HY22200   1.381   0.840   7.036
  218QMPE   O3122201   1.451   0.734   6.863
  218QMPE   C3122202   1.497   0.848   6.818
  218QMPE   O3222203   1.480   0.957   6.868
  218QMPE   C3222204   1.584   0.821   6.698
  218QMPE   H2X22205   1.657   0.904   6.689
  218QMPE   H2Y22206   1.634   0.723   6.705
  218QMPE   C2322207   1.451   0.360   6.710
  218QMPE   H3R22208   1.532   0.434   6.732
  218QMPE   H3S22209   1.400   0.393   6.617
  218QMPE   C2422210   1.516   0.228   6.682
  218QMPE   H4R22211   1.438   0.152   6.662
  218QMPE   H4S22212   1.573   0.198   6.774
  218QMPE   C2522213   1.613   0.236   6.568
  218QMPE   H5R22214   1.567   0.254   6.468
  218QMPE   H5S22215   1.668   0.142   6.566
  218QMPE   C2622216   1.728   0.327   6.603
  218QMPE   H6R22217   1.765   0.304   6.706
  218QMPE   H6S22218   1.701   0.431   6.580
  218QMPE   C2722219   1.845   0.299   6.523
  218QMPE   H7R22220   1.849   0.189   6.541
  218QMPE   H7S22221   1.948   0.327   6.547
  218QMPE   C2822222   1.822   0.359   6.387
  218QMPE   H8R22223   1.730   0.407   6.357
  218QMPE   H8S22224   1.774   0.277   6.337
  218QMPE   C2922225   1.947   0.436   6.336
  218QMPE   H9R22226   2.051   0.402   6.356
  218QMPE  C21722227   1.908   0.580   6.335
  218QMPE  H17R22228   1.817   0.577   6.391
  218QMPE  H17S22229   1.974   0.657   6.359
  218QMPE  C21022230   1.937   0.513   6.206
  218QMPE  H10R22231   2.032   0.551   6.162
  218QMPE  C21122232   1.805   0.561   6.149
  218QMPE  H11R22233   1.721   0.540   6.213
  218QMPE  H11S22234   1.817   0.661   6.104
  218QMPE  C21222235   1.762   0.482   6.042
  218QMPE  H12R22236   1.660   0.460   6.003
  218QMPE  H12S22237   1.774   0.385   6.095
  218QMPE  C21322238   1.875   0.523   5.950
  218QMPE  H13R22239   1.802   0.464   5.888
  218QMPE  H13S22240   1.979   0.488   5.966
  218QMPE  C21422241   1.904   0.598   5.830
  218QMPE  H14R22242   1.945   0.549   5.735
  218QMPE  H14S22243   1.981   0.669   5.862
  218QMPE  C21522244   1.785   0.632   5.781
  218QMPE  H15R22245   1.722   0.652   5.868
  218QMPE  H15S22246   1.728   0.549   5.730
  218QMPE  C21622247   1.867   0.726   5.698
  218QMPE  H16R22248   1.895   0.829   5.715
  218QMPE  H16S22249   1.869   0.656   5.614
  218QMPE  H16T22250   1.817   0.792   5.632
  218QMPE   C3322251   1.499   0.815   6.574
  218QMPE   H3X22252   1.468   0.922   6.564
  218QMPE   H3Y22253   1.402   0.761   6.588
  218QMPE   C3422254   1.578   0.749   6.457
  218QMPE   H4X22255   1.686   0.757   6.476
  218QMPE   H4Y22256   1.582   0.796   6.358
  218QMPE   C3522257   1.536   0.606   6.421
  218QMPE   H5X22258   1.550   0.551   6.516
  218QMPE   H5Y22259   1.613   0.578   6.350
  218QMPE   C3622260   1.397   0.568   6.364
  218QMPE   H6X22261   1.316   0.616   6.423
  218QMPE   H6Y22262   1.391   0.458   6.378
  218QMPE   C3722263   1.360   0.573   6.213
  218QMPE   H7X22264   1.336   0.670   6.193
  218QMPE   H7Y22265   1.446   0.563   6.144
  218QMPE   C3822266   1.207   0.550   6.183
  218QMPE   H8X22267   1.199   0.444   6.202
  218QMPE   H8Y22268   1.147   0.614   6.253
  218QMPE   C3922269   1.135   0.572   6.050
  218QMPE   H9X22270   1.093   0.674   6.040
  218QMPE   H9Y22271   1.032   0.537   6.040
  218QMPE  C31022272   1.217   0.523   5.933
  218QMPE  H10X22273   1.322   0.560   5.911
  218QMPE  H10Y22274   1.155   0.521   5.841
  218QMPE  C31122275   1.273   0.402   5.941
  218QMPE  H11X22276   1.177   0.352   5.975
  218QMPE  H11Y22277   1.346   0.390   6.024
  218QMPE  C31222278   1.331   0.395   5.793
  218QMPE  H12X22279   1.287   0.376   5.692
  218QMPE  H12Y22280   1.250   0.344   5.798
  218QMPE  C31322281   1.474   0.359   5.804
  218QMPE  H13X22282   1.504   0.460   5.790
  218QMPE  H13Y22283   1.511   0.326   5.902
  218QMPE  C31422284   1.535   0.263   5.705
  218QMPE  H14X22285   1.531   0.164   5.767
  218QMPE  H14Y22286   1.478   0.333   5.638
  218QMPE  C31522287   1.487   0.213   5.573
  218QMPE  H15X22288   1.543   0.129   5.602
  218QMPE  H15Y22289   1.382   0.199   5.536
  218QMPE  H15Z22290   1.552   0.216   5.488
  219QMPE     N22291   1.936   7.728   7.512
  219QMPE   HN122292   1.844   7.778   7.517
  219QMPE   HN222293   1.944   7.672   7.424
  219QMPE   HN322294   1.950   7.667   7.596
  219QMPE   C1222295   2.037   7.839   7.501
  219QMPE  H12A22296   2.135   7.797   7.471
  219QMPE  H12B22297   2.051   7.883   7.599
  219QMPE   C1122298   1.989   7.948   7.406
  219QMPE  H11A22299   1.997   7.910   7.302
  219QMPE  H11B22300   2.059   8.035   7.414
  219QMPE     P22301   1.794   8.109   7.359
  219QMPE   O1322302   1.880   8.222   7.397
  219QMPE   O1422303   1.652   8.121   7.392
  219QMPE   O1122304   1.811   8.054   7.211
  219QMPE   O1222305   1.853   7.983   7.436
  219QMPE    C122306   1.739   7.935   7.178
  219QMPE    HA22307   1.647   7.939   7.224
  219QMPE    HB22308   1.767   7.843   7.232
  219QMPE    C222309   1.700   7.919   7.030
  219QMPE    HS22310   1.658   7.816   7.030
  219QMPE   O2122311   1.817   7.913   6.957
  219QMPE   C2122312   1.885   7.803   6.976
  219QMPE   O2222313   1.861   7.708   7.049
  219QMPE   C2222314   2.002   7.818   6.890
  219QMPE   H2R22315   2.080   7.743   6.911
  219QMPE   H2S22316   2.031   7.915   6.928
  219QMPE    C322317   1.604   8.029   6.962
  219QMPE    HX22318   1.653   8.127   6.971
  219QMPE    HY22319   1.504   8.050   7.001
  219QMPE   O3122320   1.542   7.992   6.838
  219QMPE   C3122321   1.602   8.027   6.733
  219QMPE   O3222322   1.709   8.085   6.729
  219QMPE   C3222323   1.508   7.990   6.617
  219QMPE   H2X22324   1.480   7.884   6.629
  219QMPE   H2Y22325   1.412   8.045   6.630
  219QMPE   C2322326   1.951   7.816   6.745
  219QMPE   H3R22327   1.885   7.905   6.723
  219QMPE   H3S22328   1.904   7.722   6.721
  219QMPE   C2422329   2.059   7.797   6.643
  219QMPE   H4R22330   2.166   7.776   6.664
  219QMPE   H4S22331   2.080   7.884   6.691
  219QMPE   C2522332   2.028   7.852   6.507
  219QMPE   H5R22333   1.958   7.939   6.487
  219QMPE   H5S22334   2.030   7.791   6.420
  219QMPE   C2622335   2.159   7.885   6.462
  219QMPE   H6R22336   2.263   7.874   6.502
  219QMPE   H6S22337   2.141   7.954   6.534
  219QMPE   C2722338   2.150   7.949   6.330
  219QMPE   H7R22339   2.233   7.907   6.279
  219QMPE   H7S22340   2.253   7.974   6.333
  219QMPE   C2822341   2.029   8.026   6.244
  219QMPE   H8R22342   1.935   7.982   6.245
  219QMPE   H8S22343   2.052   8.013   6.134
  219QMPE   C2922344   2.008   8.172   6.236
  219QMPE   H9R22345   2.073   8.252   6.223
  219QMPE  C21722346   1.925   8.193   6.347
  219QMPE  H17R22347   1.860   8.114   6.374
  219QMPE  H17S22348   1.989   8.242   6.419
  219QMPE  C21022349   1.905   8.259   6.211
  219QMPE  H10R22350   1.941   8.362   6.187
  219QMPE  C21122351   1.798   8.220   6.128
  219QMPE  H11R22352   1.777   8.120   6.154
  219QMPE  H11S22353   1.717   8.291   6.148
  219QMPE  C21222354   1.850   8.211   5.989
  219QMPE  H12R22355   1.775   8.166   5.924
  219QMPE  H12S22356   1.936   8.143   6.006
  219QMPE  C21322357   1.879   8.347   5.930
  219QMPE  H13R22358   1.946   8.397   6.005
  219QMPE  H13S22359   1.773   8.368   5.934
  219QMPE  C21422360   1.919   8.409   5.783
  219QMPE  H14R22361   2.020   8.424   5.758
  219QMPE  H14S22362   1.995   8.485   5.793
  219QMPE  C21522363   1.818   8.412   5.665
  219QMPE  H15R22364   1.733   8.456   5.705
  219QMPE  H15S22365   1.780   8.313   5.630
  219QMPE  C21622366   1.851   8.470   5.532
  219QMPE  H16R22367   1.919   8.388   5.532
  219QMPE  H16S22368   1.922   8.553   5.531
  219QMPE  H16T22369   1.830   8.417   5.436
  219QMPE   C3322370   1.564   8.016   6.475
  219QMPE   H3X22371   1.629   8.099   6.454
  219QMPE   H3Y22372   1.479   8.031   6.406
  219QMPE   C3422373   1.651   7.903   6.428
  219QMPE   H4X22374   1.569   7.834   6.425
  219QMPE   H4Y22375   1.735   7.878   6.497
  219QMPE   C3522376   1.688   7.909   6.282
  219QMPE   H5X22377   1.731   8.006   6.273
  219QMPE   H5Y22378   1.595   7.905   6.222
  219QMPE   C3622379   1.793   7.808   6.239
  219QMPE   H6X22380   1.777   7.714   6.271
  219QMPE   H6Y22381   1.880   7.807   6.304
  219QMPE   C3722382   1.814   7.794   6.089
  219QMPE   H7X22383   1.727   7.802   6.021
  219QMPE   H7Y22384   1.866   7.890   6.085
  219QMPE   C3822385   1.887   7.663   6.046
  219QMPE   H8X22386   1.953   7.642   6.122
  219QMPE   H8Y22387   1.839   7.567   6.041
  219QMPE   C3922388   1.957   7.677   5.917
  219QMPE   H9X22389   2.022   7.750   5.950
  219QMPE   H9Y22390   1.870   7.715   5.869
  219QMPE  C31022391   2.048   7.584   5.837
  219QMPE  H10X22392   1.984   7.508   5.870
  219QMPE  H10Y22393   2.142   7.539   5.872
  219QMPE  C31122394   2.099   7.625   5.696
  219QMPE  H11X22395   2.001   7.623   5.643
  219QMPE  H11Y22396   2.156   7.542   5.655
  219QMPE  C31222397   2.190   7.757   5.659
  219QMPE  H12X22398   2.144   7.847   5.683
  219QMPE  H12Y22399   2.196   7.807   5.563
  219QMPE  C31322400   2.343   7.752   5.671
  219QMPE  H13X22401   2.350   7.816   5.755
  219QMPE  H13Y22402   2.381   7.653   5.701
  219QMPE  C31422403   2.432   7.869   5.624
  219QMPE  H14X22404   2.464   7.845   5.523
  219QMPE  H14Y22405   2.519   7.875   5.696
  219QMPE  C31522406   2.366   8.007   5.625
  219QMPE  H15X22407   2.284   8.009   5.549
  219QMPE  H15Y22408   2.329   8.034   5.723
  219QMPE  H15Z22409   2.436   8.091   5.615
  220QMPE     N22410   7.767   3.046   7.485
  220QMPE   HN122411   7.692   3.094   7.535
  220QMPE   HN222412   7.857   3.063   7.536
  220QMPE   HN322413   7.783   3.090   7.390
  220QMPE   C1222414   7.737   2.897   7.479
  220QMPE  H12A22415   7.642   2.882   7.425
  220QMPE  H12B22416   7.732   2.859   7.583
  220QMPE   C1122417   7.840   2.815   7.406
  220QMPE  H11A22418   7.833   2.834   7.294
  220QMPE  H11B22419   7.828   2.705   7.416
  220QMPE     P22420   8.058   2.921   7.379
  220QMPE   O1322421   8.064   2.844   7.253
  220QMPE   O1422422   8.170   2.972   7.462
  220QMPE   O1122423   8.002   3.058   7.351
  220QMPE   O1222424   7.959   2.850   7.471
  220QMPE    C122425   8.090   3.130   7.264
  220QMPE    HA22426   8.196   3.115   7.284
  220QMPE    HB22427   8.085   3.239   7.287
  220QMPE    C222428   8.042   3.114   7.119
  220QMPE    HS22429   8.036   3.214   7.090
  220QMPE   O2122430   7.927   3.039   7.093
  220QMPE   C2122431   7.827   3.091   7.151
  220QMPE   O2222432   7.825   3.175   7.239
  220QMPE   C2222433   7.706   3.024   7.107
  220QMPE   H2R22434   7.648   3.011   7.199
  220QMPE   H2S22435   7.737   2.922   7.073
  220QMPE    C322436   8.134   3.059   7.018
  220QMPE    HX22437   8.178   2.973   7.057
  220QMPE    HY22438   8.195   3.152   7.027
  220QMPE   O3122439   8.108   3.041   6.878
  220QMPE   C3122440   8.100   2.919   6.832
  220QMPE   O3222441   8.118   2.814   6.890
  220QMPE   C3222442   8.075   2.934   6.683
  220QMPE   H2X22443   7.986   2.995   6.668
  220QMPE   H2Y22444   8.155   2.988   6.628
  220QMPE   C2322445   7.637   3.119   7.009
  220QMPE   H3R22446   7.698   3.158   6.925
  220QMPE   H3S22447   7.575   3.198   7.057
  220QMPE   C2422448   7.547   3.045   6.929
  220QMPE   H4R22449   7.482   3.104   6.859
  220QMPE   H4S22450   7.483   3.000   7.010
  220QMPE   C2522451   7.640   2.942   6.867
  220QMPE   H5R22452   7.599   2.866   6.923
  220QMPE   H5S22453   7.746   2.925   6.877
  220QMPE   C2622454   7.627   2.928   6.730
  220QMPE   H6R22455   7.648   3.022   6.684
  220QMPE   H6S22456   7.516   2.942   6.741
  220QMPE   C2722457   7.709   2.834   6.622
  220QMPE   H7R22458   7.631   2.770   6.622
  220QMPE   H7S22459   7.738   2.734   6.664
  220QMPE   C2822460   7.704   2.860   6.444
  220QMPE   H8R22461   7.736   2.754   6.435
  220QMPE   H8S22462   7.783   2.922   6.424
  220QMPE   C2922463   7.562   2.903   6.331
  220QMPE   H9R22464   7.445   2.885   6.342
  220QMPE  C21722465   7.501   2.874   6.204
  220QMPE  H17R22466   7.553   2.787   6.186
  220QMPE  H17S22467   7.384   2.885   6.181
  220QMPE  C21022468   7.549   2.994   6.236
  220QMPE  H10R22469   7.455   3.035   6.249
  220QMPE  C21122470   7.673   3.045   6.222
  220QMPE  H11R22471   7.700   3.098   6.312
  220QMPE  H11S22472   7.745   2.963   6.222
  220QMPE  C21222473   7.644   3.145   6.116
  220QMPE  H12R22474   7.745   3.161   6.095
  220QMPE  H12S22475   7.582   3.236   6.127
  220QMPE  C21322476   7.591   3.095   6.003
  220QMPE  H13R22477   7.499   3.050   6.035
  220QMPE  H13S22478   7.682   3.036   5.984
  220QMPE  C21422479   7.564   3.163   5.880
  220QMPE  H14R22480   7.515   3.260   5.884
  220QMPE  H14S22481   7.486   3.096   5.838
  220QMPE  C21522482   7.693   3.185   5.823
  220QMPE  H15R22483   7.768   3.102   5.825
  220QMPE  H15S22484   7.717   3.259   5.902
  220QMPE  C21622485   7.669   3.240   5.687
  220QMPE  H16R22486   7.601   3.327   5.693
  220QMPE  H16S22487   7.650   3.169   5.606
  220QMPE  H16T22488   7.764   3.270   5.653
  220QMPE   C3322489   8.061   2.800   6.618
  220QMPE   H3X22490   7.975   2.746   6.663
  220QMPE   H3Y22491   8.153   2.737   6.634
  220QMPE   C3422492   8.040   2.827   6.469
  220QMPE   H4X22493   8.135   2.862   6.424
  220QMPE   H4Y22494   7.960   2.899   6.450
  220QMPE   C3522495   8.000   2.704   6.398
  220QMPE   H5X22496   7.899   2.663   6.402
  220QMPE   H5Y22497   8.049   2.642   6.475
  220QMPE   C3622498   8.069   2.684   6.262
  220QMPE   H6X22499   8.050   2.585   6.211
  220QMPE   H6Y22500   8.174   2.695   6.291
  220QMPE   C3722501   8.039   2.766   6.145
  220QMPE   H7X22502   8.093   2.859   6.166
  220QMPE   H7Y22503   8.085   2.714   6.056
  220QMPE   C3822504   7.889   2.774   6.134
  220QMPE   H8X22505   7.841   2.778   6.234
  220QMPE   H8Y22506   7.873   2.873   6.088
  220QMPE   C3922507   7.833   2.653   6.059
  220QMPE   H9X22508   7.731   2.661   6.033
  220QMPE   H9Y22509   7.820   2.564   6.121
  220QMPE  C31022510   7.903   2.618   5.928
  220QMPE  H10X22511   7.846   2.532   5.889
  220QMPE  H10Y22512   8.000   2.570   5.939
  220QMPE  C31122513   7.923   2.734   5.831
  220QMPE  H11X22514   7.983   2.821   5.864
  220QMPE  H11Y22515   7.828   2.772   5.804
  220QMPE  C31222516   7.960   2.686   5.695
  220QMPE  H12X22517   7.869   2.637   5.676
  220QMPE  H12Y22518   8.030   2.605   5.684
  220QMPE  C31322519   7.976   2.789   5.592
  220QMPE  H13X22520   8.051   2.862   5.632
  220QMPE  H13Y22521   8.011   2.747   5.494
  220QMPE  C31422522   7.850   2.861   5.562
  220QMPE  H14X22523   7.816   2.928   5.645
  220QMPE  H14Y22524   7.763   2.828   5.501
  220QMPE  C31522525   7.899   2.938   5.461
  220QMPE  H15X22526   7.932   2.912   5.360
  220QMPE  H15Y22527   7.815   3.013   5.467
  220QMPE  H15Z22528   7.998   2.976   5.495
  221QMPE     N22529   2.835   4.332   3.699
  221QMPE   HN122530   2.831   4.228   3.700
  221QMPE   HN222531   2.874   4.362   3.607
  221QMPE   HN322532   2.897   4.366   3.774
  221QMPE   C1222533   2.698   4.394   3.715
  221QMPE  H12A22534   2.707   4.478   3.785
  221QMPE  H12B22535   2.630   4.319   3.760
  221QMPE   C1122536   2.638   4.435   3.579
  221QMPE  H11A22537   2.531   4.466   3.588
  221QMPE  H11B22538   2.638   4.344   3.515
  221QMPE     P22539   2.693   4.690   3.541
  221QMPE   O1322540   2.553   4.734   3.519
  221QMPE   O1422541   2.804   4.764   3.479
  221QMPE   O1122542   2.709   4.678   3.695
  221QMPE   O1222543   2.716   4.535   3.513
  221QMPE    C122544   2.805   4.762   3.752
  221QMPE    HA22545   2.775   4.866   3.740
  221QMPE    HB22546   2.895   4.753   3.690
  221QMPE    C222547   2.830   4.719   3.897
  221QMPE    HS22548   2.894   4.631   3.879
  221QMPE   O2122549   2.714   4.685   3.962
  221QMPE   C2122550   2.735   4.596   4.052
  221QMPE   O2222551   2.832   4.521   4.060
  221QMPE   C2222552   2.603   4.586   4.119
  221QMPE   H2R22553   2.528   4.647   4.063
  221QMPE   H2S22554   2.614   4.627   4.222
  221QMPE    C322555   2.894   4.826   3.988
  221QMPE    HX22556   2.916   4.914   3.929
  221QMPE    HY22557   2.980   4.813   3.957
  221QMPE   O3122558   2.938   4.820   4.127
  221QMPE   C3122559   3.018   4.738   4.191
  221QMPE   O3222560   3.073   4.636   4.155
  221QMPE   C3222561   3.022   4.758   4.335
  221QMPE   H2X22562   3.121   4.801   4.364
  221QMPE   H2Y22563   2.935   4.821   4.363
  221QMPE   C2322564   2.570   4.438   4.109
  221QMPE   H3R22565   2.641   4.385   4.175
  221QMPE   H3S22566   2.584   4.407   4.002
  221QMPE   C2422567   2.426   4.401   4.140
  221QMPE   H4R22568   2.405   4.298   4.109
  221QMPE   H4S22569   2.365   4.464   4.072
  221QMPE   C2522570   2.386   4.418   4.287
  221QMPE   H5R22571   2.281   4.381   4.302
  221QMPE   H5S22572   2.392   4.527   4.303
  221QMPE   C2622573   2.473   4.361   4.397
  221QMPE   H6R22574   2.428   4.384   4.496
  221QMPE   H6S22575   2.571   4.412   4.394
  221QMPE   C2722576   2.484   4.211   4.387
  221QMPE   H7R22577   2.513   4.177   4.286
  221QMPE   H7S22578   2.384   4.166   4.411
  221QMPE   C2822579   2.586   4.163   4.488
  221QMPE   H8R22580   2.676   4.228   4.481
  221QMPE   H8S22581   2.613   4.058   4.465
  221QMPE   C2922582   2.519   4.170   4.624
  221QMPE   H9R22583   2.415   4.135   4.632
  221QMPE  C21722584   2.553   4.287   4.716
  221QMPE  H17R22585   2.631   4.354   4.686
  221QMPE  H17S22586   2.473   4.312   4.784
  221QMPE  C21022587   2.610   4.147   4.740
  221QMPE  H10R22588   2.565   4.092   4.825
  221QMPE  C21122589   2.758   4.130   4.702
  221QMPE  H11R22590   2.781   4.021   4.677
  221QMPE  H11S22591   2.797   4.198   4.627
  221QMPE  C21222592   2.853   4.169   4.815
  221QMPE  H12R22593   2.957   4.144   4.812
  221QMPE  H12S22594   2.818   4.068   4.854
  221QMPE  C21322595   2.848   4.310   4.908
  221QMPE  H13R22596   2.737   4.309   4.887
  221QMPE  H13S22597   2.866   4.397   4.844
  221QMPE  C21422598   2.900   4.331   5.087
  221QMPE  H14R22599   2.892   4.426   5.142
  221QMPE  H14S22600   3.007   4.330   5.069
  221QMPE  C21522601   2.860   4.245   5.242
  221QMPE  H15R22602   2.889   4.142   5.265
  221QMPE  H15S22603   2.760   4.191   5.252
  221QMPE  C21622604   2.812   4.287   5.366
  221QMPE  H16R22605   2.902   4.272   5.429
  221QMPE  H16S22606   2.725   4.227   5.416
  221QMPE  H16T22607   2.777   4.386   5.335
  221QMPE   C3322608   3.011   4.614   4.378
  221QMPE   H3X22609   3.115   4.571   4.374
  221QMPE   H3Y22610   2.942   4.556   4.312
  221QMPE   C3422611   2.949   4.605   4.513
  221QMPE   H4X22612   2.997   4.681   4.578
  221QMPE   H4Y22613   2.975   4.503   4.548
  221QMPE   C3522614   2.798   4.627   4.504
  221QMPE   H5X22615   2.749   4.546   4.447
  221QMPE   H5Y22616   2.774   4.720   4.448
  221QMPE   C3622617   2.737   4.639   4.641
  221QMPE   H6X22618   2.793   4.719   4.696
  221QMPE   H6Y22619   2.751   4.547   4.701
  221QMPE   C3722620   2.586   4.666   4.625
  221QMPE   H7X22621   2.569   4.771   4.591
  221QMPE   H7Y22622   2.530   4.592   4.569
  221QMPE   C3822623   2.519   4.654   4.751
  221QMPE   H8X22624   2.407   4.675   4.754
  221QMPE   H8Y22625   2.535   4.561   4.808
  221QMPE   C3922626   2.589   4.770   4.805
  221QMPE   H9X22627   2.502   4.838   4.787
  221QMPE   H9Y22628   2.689   4.815   4.814
  221QMPE  C31022629   2.602   4.749   4.937
  221QMPE  H10X22630   2.493   4.714   4.938
  221QMPE  H10Y22631   2.567   4.855   4.956
  221QMPE  C31122632   2.708   4.672   5.068
  221QMPE  H11X22633   2.811   4.669   5.061
  221QMPE  H11Y22634   2.691   4.617   4.972
  221QMPE  C31222635   2.638   4.607   5.258
  221QMPE  H12X22636   2.610   4.689   5.326
  221QMPE  H12Y22637   2.709   4.554   5.311
  221QMPE  C31322638   2.459   4.545   5.310
  221QMPE  H13X22639   2.444   4.446   5.271
  221QMPE  H13Y22640   2.440   4.476   5.390
  221QMPE  C31422641   2.316   4.618   5.296
  221QMPE  H14X22642   2.288   4.628   5.186
  221QMPE  H14Y22643   2.326   4.717   5.346
  221QMPE  C31522644   2.189   4.569   5.352
  221QMPE  H15X22645   2.207   4.515   5.444
  221QMPE  H15Y22646   2.109   4.630   5.374
  221QMPE  H15Z22647   2.136   4.519   5.268
  222QMPE     N22648   1.615   3.669   3.511
  222QMPE   HN122649   1.644   3.763   3.544
  222QMPE   HN222650   1.557   3.682   3.425
  222QMPE   HN322651   1.563   3.619   3.586
  222QMPE   C1222652   1.734   3.587   3.475
  222QMPE  H12A22653   1.814   3.653   3.435
  222QMPE  H12B22654   1.703   3.514   3.397
  222QMPE   C1122655   1.787   3.506   3.592
  222QMPE  H11A22656   1.715   3.424   3.615
  222QMPE  H11B22657   1.806   3.568   3.683
  222QMPE     P22658   2.017   3.387   3.631
  222QMPE   O1322659   2.130   3.483   3.632
  222QMPE   O1422660   2.043   3.250   3.583
  222QMPE   O1122661   1.947   3.382   3.775
  222QMPE   O1222662   1.906   3.451   3.540
  222QMPE    C122663   2.015   3.306   3.878
  222QMPE    HA22664   2.126   3.312   3.867
  222QMPE    HB22665   1.987   3.198   3.873
  222QMPE    C222666   1.988   3.355   4.024
  222QMPE    HS22667   2.050   3.288   4.089
  222QMPE   O2122668   1.848   3.345   4.056
  222QMPE   C2122669   1.820   3.291   4.174
  222QMPE   O2222670   1.897   3.241   4.252
  222QMPE   C2222671   1.677   3.308   4.197
  222QMPE   H2R22672   1.622   3.288   4.103
  222QMPE   H2S22673   1.671   3.418   4.213
  222QMPE    C322674   2.035   3.502   4.041
  222QMPE    HX22675   1.961   3.565   3.989
  222QMPE    HY22676   2.134   3.518   3.992
  222QMPE   O3122677   2.036   3.544   4.178
  222QMPE   C3122678   2.139   3.506   4.250
  222QMPE   O3222679   2.244   3.464   4.207
  222QMPE   C3222680   2.103   3.521   4.396
  222QMPE   H2X22681   2.139   3.431   4.446
  222QMPE   H2Y22682   2.147   3.613   4.436
  222QMPE   C2322683   1.636   3.220   4.319
  222QMPE   H3R22684   1.539   3.245   4.367
  222QMPE   H3S22685   1.707   3.230   4.403
  222QMPE   C2422686   1.606   3.078   4.278
  222QMPE   H4R22687   1.697   3.031   4.238
  222QMPE   H4S22688   1.536   3.088   4.193
  222QMPE   C2522689   1.543   2.989   4.387
  222QMPE   H5R22690   1.531   2.893   4.338
  222QMPE   H5S22691   1.445   3.010   4.432
  222QMPE   C2622692   1.620   2.991   4.514
  222QMPE   H6R22693   1.561   2.945   4.595
  222QMPE   H6S22694   1.629   3.102   4.543
  222QMPE   C2722695   1.753   2.916   4.496
  222QMPE   H7R22696   1.813   2.944   4.407
  222QMPE   H7S22697   1.766   3.003   4.542
  222QMPE   C2822698   1.842   2.904   4.623
  222QMPE   H8R22699   1.915   2.826   4.600
  222QMPE   H8S22700   1.773   2.879   4.707
  222QMPE   C2922701   1.919   3.036   4.650
  222QMPE   H9R22702   1.867   3.131   4.626
  222QMPE  C21722703   2.045   3.024   4.565
  222QMPE  H17R22704   2.071   2.924   4.533
  222QMPE  H17S22705   2.068   3.113   4.509
  222QMPE  C21022706   2.048   3.044   4.715
  222QMPE  H10R22707   2.061   3.144   4.758
  222QMPE  C21122708   2.085   2.929   4.800
  222QMPE  H11R22709   2.094   2.832   4.744
  222QMPE  H11S22710   2.180   2.965   4.840
  222QMPE  C21222711   2.001   2.909   4.924
  222QMPE  H12R22712   2.059   2.836   4.988
  222QMPE  H12S22713   1.904   2.870   4.886
  222QMPE  C21322714   1.973   3.019   5.017
  222QMPE  H13R22715   1.914   3.094   4.960
  222QMPE  H13S22716   2.072   3.055   5.049
  222QMPE  C21422717   1.894   2.975   5.140
  222QMPE  H14R22718   1.940   2.887   5.193
  222QMPE  H14S22719   1.789   2.952   5.107
  222QMPE  C21522720   1.875   3.087   5.235
  222QMPE  H15R22721   1.801   3.056   5.313
  222QMPE  H15S22722   1.831   3.166   5.171
  222QMPE  C21622723   2.005   3.131   5.299
  222QMPE  H16R22724   2.086   3.150   5.224
  222QMPE  H16S22725   2.042   3.055   5.371
  222QMPE  H16T22726   1.985   3.227   5.351
  222QMPE   C3322727   1.953   3.514   4.426
  222QMPE   H3X22728   1.923   3.407   4.416
  222QMPE   H3Y22729   1.897   3.574   4.352
  222QMPE   C3422730   1.915   3.560   4.566
  222QMPE   H4X22731   1.944   3.666   4.580
  222QMPE   H4Y22732   1.970   3.500   4.642
  222QMPE   C3522733   1.763   3.541   4.577
  222QMPE   H5X22734   1.742   3.433   4.561
  222QMPE   H5Y22735   1.712   3.598   4.497
  222QMPE   C3622736   1.704   3.587   4.710
  222QMPE   H6X22737   1.594   3.600   4.713
  222QMPE   H6Y22738   1.744   3.687   4.736
  222QMPE   C3722739   1.728   3.481   4.811
  222QMPE   H7X22740   1.664   3.391   4.790
  222QMPE   H7Y22741   1.835   3.451   4.813
  222QMPE   C3822742   1.699   3.532   4.947
  222QMPE   H8X22743   1.746   3.628   4.974
  222QMPE   H8Y22744   1.588   3.550   4.952
  222QMPE   C3922745   1.761   3.432   5.037
  222QMPE   H9X22746   1.841   3.458   5.109
  222QMPE   H9Y22747   1.772   3.325   4.995
  222QMPE  C31022748   1.658   3.426   5.132
  222QMPE  H10X22749   1.689   3.336   5.196
  222QMPE  H10Y22750   1.606   3.336   5.083
  222QMPE  C31122751   1.572   3.573   5.212
  222QMPE  H11X22752   1.559   3.681   5.207
  222QMPE  H11Y22753   1.667   3.587   5.218
  222QMPE  C31222754   1.500   3.574   5.384
  222QMPE  H12X22755   1.379   3.567   5.332
  222QMPE  H12Y22756   1.438   3.658   5.423
  222QMPE  C31322757   1.570   3.391   5.516
  222QMPE  H13X22758   1.510   3.331   5.593
  222QMPE  H13Y22759   1.570   3.274   5.466
  222QMPE  C31422760   1.690   3.359   5.533
  222QMPE  H14X22761   1.655   3.453   5.573
  222QMPE  H14Y22762   1.741   3.378   5.444
  222QMPE  C31522763   1.732   3.254   5.631
  222QMPE  H15X22764   1.776   3.181   5.560
  222QMPE  H15Y22765   1.809   3.294   5.698
  222QMPE  H15Z22766   1.649   3.223   5.698
  223QMPE     N22767   4.149   5.843   3.718
  223QMPE   HN122768   4.112   5.752   3.753
  223QMPE   HN222769   4.220   5.878   3.786
  223QMPE   HN322770   4.079   5.918   3.706
  223QMPE   C1222771   4.220   5.823   3.587
  223QMPE  H12A22772   4.257   5.921   3.553
  223QMPE  H12B22773   4.149   5.778   3.513
  223QMPE   C1122774   4.335   5.726   3.604
  223QMPE  H11A22775   4.403   5.753   3.688
  223QMPE  H11B22776   4.396   5.737   3.510
  223QMPE     P22777   4.364   5.477   3.558
  223QMPE   O1322778   4.376   5.488   3.411
  223QMPE   O1422779   4.328   5.346   3.613
  223QMPE   O1122780   4.502   5.520   3.619
  223QMPE   O1222781   4.277   5.596   3.620
  223QMPE    C122782   4.580   5.430   3.692
  223QMPE    HA22783   4.683   5.465   3.673
  223QMPE    HB22784   4.563   5.326   3.657
  223QMPE    C222785   4.561   5.440   3.844
  223QMPE    HS22786   4.452   5.421   3.863
  223QMPE   O2122787   4.610   5.568   3.881
  223QMPE   C2122788   4.518   5.651   3.919
  223QMPE   O2222789   4.399   5.631   3.930
  223QMPE   C2222790   4.586   5.779   3.961
  223QMPE   H2R22791   4.514   5.861   3.943
  223QMPE   H2S22792   4.677   5.795   3.898
  223QMPE    C322793   4.643   5.336   3.925
  223QMPE    HX22794   4.748   5.354   3.897
  223QMPE    HY22795   4.606   5.237   3.889
  223QMPE   O3122796   4.631   5.345   4.068
  223QMPE   C3122797   4.729   5.413   4.129
  223QMPE   O3222798   4.837   5.440   4.081
  223QMPE   C3222799   4.685   5.454   4.268
  223QMPE   H2X22800   4.765   5.516   4.312
  223QMPE   H2Y22801   4.589   5.509   4.255
  223QMPE   C2322802   4.623   5.764   4.110
  223QMPE   H3R22803   4.703   5.686   4.116
  223QMPE   H3S22804   4.534   5.727   4.166
  223QMPE   C2422805   4.670   5.893   4.178
  223QMPE   H4R22806   4.590   5.970   4.171
  223QMPE   H4S22807   4.760   5.930   4.124
  223QMPE   C2522808   4.708   5.876   4.326
  223QMPE   H5R22809   4.767   5.967   4.353
  223QMPE   H5S22810   4.773   5.787   4.338
  223QMPE   C2622811   4.588   5.871   4.424
  223QMPE   H6R22812   4.522   5.784   4.404
  223QMPE   H6S22813   4.527   5.962   4.405
  223QMPE   C2722814   4.632   5.878   4.573
  223QMPE   H7R22815   4.708   5.959   4.580
  223QMPE   H7S22816   4.681   5.784   4.607
  223QMPE   C2822817   4.520   5.914   4.672
  223QMPE   H8R22818   4.460   5.999   4.633
  223QMPE   H8S22819   4.569   5.948   4.766
  223QMPE   C2922820   4.441   5.787   4.707
  223QMPE   H9R22821   4.497   5.708   4.760
  223QMPE  C21722822   4.335   5.744   4.606
  223QMPE  H17R22823   4.316   5.817   4.529
  223QMPE  H17S22824   4.338   5.637   4.591
  223QMPE  C21022825   4.296   5.786   4.747
  223QMPE  H10R22826   4.269   5.704   4.815
  223QMPE  C21122827   4.242   5.923   4.779
  223QMPE  H11R22828   4.225   5.989   4.692
  223QMPE  H11S22829   4.143   5.910   4.820
  223QMPE  C21222830   4.309   5.985   4.901
  223QMPE  H12R22831   4.417   5.973   4.905
  223QMPE  H12S22832   4.279   5.924   4.989
  223QMPE  C21322833   4.267   6.132   4.908
  223QMPE  H13R22834   4.157   6.134   4.885
  223QMPE  H13S22835   4.320   6.190   4.832
  223QMPE  C21422836   4.281   6.204   5.041
  223QMPE  H14R22837   4.201   6.144   5.081
  223QMPE  H14S22838   4.248   6.307   5.047
  223QMPE  C21522839   4.410   6.195   5.120
  223QMPE  H15R22840   4.502   6.201   5.062
  223QMPE  H15S22841   4.404   6.097   5.138
  223QMPE  C21622842   4.416   6.251   5.262
  223QMPE  H16R22843   4.377   6.354   5.259
  223QMPE  H16S22844   4.521   6.250   5.298
  223QMPE  H16T22845   4.356   6.192   5.336
  223QMPE   C3322846   4.659   5.337   4.361
  223QMPE   H3X22847   4.746   5.270   4.371
  223QMPE   H3Y22848   4.572   5.290   4.314
  223QMPE   C3422849   4.604   5.370   4.498
  223QMPE   H4X22850   4.517   5.438   4.480
  223QMPE   H4Y22851   4.681   5.424   4.557
  223QMPE   C3522852   4.558   5.240   4.566
  223QMPE   H5X22853   4.645   5.182   4.602
  223QMPE   H5Y22854   4.509   5.176   4.489
  223QMPE   C3622855   4.459   5.260   4.680
  223QMPE   H6X22856   4.427   5.159   4.714
  223QMPE   H6Y22857   4.368   5.311   4.640
  223QMPE   C3722858   4.515   5.335   4.801
  223QMPE   H7X22859   4.612   5.290   4.830
  223QMPE   H7Y22860   4.534   5.442   4.777
  223QMPE   C3822861   4.420   5.324   4.921
  223QMPE   H8X22862   4.335   5.395   4.908
  223QMPE   H8Y22863   4.378   5.221   4.927
  223QMPE   C3922864   4.488   5.349   5.053
  223QMPE   H9X22865   4.574   5.283   5.068
  223QMPE   H9Y22866   4.417   5.344   5.140
  223QMPE  C31022867   4.554   5.478   5.058
  223QMPE  H10X22868   4.623   5.506   4.975
  223QMPE  H10Y22869   4.616   5.480   5.152
  223QMPE  C31122870   4.444   5.573   5.071
  223QMPE  H11X22871   4.369   5.565   5.152
  223QMPE  H11Y22872   4.389   5.592   4.973
  223QMPE  C31222873   4.539   5.670   5.126
  223QMPE  H12X22874   4.464   5.727   5.068
  223QMPE  H12Y22875   4.604   5.714   5.046
  223QMPE  C31322876   4.571   5.675   5.302
  223QMPE  H13X22877   4.650   5.603   5.307
  223QMPE  H13Y22878   4.641   5.744   5.360
  223QMPE  C31422879   4.479   5.736   5.425
  223QMPE  H14X22880   4.418   5.831   5.416
  223QMPE  H14Y22881   4.529   5.770   5.519
  223QMPE  C31522882   4.376   5.634   5.439
  223QMPE  H15X22883   4.300   5.645   5.358
  223QMPE  H15Y22884   4.437   5.542   5.421
  223QMPE  H15Z22885   4.332   5.641   5.540
  224QMPE     N22886   5.836   5.293   3.519
  224QMPE   HN122887   5.772   5.349   3.459
  224QMPE   HN222888   5.924   5.269   3.468
  224QMPE   HN322889   5.788   5.207   3.553
  224QMPE   C1222890   5.869   5.377   3.639
  224QMPE  H12A22891   5.945   5.323   3.698
  224QMPE  H12B22892   5.776   5.386   3.700
  224QMPE   C1122893   5.917   5.517   3.594
  224QMPE  H11A22894   6.007   5.507   3.530
  224QMPE  H11B22895   5.954   5.574   3.683
  224QMPE     P22896   5.703   5.670   3.599
  224QMPE   O1322897   5.594   5.577   3.631
  224QMPE   O1422898   5.663   5.790   3.522
  224QMPE   O1122899   5.779   5.706   3.733
  224QMPE   O1222900   5.815   5.587   3.521
  224QMPE    C122901   5.716   5.793   3.827
  224QMPE    HA22902   5.616   5.777   3.816
  224QMPE    HB22903   5.724   5.901   3.804
  224QMPE    C222904   5.734   5.755   3.977
  224QMPE    HS22905   5.713   5.845   4.041
  224QMPE   O2122906   5.866   5.708   3.996
  224QMPE   C2122907   5.963   5.788   3.954
  224QMPE   O2222908   5.952   5.904   3.921
  224QMPE   C2222909   6.093   5.713   3.976
  224QMPE   H2R22910   6.150   5.716   3.881
  224QMPE   H2S22911   6.074   5.606   4.001
  224QMPE    C322912   5.638   5.641   4.026
  224QMPE    HX22913   5.680   5.544   3.997
  224QMPE    HY22914   5.539   5.639   3.985
  224QMPE   O3122915   5.623   5.649   4.166
  224QMPE   C3122916   5.513   5.603   4.220
  224QMPE   O3222917   5.423   5.540   4.167
  224QMPE   C3222918   5.523   5.650   4.360
  224QMPE   H2X22919   5.631   5.660   4.386
  224QMPE   H2Y22920   5.473   5.749   4.367
  224QMPE   C2322921   6.174   5.784   4.086
  224QMPE   H3R22922   6.149   5.893   4.091
  224QMPE   H3S22923   6.281   5.774   4.057
  224QMPE   C2422924   6.156   5.725   4.227
  224QMPE   H4R22925   6.230   5.772   4.296
  224QMPE   H4S22926   6.179   5.617   4.218
  224QMPE   C2522927   6.017   5.750   4.287
  224QMPE   H5R22928   5.940   5.701   4.224
  224QMPE   H5S22929   5.997   5.860   4.288
  224QMPE   C2622930   6.000   5.695   4.429
  224QMPE   H6R22931   5.895   5.712   4.460
  224QMPE   H6S22932   6.064   5.749   4.502
  224QMPE   C2722933   6.027   5.544   4.433
  224QMPE   H7R22934   6.121   5.516   4.383
  224QMPE   H7S22935   5.944   5.495   4.376
  224QMPE   C2822936   6.036   5.494   4.578
  224QMPE   H8R22937   5.933   5.505   4.620
  224QMPE   H8S22938   6.107   5.554   4.637
  224QMPE   C2922939   6.092   5.354   4.591
  224QMPE   H9R22940   6.189   5.324   4.549
  224QMPE  C21722941   5.990   5.266   4.532
  224QMPE  H17R22942   5.890   5.304   4.527
  224QMPE  H17S22943   6.028   5.183   4.473
  224QMPE  C21022944   6.025   5.256   4.683
  224QMPE  H10R22945   6.083   5.166   4.711
  224QMPE  C21122946   5.921   5.304   4.789
  224QMPE  H11R22947   5.841   5.365   4.743
  224QMPE  H11S22948   5.869   5.220   4.839
  224QMPE  C21222949   5.983   5.377   4.906
  224QMPE  H12R22950   6.021   5.473   4.867
  224QMPE  H12S22951   6.064   5.315   4.950
  224QMPE  C21322952   5.876   5.404   5.013
  224QMPE  H13R22953   5.846   5.302   5.042
  224QMPE  H13S22954   5.788   5.453   4.967
  224QMPE  C21422955   5.932   5.486   5.131
  224QMPE  H14R22956   5.960   5.586   5.092
  224QMPE  H14S22957   6.025   5.439   5.169
  224QMPE  C21522958   5.842   5.509   5.253
  224QMPE  H15R22959   5.888   5.584   5.320
  224QMPE  H15S22960   5.854   5.417   5.315
  224QMPE  C21622961   5.694   5.548   5.223
  224QMPE  H16R22962   5.633   5.553   5.316
  224QMPE  H16S22963   5.643   5.474   5.158
  224QMPE  H16T22964   5.681   5.637   5.161
  224QMPE   C3322965   5.461   5.559   4.461
  224QMPE   H3X22966   5.492   5.452   4.464
  224QMPE   H3Y22967   5.355   5.560   4.435
  224QMPE   C3422968   5.485   5.627   4.593
  224QMPE   H4X22969   5.452   5.550   4.663
  224QMPE   H4Y22970   5.428   5.722   4.601
  224QMPE   C3522971   5.626   5.626   4.647
  224QMPE   H5X22972   5.692   5.686   4.583
  224QMPE   H5Y22973   5.651   5.517   4.648
  224QMPE   C3622974   5.641   5.667   4.794
  224QMPE   H6X22975   5.732   5.627   4.840
  224QMPE   H6Y22976   5.573   5.598   4.836
  224QMPE   C3722977   5.608   5.813   4.833
  224QMPE   H7X22978   5.524   5.856   4.774
  224QMPE   H7Y22979   5.579   5.824   4.940
  224QMPE   C3822980   5.729   5.898   4.807
  224QMPE   H8X22981   5.751   5.890   4.698
  224QMPE   H8Y22982   5.708   6.004   4.833
  224QMPE   C3922983   5.850   5.846   4.883
  224QMPE   H9X22984   5.892   5.761   4.823
  224QMPE   H9Y22985   5.826   5.802   4.982
  224QMPE  C31022986   5.952   5.959   4.894
  224QMPE  H10X22987   5.965   5.989   5.000
  224QMPE  H10Y22988   5.915   6.048   4.838
  224QMPE  C31122989   6.081   5.917   4.828
  224QMPE  H11X22990   6.144   6.004   4.803
  224QMPE  H11Y22991   6.059   5.878   4.726
  224QMPE  C31222992   6.153   5.806   4.907
  224QMPE  H12X22993   6.246   5.802   4.849
  224QMPE  H12Y22994   6.102   5.709   4.897
  224QMPE  C31322995   6.175   5.823   5.058
  224QMPE  H13X22996   6.261   5.891   5.071
  224QMPE  H13Y22997   6.085   5.856   5.112
  224QMPE  C31422998   6.235   5.716   5.147
  224QMPE  H14X22999   6.306   5.684   5.071
  224QMPE  H14Y23000   6.181   5.623   5.160
  224QMPE  C31523001   6.293   5.766   5.283
  224QMPE  H15X23002   6.221   5.795   5.360
  224QMPE  H15Y23003   6.358   5.688   5.329
  224QMPE  H15Z23004   6.362   5.852   5.268
  225QMPE     N23005   1.979   2.034   3.502
  225QMPE   HN123006   1.893   2.065   3.552
  225QMPE   HN223007   2.053   2.012   3.574
  225QMPE   HN323008   2.011   2.104   3.435
  225QMPE   C1223009   1.942   1.912   3.422
  225QMPE  H12A23010   2.036   1.858   3.399
  225QMPE  H12B23011   1.896   1.945   3.326
  225QMPE   C1123012   1.839   1.829   3.499
  225QMPE  H11A23013   1.818   1.732   3.448
  225QMPE  H11B23014   1.742   1.883   3.500
  225QMPE     P23015   1.980   1.698   3.673
  225QMPE   O1323016   1.974   1.684   3.819
  225QMPE   O1423017   2.105   1.736   3.606
  225QMPE   O1123018   1.917   1.578   3.593
  225QMPE   O1223019   1.879   1.814   3.635
  225QMPE    C123020   1.963   1.446   3.621
  225QMPE    HA23021   2.072   1.433   3.617
  225QMPE    HB23022   1.934   1.382   3.533
  225QMPE    C223023   1.887   1.380   3.741
  225QMPE    HS23024   1.825   1.329   3.672
  225QMPE   O2123025   1.807   1.466   3.819
  225QMPE   C2123026   1.692   1.493   3.773
  225QMPE   O2223027   1.643   1.463   3.666
  225QMPE   C2223028   1.628   1.582   3.879
  225QMPE   H2R23029   1.536   1.619   3.838
  225QMPE   H2S23030   1.691   1.673   3.880
  225QMPE    C323031   1.960   1.301   3.852
  225QMPE    HX23032   2.042   1.240   3.803
  225QMPE    HY23033   1.907   1.228   3.916
  225QMPE   O3123034   2.010   1.403   3.935
  225QMPE   C3123035   1.990   1.480   4.047
  225QMPE   O3223036   1.898   1.457   4.120
  225QMPE   C3223037   2.130   1.556   4.113
  225QMPE   H2X23038   2.226   1.534   4.066
  225QMPE   H2Y23039   2.120   1.660   4.088
  225QMPE   C2323040   1.618   1.520   4.021
  225QMPE   H3R23041   1.714   1.480   4.040
  225QMPE   H3S23042   1.557   1.429   4.030
  225QMPE   C2423043   1.590   1.615   4.137
  225QMPE   H4R23044   1.587   1.554   4.231
  225QMPE   H4S23045   1.490   1.658   4.117
  225QMPE   C2523046   1.690   1.728   4.162
  225QMPE   H5R23047   1.683   1.798   4.076
  225QMPE   H5S23048   1.795   1.691   4.166
  225QMPE   C2623049   1.655   1.808   4.290
  225QMPE   H6R23050   1.543   1.809   4.299
  225QMPE   H6S23051   1.688   1.912   4.274
  225QMPE   C2723052   1.718   1.756   4.420
  225QMPE   H7R23053   1.828   1.760   4.415
  225QMPE   H7S23054   1.694   1.648   4.432
  225QMPE   C2823055   1.668   1.827   4.547
  225QMPE   H8R23056   1.712   1.777   4.639
  225QMPE   H8S23057   1.560   1.834   4.564
  225QMPE   C2923058   1.672   1.969   4.547
  225QMPE   H9R23059   1.658   2.032   4.457
  225QMPE  C21723060   1.804   1.978   4.600
  225QMPE  H17R23061   1.859   1.909   4.664
  225QMPE  H17S23062   1.847   2.017   4.508
  225QMPE  C21023063   1.687   2.035   4.676
  225QMPE  H10R23064   1.680   2.145   4.676
  225QMPE  C21123065   1.668   1.957   4.806
  225QMPE  H11R23066   1.744   1.879   4.829
  225QMPE  H11S23067   1.675   2.015   4.898
  225QMPE  C21223068   1.523   1.940   4.825
  225QMPE  H12R23069   1.493   1.865   4.753
  225QMPE  H12S23070   1.477   2.040   4.803
  225QMPE  C21323071   1.497   1.910   4.969
  225QMPE  H13R23072   1.585   1.858   5.017
  225QMPE  H13S23073   1.410   1.845   4.977
  225QMPE  C21423074   1.468   2.037   5.046
  225QMPE  H14R23075   1.374   2.087   5.017
  225QMPE  H14S23076   1.546   2.117   5.041
  225QMPE  C21523077   1.460   1.984   5.185
  225QMPE  H15R23078   1.460   2.090   5.221
  225QMPE  H15S23079   1.496   2.007   5.285
  225QMPE  C21623080   1.376   1.864   5.223
  225QMPE  H16R23081   1.391   1.850   5.333
  225QMPE  H16S23082   1.381   1.767   5.175
  225QMPE  H16T23083   1.274   1.889   5.193
  225QMPE   C3323084   2.225   1.519   4.238
  225QMPE   H3X23085   2.329   1.492   4.218
  225QMPE   H3Y23086   2.250   1.419   4.261
  225QMPE   C3423087   2.158   1.537   4.366
  225QMPE   H4X23088   2.064   1.479   4.358
  225QMPE   H4Y23089   2.133   1.643   4.365
  225QMPE   C3523090   2.247   1.492   4.481
  225QMPE   H5X23091   2.326   1.569   4.487
  225QMPE   H5Y23092   2.304   1.399   4.464
  225QMPE   C3623093   2.166   1.464   4.606
  225QMPE   H6X23094   2.234   1.419   4.681
  225QMPE   H6Y23095   2.088   1.387   4.584
  225QMPE   C3723096   2.100   1.588   4.664
  225QMPE   H7X23097   2.182   1.660   4.685
  225QMPE   H7Y23098   2.030   1.635   4.591
  225QMPE   C3823099   2.021   1.554   4.791
  225QMPE   H8X23100   1.928   1.499   4.763
  225QMPE   H8Y23101   2.084   1.487   4.853
  225QMPE   C3923102   1.980   1.677   4.872
  225QMPE   H9X23103   1.903   1.735   4.817
  225QMPE   H9Y23104   2.071   1.740   4.886
  225QMPE  C31023105   1.929   1.639   5.010
  225QMPE  H10X23106   2.007   1.574   5.056
  225QMPE  H10Y23107   1.833   1.582   5.009
  225QMPE  C31123108   1.916   1.752   5.110
  225QMPE  H11X23109   1.822   1.809   5.088
  225QMPE  H11Y23110   2.000   1.824   5.099
  225QMPE  C31223111   1.921   1.682   5.247
  225QMPE  H12X23112   2.014   1.625   5.261
  225QMPE  H12Y23113   1.830   1.617   5.254
  225QMPE  C31323114   1.929   1.763   5.371
  225QMPE  H13X23115   1.824   1.753   5.398
  225QMPE  H13Y23116   1.948   1.724   5.472
  225QMPE  C31423117   1.998   1.896   5.354
  225QMPE  H14X23118   1.980   1.958   5.271
  225QMPE  H14Y23119   2.106   1.894   5.338
  225QMPE  C31523120   1.950   1.965   5.470
  225QMPE  H15X23121   1.969   2.059   5.512
  225QMPE  H15Y23122   1.888   2.055   5.455
  225QMPE  H15Z23123   1.925   1.901   5.549
  226QMPE     N23124   5.828   6.334   3.303
  226QMPE   HN123125   5.907   6.386   3.261
  226QMPE   HN223126   5.780   6.273   3.234
  226QMPE   HN323127   5.759   6.402   3.341
  226QMPE   C1223128   5.887   6.259   3.420
  226QMPE  H12A23129   5.960   6.186   3.382
  226QMPE  H12B23130   5.804   6.208   3.473
  226QMPE   C1123131   5.954   6.358   3.517
  226QMPE  H11A23132   6.029   6.418   3.464
  226QMPE  H11B23133   6.014   6.306   3.595
  226QMPE     P23134   5.798   6.418   3.715
  226QMPE   O1323135   5.896   6.463   3.816
  226QMPE   O1423136   5.750   6.280   3.721
  226QMPE   O1123137   5.674   6.514   3.705
  226QMPE   O1223138   5.856   6.447   3.568
  226QMPE    C123139   5.689   6.652   3.676
  226QMPE    HA23140   5.614   6.686   3.601
  226QMPE    HB23141   5.789   6.680   3.636
  226QMPE    C223142   5.667   6.735   3.802
  226QMPE    HS23143   5.681   6.840   3.778
  226QMPE   O2123144   5.735   6.699   3.919
  226QMPE   C2123145   5.862   6.706   3.909
  226QMPE   O2223146   5.925   6.744   3.810
  226QMPE   C2223147   5.896   6.713   4.060
  226QMPE   H2R23148   5.917   6.610   4.088
  226QMPE   H2S23149   5.812   6.761   4.118
  226QMPE    C323150   5.529   6.730   3.844
  226QMPE    HX23151   5.475   6.764   3.758
  226QMPE    HY23152   5.523   6.803   3.928
  226QMPE   O3123153   5.479   6.602   3.871
  226QMPE   C3123154   5.465   6.581   3.996
  226QMPE   O3223155   5.468   6.661   4.088
  226QMPE   C3223156   5.439   6.439   4.012
  226QMPE   H2X23157   5.328   6.424   4.015
  226QMPE   H2Y23158   5.471   6.384   3.921
  226QMPE   C2323159   6.017   6.788   4.107
  226QMPE   H3R23160   5.967   6.874   4.161
  226QMPE   H3S23161   6.090   6.811   4.026
  226QMPE   C2423162   6.096   6.737   4.218
  226QMPE   H4R23163   6.191   6.794   4.238
  226QMPE   H4S23164   6.129   6.645   4.172
  226QMPE   C2523165   6.003   6.734   4.337
  226QMPE   H5R23166   5.955   6.638   4.321
  226QMPE   H5S23167   5.910   6.792   4.329
  226QMPE   C2623168   6.068   6.753   4.473
  226QMPE   H6R23169   5.993   6.723   4.548
  226QMPE   H6S23170   6.109   6.854   4.496
  226QMPE   C2723171   6.181   6.659   4.480
  226QMPE   H7R23172   6.245   6.675   4.569
  226QMPE   H7S23173   6.241   6.679   4.391
  226QMPE   C2823174   6.136   6.521   4.450
  226QMPE   H8R23175   6.092   6.512   4.348
  226QMPE   H8S23176   6.060   6.497   4.525
  226QMPE   C2923177   6.253   6.434   4.440
  226QMPE   H9R23178   6.336   6.472   4.386
  226QMPE  C21723179   6.209   6.290   4.435
  226QMPE  H17R23180   6.107   6.276   4.464
  226QMPE  H17S23181   6.263   6.238   4.356
  226QMPE  C21023182   6.295   6.346   4.548
  226QMPE  H10R23183   6.393   6.296   4.539
  226QMPE  C21123184   6.230   6.391   4.681
  226QMPE  H11R23185   6.127   6.423   4.678
  226QMPE  H11S23186   6.204   6.292   4.718
  226QMPE  C21223187   6.318   6.496   4.763
  226QMPE  H12R23188   6.345   6.582   4.699
  226QMPE  H12S23189   6.416   6.450   4.755
  226QMPE  C21323190   6.302   6.532   4.922
  226QMPE  H13R23191   6.198   6.572   4.919
  226QMPE  H13S23192   6.370   6.617   4.942
  226QMPE  C21423193   6.307   6.444   5.063
  226QMPE  H14R23194   6.346   6.349   5.044
  226QMPE  H14S23195   6.210   6.437   5.110
  226QMPE  C21523196   6.415   6.370   5.157
  226QMPE  H15R23197   6.410   6.472   5.147
  226QMPE  H15S23198   6.516   6.321   5.143
  226QMPE  C21623199   6.408   6.320   5.292
  226QMPE  H16R23200   6.320   6.369   5.335
  226QMPE  H16S23201   6.502   6.324   5.350
  226QMPE  H16T23202   6.407   6.214   5.258
  226QMPE   C3323203   5.510   6.404   4.145
  226QMPE   H3X23204   5.487   6.312   4.198
  226QMPE   H3Y23205   5.474   6.467   4.228
  226QMPE   C3423206   5.656   6.369   4.122
  226QMPE   H4X23207   5.703   6.458   4.076
  226QMPE   H4Y23208   5.662   6.287   4.046
  226QMPE   C3523209   5.729   6.322   4.249
  226QMPE   H5X23210   5.836   6.345   4.231
  226QMPE   H5Y23211   5.720   6.211   4.259
  226QMPE   C3623212   5.688   6.383   4.385
  226QMPE   H6X23213   5.766   6.348   4.457
  226QMPE   H6Y23214   5.590   6.345   4.421
  226QMPE   C3723215   5.688   6.536   4.394
  226QMPE   H7X23216   5.792   6.568   4.379
  226QMPE   H7Y23217   5.626   6.580   4.313
  226QMPE   C3823218   5.639   6.588   4.530
  226QMPE   H8X23219   5.629   6.699   4.528
  226QMPE   H8Y23220   5.539   6.543   4.541
  226QMPE   C3923221   5.722   6.545   4.652
  226QMPE   H9X23222   5.824   6.586   4.646
  226QMPE   H9Y23223   5.724   6.433   4.651
  226QMPE  C31023224   5.669   6.589   4.789
  226QMPE  H10X23225   5.566   6.568   4.785
  226QMPE  H10Y23226   5.663   6.698   4.803
  226QMPE  C31123227   5.726   6.510   4.908
  226QMPE  H11X23228   5.695   6.403   4.901
  226QMPE  H11Y23229   5.682   6.551   5.001
  226QMPE  C31223230   5.878   6.515   4.917
  226QMPE  H12X23231   5.915   6.616   4.890
  226QMPE  H12Y23232   5.920   6.443   4.842
  226QMPE  C31323233   5.930   6.472   5.055
  226QMPE  H13X23234   5.900   6.368   5.078
  226QMPE  H13Y23235   6.040   6.475   5.047
  226QMPE  C31423236   5.892   6.559   5.174
  226QMPE  H14X23237   5.918   6.512   5.271
  226QMPE  H14Y23238   5.784   6.583   5.175
  226QMPE  C31523239   5.969   6.686   5.166
  226QMPE  H15X23240   6.077   6.681   5.142
  226QMPE  H15Y23241   5.915   6.736   5.082
  226QMPE  H15Z23242   5.959   6.742   5.260
  227QMPE     N23243   1.637   6.739   3.680
  227QMPE   HN123244   1.667   6.645   3.643
  227QMPE   HN223245   1.659   6.812   3.610
  227QMPE   HN323246   1.691   6.753   3.768
  227QMPE   C1223247   1.489   6.723   3.712
  227QMPE  H12A23248   1.455   6.813   3.766
  227QMPE  H12B23249   1.480   6.637   3.781
  227QMPE   C1123250   1.399   6.691   3.590
  227QMPE  H11A23251   1.389   6.781   3.526
  227QMPE  H11B23252   1.297   6.667   3.630
  227QMPE     P23253   1.455   6.435   3.548
  227QMPE   O1323254   1.493   6.356   3.430
  227QMPE   O1423255   1.335   6.400   3.628
  227QMPE   O1123256   1.577   6.464   3.640
  227QMPE   O1223257   1.449   6.587   3.507
  227QMPE    C123258   1.695   6.391   3.616
  227QMPE    HA23259   1.768   6.450   3.559
  227QMPE    HB23260   1.679   6.289   3.568
  227QMPE    C223261   1.752   6.356   3.749
  227QMPE    HS23262   1.823   6.275   3.719
  227QMPE   O2123263   1.622   6.325   3.828
  227QMPE   C2123264   1.640   6.313   3.961
  227QMPE   O2223265   1.743   6.344   4.001
  227QMPE   C2223266   1.562   6.204   4.051
  227QMPE   H2R23267   1.524   6.117   3.994
  227QMPE   H2S23268   1.482   6.270   4.076
  227QMPE    C323269   1.847   6.473   3.803
  227QMPE    HX23270   1.920   6.509   3.726
  227QMPE    HY23271   1.922   6.433   3.877
  227QMPE   O3123272   1.760   6.577   3.852
  227QMPE   C3123273   1.754   6.585   3.988
  227QMPE   O3223274   1.843   6.547   4.061
  227QMPE   C3223275   1.645   6.684   4.028
  227QMPE   H2X23276   1.674   6.752   4.111
  227QMPE   H2Y23277   1.619   6.752   3.947
  227QMPE   C2323278   1.633   6.116   4.169
  227QMPE   H3R23279   1.684   6.175   4.246
  227QMPE   H3S23280   1.694   6.026   4.141
  227QMPE   C2423281   1.536   6.043   4.249
  227QMPE   H4R23282   1.577   5.990   4.338
  227QMPE   H4S23283   1.512   5.956   4.180
  227QMPE   C2523284   1.426   6.151   4.268
  227QMPE   H5R23285   1.381   6.065   4.304
  227QMPE   H5S23286   1.369   6.182   4.181
  227QMPE   C2623287   1.384   6.246   4.383
  227QMPE   H6R23288   1.471   6.297   4.415
  227QMPE   H6S23289   1.373   6.194   4.476
  227QMPE   C2723290   1.235   6.295   4.403
  227QMPE   H7R23291   1.147   6.232   4.373
  227QMPE   H7S23292   1.218   6.379   4.337
  227QMPE   C2823293   1.212   6.310   4.557
  227QMPE   H8R23294   1.283   6.387   4.590
  227QMPE   H8S23295   1.235   6.220   4.619
  227QMPE   C2923296   1.067   6.336   4.585
  227QMPE   H9R23297   0.995   6.274   4.531
  227QMPE  C21723298   1.043   6.482   4.551
  227QMPE  H17R23299   1.134   6.538   4.547
  227QMPE  H17S23300   0.965   6.480   4.475
  227QMPE  C21023301   1.015   6.429   4.690
  227QMPE  H10R23302   0.908   6.422   4.715
  227QMPE  C21123303   1.112   6.463   4.802
  227QMPE  H11R23304   1.208   6.497   4.759
  227QMPE  H11S23305   1.071   6.548   4.860
  227QMPE  C21223306   1.143   6.340   4.890
  227QMPE  H12R23307   1.240   6.350   4.940
  227QMPE  H12S23308   1.136   6.245   4.831
  227QMPE  C21323309   1.049   6.328   5.006
  227QMPE  H13R23310   1.023   6.227   5.045
  227QMPE  H13S23311   0.967   6.361   4.942
  227QMPE  C21423312   1.047   6.437   5.113
  227QMPE  H14R23313   0.969   6.414   5.190
  227QMPE  H14S23314   1.017   6.533   5.065
  227QMPE  C21523315   1.165   6.433   5.201
  227QMPE  H15R23316   1.248   6.468   5.140
  227QMPE  H15S23317   1.173   6.326   5.235
  227QMPE  C21623318   1.144   6.517   5.323
  227QMPE  H16R23319   1.201   6.479   5.410
  227QMPE  H16S23320   1.038   6.503   5.347
  227QMPE  H16T23321   1.163   6.625   5.302
  227QMPE   C3323322   1.542   6.594   4.083
  227QMPE   H3X23323   1.516   6.525   4.000
  227QMPE   H3Y23324   1.455   6.657   4.108
  227QMPE   C3423325   1.599   6.519   4.205
  227QMPE   H4X23326   1.676   6.444   4.178
  227QMPE   H4Y23327   1.519   6.458   4.249
  227QMPE   C3523328   1.677   6.603   4.308
  227QMPE   H5X23329   1.644   6.708   4.305
  227QMPE   H5Y23330   1.786   6.602   4.283
  227QMPE   C3623331   1.644   6.558   4.450
  227QMPE   H6X23332   1.536   6.564   4.468
  227QMPE   H6Y23333   1.703   6.620   4.523
  227QMPE   C3723334   1.676   6.415   4.474
  227QMPE   H7X23335   1.677   6.349   4.384
  227QMPE   H7Y23336   1.776   6.446   4.505
  227QMPE   C3823337   1.636   6.344   4.602
  227QMPE   H8X23338   1.529   6.328   4.606
  227QMPE   H8Y23339   1.679   6.240   4.595
  227QMPE   C3923340   1.701   6.411   4.723
  227QMPE   H9X23341   1.698   6.518   4.743
  227QMPE   H9Y23342   1.810   6.402   4.705
  227QMPE  C31023343   1.662   6.340   4.849
  227QMPE  H10X23344   1.693   6.381   4.943
  227QMPE  H10Y23345   1.726   6.257   4.843
  227QMPE  C31123346   1.516   6.312   4.879
  227QMPE  H11X23347   1.465   6.277   4.789
  227QMPE  H11Y23348   1.492   6.408   4.930
  227QMPE  C31223349   1.486   6.218   4.992
  227QMPE  H12X23350   1.565   6.258   5.051
  227QMPE  H12Y23351   1.503   6.113   4.997
  227QMPE  C31323352   1.354   6.160   5.040
  227QMPE  H13X23353   1.339   6.243   5.112
  227QMPE  H13Y23354   1.303   6.160   4.942
  227QMPE  C31423355   1.347   6.013   5.102
  227QMPE  H14X23356   1.403   5.980   5.192
  227QMPE  H14Y23357   1.391   5.930   5.045
  227QMPE  C31523358   1.205   5.993   5.140
  227QMPE  H15X23359   1.153   5.990   5.044
  227QMPE  H15Y23360   1.192   5.898   5.190
  227QMPE  H15Z23361   1.171   6.077   5.207
  228QMPE     N23362   7.111   5.567   3.344
  228QMPE   HN123363   7.077   5.486   3.399
  228QMPE   HN223364   7.038   5.642   3.349
  228QMPE   HN323365   7.123   5.537   3.245
  228QMPE   C1223366   7.241   5.611   3.404
  228QMPE  H12A23367   7.223   5.696   3.473
  228QMPE  H12B23368   7.304   5.643   3.319
  228QMPE   C1123369   7.302   5.497   3.487
  228QMPE  H11A23370   7.407   5.526   3.509
  228QMPE  H11B23371   7.306   5.402   3.430
  228QMPE     P23372   7.246   5.357   3.705
  228QMPE   O1323373   7.270   5.242   3.617
  228QMPE   O1423374   7.133   5.354   3.798
  228QMPE   O1123375   7.372   5.392   3.788
  228QMPE   O1223376   7.229   5.483   3.608
  228QMPE    C123377   7.501   5.364   3.737
  228QMPE    HA23378   7.509   5.382   3.627
  228QMPE    HB23379   7.527   5.258   3.756
  228QMPE    C223380   7.603   5.457   3.806
  228QMPE    HS23381   7.704   5.420   3.780
  228QMPE   O2123382   7.591   5.456   3.948
  228QMPE   C2123383   7.621   5.353   4.012
  228QMPE   O2223384   7.662   5.248   3.966
  228QMPE   C2223385   7.606   5.379   4.162
  228QMPE   H2R23386   7.505   5.418   4.185
  228QMPE   H2S23387   7.685   5.445   4.200
  228QMPE    C323388   7.588   5.605   3.757
  228QMPE    HX23389   7.603   5.601   3.648
  228QMPE    HY23390   7.668   5.668   3.802
  228QMPE   O3123391   7.458   5.666   3.773
  228QMPE   C3123392   7.421   5.680   3.899
  228QMPE   O3223393   7.493   5.661   3.995
  228QMPE   C3223394   7.279   5.739   3.907
  228QMPE   H2X23395   7.276   5.843   3.869
  228QMPE   H2Y23396   7.219   5.671   3.844
  228QMPE   C2323397   7.618   5.243   4.224
  228QMPE   H3R23398   7.715   5.204   4.186
  228QMPE   H3S23399   7.536   5.184   4.176
  228QMPE   C2423400   7.604   5.238   4.376
  228QMPE   H4R23401   7.602   5.135   4.413
  228QMPE   H4S23402   7.519   5.297   4.415
  228QMPE   C2523403   7.728   5.252   4.449
  228QMPE   H5R23404   7.734   5.361   4.440
  228QMPE   H5S23405   7.802   5.210   4.379
  228QMPE   C2623406   7.739   5.192   4.594
  228QMPE   H6R23407   7.681   5.102   4.616
  228QMPE   H6S23408   7.674   5.248   4.659
  228QMPE   C2723409   7.887   5.181   4.645
  228QMPE   H7R23410   7.964   5.257   4.626
  228QMPE   H7S23411   7.942   5.115   4.589
  228QMPE   C2823412   7.929   5.142   4.781
  228QMPE   H8R23413   8.034   5.144   4.792
  228QMPE   H8S23414   7.894   5.051   4.821
  228QMPE   C2923415   7.875   5.200   4.883
  228QMPE   H9R23416   7.775   5.210   4.848
  228QMPE  C21723417   7.959   5.312   4.901
  228QMPE  H17R23418   8.047   5.322   4.870
  228QMPE  H17S23419   7.910   5.400   4.905
  228QMPE  C21023420   7.942   5.230   5.017
  228QMPE  H10R23421   7.923   5.308   5.093
  228QMPE  C21123422   8.033   5.132   5.064
  228QMPE  H11R23423   8.091   5.144   4.987
  228QMPE  H11S23424   8.073   5.164   5.166
  228QMPE  C21223425   7.966   5.010   5.049
  228QMPE  H12R23426   7.864   5.013   5.017
  228QMPE  H12S23427   7.956   5.012   5.153
  228QMPE  C21323428   8.051   4.896   5.035
  228QMPE  H13R23429   8.108   4.911   5.122
  228QMPE  H13S23430   8.127   4.897   4.961
  228QMPE  C21423431   7.997   4.777   5.097
  228QMPE  H14R23432   8.005   4.692   5.030
  228QMPE  H14S23433   7.904   4.815   5.141
  228QMPE  C21523434   8.036   4.752   5.232
  228QMPE  H15R23435   7.997   4.808   5.311
  228QMPE  H15S23436   8.135   4.745   5.214
  228QMPE  C21623437   8.018   4.637   5.305
  228QMPE  H16R23438   8.000   4.555   5.247
  228QMPE  H16S23439   7.926   4.651   5.318
  228QMPE  H16T23440   8.027   4.623   5.411
  228QMPE   C3323441   7.219   5.743   4.048
  228QMPE   H3X23442   7.115   5.783   4.047
  228QMPE   H3Y23443   7.262   5.822   4.107
  228QMPE   C3423444   7.236   5.607   4.118
  228QMPE   H4X23445   7.339   5.570   4.126
  228QMPE   H4Y23446   7.184   5.529   4.058
  228QMPE   C3523447   7.188   5.613   4.260
  228QMPE   H5X23448   7.111   5.692   4.254
  228QMPE   H5Y23449   7.258   5.661   4.330
  228QMPE   C3623450   7.159   5.473   4.316
  228QMPE   H6X23451   7.246   5.408   4.288
  228QMPE   H6Y23452   7.068   5.425   4.274
  228QMPE   C3723453   7.148   5.481   4.468
  228QMPE   H7X23454   7.228   5.544   4.513
  228QMPE   H7Y23455   7.048   5.512   4.496
  228QMPE   C3823456   7.154   5.353   4.542
  228QMPE   H8X23457   7.056   5.300   4.532
  228QMPE   H8Y23458   7.235   5.301   4.486
  228QMPE   C3923459   7.189   5.379   4.688
  228QMPE   H9X23460   7.175   5.303   4.765
  228QMPE   H9Y23461   7.112   5.437   4.739
  228QMPE  C31023462   7.338   5.392   4.714
  228QMPE  H10X23463   7.369   5.493   4.683
  228QMPE  H10Y23464   7.405   5.321   4.658
  228QMPE  C31123465   7.354   5.378   4.864
  228QMPE  H11X23466   7.264   5.404   4.922
  228QMPE  H11Y23467   7.414   5.466   4.880
  228QMPE  C31223468   7.400   5.245   4.920
  228QMPE  H12X23469   7.472   5.182   4.859
  228QMPE  H12Y23470   7.317   5.186   4.949
  228QMPE  C31323471   7.440   5.245   5.063
  228QMPE  H13X23472   7.483   5.143   5.080
  228QMPE  H13Y23473   7.497   5.335   5.080
  228QMPE  C31423474   7.380   5.303   5.187
  228QMPE  H14X23475   7.296   5.234   5.191
  228QMPE  H14Y23476   7.354   5.411   5.166
  228QMPE  C31523477   7.474   5.294   5.311
  228QMPE  H15X23478   7.551   5.375   5.320
  228QMPE  H15Y23479   7.413   5.295   5.401
  228QMPE  H15Z23480   7.532   5.199   5.316
  229QMPE     N23481   2.845   7.886   3.642
  229QMPE   HN123482   2.875   7.824   3.724
  229QMPE   HN223483   2.749   7.874   3.678
  229QMPE   HN323484   2.888   7.815   3.579
  229QMPE   C1223485   2.929   8.015   3.672
  229QMPE  H12A23486   3.039   7.995   3.698
  229QMPE  H12B23487   2.895   8.062   3.767
  229QMPE   C1123488   2.954   8.073   3.547
  229QMPE  H11A23489   2.851   8.082   3.510
  229QMPE  H11B23490   3.016   7.996   3.491
  229QMPE     P23491   3.169   8.231   3.561
  229QMPE   O1323492   3.197   8.371   3.594
  229QMPE   O1423493   3.206   8.190   3.425
  229QMPE   O1123494   3.227   8.129   3.665
  229QMPE   O1223495   3.013   8.198   3.572
  229QMPE    C123496   3.368   8.108   3.664
  229QMPE    HA23497   3.429   8.201   3.659
  229QMPE    HB23498   3.396   8.044   3.578
  229QMPE    C223499   3.404   8.039   3.793
  229QMPE    HS23500   3.506   8.014   3.817
  229QMPE   O2123501   3.326   7.920   3.789
  229QMPE   C2123502   3.363   7.810   3.712
  229QMPE   O2223503   3.398   7.806   3.598
  229QMPE   C2223504   3.329   7.675   3.771
  229QMPE   H2R23505   3.371   7.576   3.759
  229QMPE   H2S23506   3.244   7.647   3.722
  229QMPE    C323507   3.384   8.129   3.920
  229QMPE    HX23508   3.472   8.197   3.914
  229QMPE    HY23509   3.400   8.069   4.014
  229QMPE   O3123510   3.270   8.215   3.916
  229QMPE   C3123511   3.174   8.178   3.996
  229QMPE   O3223512   3.174   8.083   4.069
  229QMPE   C3223513   3.063   8.281   3.991
  229QMPE   H2X23514   3.111   8.380   3.995
  229QMPE   H2Y23515   3.013   8.269   3.893
  229QMPE   C2323516   3.296   7.680   3.902
  229QMPE   H3R23517   3.258   7.786   3.915
  229QMPE   H3S23518   3.352   7.730   3.983
  229QMPE   C2423519   3.201   7.543   3.935
  229QMPE   H4R23520   3.281   7.568   4.000
  229QMPE   H4S23521   3.260   7.453   3.948
  229QMPE   C2523522   3.040   7.523   4.020
  229QMPE   H5R23523   3.023   7.419   4.040
  229QMPE   H5S23524   2.964   7.556   3.948
  229QMPE   C2623525   2.972   7.611   4.161
  229QMPE   H6R23526   2.973   7.556   4.257
  229QMPE   H6S23527   2.894   7.644   4.108
  229QMPE   C2723528   2.958   7.767   4.227
  229QMPE   H7R23529   2.882   7.817   4.182
  229QMPE   H7S23530   3.040   7.835   4.249
  229QMPE   C2823531   2.902   7.819   4.352
  229QMPE   H8R23532   2.941   7.915   4.392
  229QMPE   H8S23533   2.947   7.734   4.388
  229QMPE   C2923534   2.763   7.828   4.343
  229QMPE   H9R23535   2.701   7.780   4.265
  229QMPE  C21723536   2.710   7.963   4.363
  229QMPE  H17R23537   2.758   8.042   4.411
  229QMPE  H17S23538   2.619   7.971   4.313
  229QMPE  C21023539   2.703   7.852   4.470
  229QMPE  H10R23540   2.628   7.786   4.453
  229QMPE  C21123541   2.747   7.886   4.615
  229QMPE  H11R23542   2.850   7.920   4.600
  229QMPE  H11S23543   2.678   7.963   4.655
  229QMPE  C21223544   2.738   7.777   4.727
  229QMPE  H12R23545   2.747   7.693   4.665
  229QMPE  H12S23546   2.649   7.729   4.769
  229QMPE  C21323547   2.827   7.790   4.848
  229QMPE  H13R23548   2.776   7.870   4.904
  229QMPE  H13S23549   2.930   7.819   4.819
  229QMPE  C21423550   2.833   7.671   4.946
  229QMPE  H14R23551   2.854   7.578   4.900
  229QMPE  H14S23552   2.737   7.637   4.988
  229QMPE  C21523553   2.949   7.683   5.041
  229QMPE  H15R23554   2.943   7.785   5.085
  229QMPE  H15S23555   3.050   7.679   4.991
  229QMPE  C21623556   2.945   7.570   5.143
  229QMPE  H16R23557   3.003   7.594   5.227
  229QMPE  H16S23558   3.000   7.478   5.116
  229QMPE  H16T23559   2.847   7.559   5.193
  229QMPE   C3323560   2.960   8.261   4.104
  229QMPE   H3X23561   2.926   8.155   4.109
  229QMPE   H3Y23562   2.872   8.325   4.082
  229QMPE   C3423563   3.008   8.300   4.244
  229QMPE   H4X23564   3.035   8.408   4.245
  229QMPE   H4Y23565   3.100   8.243   4.270
  229QMPE   C3523566   2.900   8.264   4.349
  229QMPE   H5X23567   2.892   8.154   4.345
  229QMPE   H5Y23568   2.801   8.305   4.320
  229QMPE   C3623569   2.939   8.304   4.492
  229QMPE   H6X23570   2.858   8.283   4.564
  229QMPE   H6Y23571   2.956   8.414   4.491
  229QMPE   C3723572   3.071   8.237   4.536
  229QMPE   H7X23573   3.071   8.130   4.506
  229QMPE   H7Y23574   3.153   8.287   4.479
  229QMPE   C3823575   3.102   8.254   4.685
  229QMPE   H8X23576   3.210   8.277   4.697
  229QMPE   H8Y23577   3.044   8.341   4.723
  229QMPE   C3923578   3.070   8.131   4.771
  229QMPE   H9X23579   3.141   8.050   4.744
  229QMPE   H9Y23580   2.968   8.093   4.750
  229QMPE  C31023581   3.088   8.165   4.919
  229QMPE  H10X23582   3.008   8.230   4.960
  229QMPE  H10Y23583   3.186   8.216   4.932
  229QMPE  C31123584   3.098   8.047   5.011
  229QMPE  H11X23585   3.186   7.986   4.979
  229QMPE  H11Y23586   3.011   7.978   5.006
  229QMPE  C31223587   3.113   8.109   5.153
  229QMPE  H12X23588   3.018   8.125   5.206
  229QMPE  H12Y23589   3.195   8.184   5.164
  229QMPE  C31323590   3.173   8.006   5.234
  229QMPE  H13X23591   3.094   7.932   5.206
  229QMPE  H13Y23592   3.263   7.998   5.167
  229QMPE  C31423593   3.205   8.006   5.386
  229QMPE  H14X23594   3.208   7.908   5.440
  229QMPE  H14Y23595   3.122   8.057   5.436
  229QMPE  C31523596   3.345   8.044   5.432
  229QMPE  H15X23597   3.369   8.145   5.397
  229QMPE  H15Y23598   3.343   8.039   5.542
  229QMPE  H15Z23599   3.424   7.972   5.400
  230QMPE     N23600   6.688   1.236   3.337
  230QMPE   HN123601   6.729   1.306   3.273
  230QMPE   HN223602   6.619   1.177   3.287
  230QMPE   HN323603   6.642   1.287   3.415
  230QMPE   C1223604   6.794   1.146   3.395
  230QMPE  H12A23605   6.832   1.082   3.313
  230QMPE  H12B23606   6.742   1.080   3.467
  230QMPE   C1123607   6.910   1.224   3.461
  230QMPE  H11A23608   6.944   1.308   3.397
  230QMPE  H11B23609   7.002   1.161   3.471
  230QMPE     P23610   6.878   1.182   3.718
  230QMPE   O1323611   7.010   1.119   3.724
  230QMPE   O1423612   6.758   1.097   3.709
  230QMPE   O1123613   6.868   1.285   3.835
  230QMPE   O1223614   6.870   1.276   3.588
  230QMPE    C123615   6.769   1.381   3.864
  230QMPE    HA23616   6.682   1.380   3.794
  230QMPE    HB23617   6.816   1.482   3.857
  230QMPE    C223618   6.713   1.361   4.007
  230QMPE    HS23619   6.649   1.451   4.030
  230QMPE   O2123620   6.819   1.336   4.103
  230QMPE   C2123621   6.850   1.452   4.147
  230QMPE   O2223622   6.811   1.558   4.103
  230QMPE   C2223623   6.933   1.450   4.265
  230QMPE   H2R23624   6.981   1.352   4.280
  230QMPE   H2S23625   6.885   1.459   4.362
  230QMPE    C323626   6.618   1.242   4.023
  230QMPE    HX23627   6.668   1.155   3.975
  230QMPE    HY23628   6.526   1.268   3.966
  230QMPE   O3123629   6.590   1.211   4.162
  230QMPE   C3123630   6.509   1.296   4.222
  230QMPE   O3223631   6.437   1.378   4.166
  230QMPE   C3223632   6.521   1.280   4.373
  230QMPE   H2X23633   6.432   1.328   4.418
  230QMPE   H2Y23634   6.520   1.173   4.404
  230QMPE   C2323635   7.014   1.571   4.218
  230QMPE   H3R23636   7.078   1.571   4.129
  230QMPE   H3S23637   7.115   1.552   4.237
  230QMPE   C2423638   6.987   1.701   4.285
  230QMPE   H4R23639   6.927   1.771   4.224
  230QMPE   H4S23640   7.082   1.753   4.264
  230QMPE   C2523641   6.943   1.701   4.436
  230QMPE   H5R23642   6.838   1.674   4.444
  230QMPE   H5S23643   6.960   1.807   4.440
  230QMPE   C2623644   7.023   1.665   4.566
  230QMPE   H6R23645   7.115   1.723   4.584
  230QMPE   H6S23646   7.034   1.559   4.584
  230QMPE   C2723647   6.971   1.646   4.698
  230QMPE   H7R23648   6.877   1.593   4.713
  230QMPE   H7S23649   6.973   1.744   4.739
  230QMPE   C2823650   7.073   1.618   4.794
  230QMPE   H8R23651   7.151   1.699   4.779
  230QMPE   H8S23652   7.127   1.522   4.785
  230QMPE   C2923653   6.979   1.633   4.916
  230QMPE   H9R23654   6.898   1.562   4.929
  230QMPE  C21723655   6.967   1.769   4.991
  230QMPE  H17R23656   7.023   1.861   4.983
  230QMPE  H17S23657   6.894   1.771   5.061
  230QMPE  C21023658   7.026   1.642   5.044
  230QMPE  H10R23659   6.981   1.587   5.126
  230QMPE  C21123660   7.150   1.631   5.028
  230QMPE  H11R23661   7.221   1.638   4.941
  230QMPE  H11S23662   7.139   1.742   5.081
  230QMPE  C21223663   7.223   1.511   5.093
  230QMPE  H12R23664   7.190   1.494   5.197
  230QMPE  H12S23665   7.334   1.517   5.098
  230QMPE  C21323666   7.201   1.377   5.072
  230QMPE  H13R23667   7.216   1.385   4.963
  230QMPE  H13S23668   7.097   1.373   5.114
  230QMPE  C21423669   7.301   1.296   5.156
  230QMPE  H14R23670   7.253   1.204   5.119
  230QMPE  H14S23671   7.283   1.288   5.265
  230QMPE  C21523672   7.455   1.326   5.127
  230QMPE  H15R23673   7.507   1.417   5.155
  230QMPE  H15S23674   7.470   1.341   5.018
  230QMPE  C21623675   7.546   1.224   5.185
  230QMPE  H16R23676   7.506   1.145   5.130
  230QMPE  H16S23677   7.520   1.191   5.287
  230QMPE  H16T23678   7.653   1.217   5.155
  230QMPE   C3323679   6.646   1.353   4.424
  230QMPE   H3X23680   6.644   1.457   4.385
  230QMPE   H3Y23681   6.736   1.302   4.381
  230QMPE   C3423682   6.656   1.356   4.577
  230QMPE   H4X23683   6.571   1.297   4.620
  230QMPE   H4Y23684   6.647   1.460   4.614
  230QMPE   C3523685   6.789   1.299   4.627
  230QMPE   H5X23686   6.870   1.359   4.579
  230QMPE   H5Y23687   6.800   1.192   4.598
  230QMPE   C3623688   6.804   1.315   4.778
  230QMPE   H6X23689   6.717   1.267   4.828
  230QMPE   H6Y23690   6.806   1.424   4.799
  230QMPE   C3723691   6.931   1.256   4.836
  230QMPE   H7X23692   6.948   1.152   4.802
  230QMPE   H7Y23693   7.018   1.317   4.802
  230QMPE   C3823694   6.921   1.254   4.988
  230QMPE   H8X23695   7.026   1.247   5.017
  230QMPE   H8Y23696   6.872   1.343   5.033
  230QMPE   C3923697   6.868   1.124   5.047
  230QMPE   H9X23698   6.923   1.041   4.997
  230QMPE   H9Y23699   6.760   1.115   5.026
  230QMPE  C31023700   6.897   1.111   5.197
  230QMPE  H10X23701   6.999   1.149   5.218
  230QMPE  H10Y23702   6.894   1.004   5.225
  230QMPE  C31123703   6.798   1.185   5.286
  230QMPE  H11X23704   6.701   1.130   5.284
  230QMPE  H11Y23705   6.775   1.286   5.245
  230QMPE  C31223706   6.856   1.190   5.430
  230QMPE  H12X23707   6.868   1.088   5.470
  230QMPE  H12Y23708   6.789   1.230   5.506
  230QMPE  C31323709   6.982   1.274   5.445
  230QMPE  H13X23710   7.003   1.290   5.555
  230QMPE  H13Y23711   7.066   1.230   5.392
  230QMPE  C31423712   6.961   1.409   5.394
  230QMPE  H14X23713   6.947   1.421   5.284
  230QMPE  H14Y23714   7.045   1.477   5.424
  230QMPE  C31523715   6.836   1.447   5.463
  230QMPE  H15X23716   6.878   1.544   5.451
  230QMPE  H15Y23717   6.738   1.443   5.410
  230QMPE  H15Z23718   6.822   1.451   5.573
  231QMPE     N23719   7.449   8.212   3.703
  231QMPE   HN123720   7.549   8.216   3.733
  231QMPE   HN223721   7.394   8.294   3.737
  231QMPE   HN323722   7.407   8.123   3.741
  231QMPE   C1223723   7.447   8.201   3.554
  231QMPE  H12A23724   7.552   8.210   3.517
  231QMPE  H12B23725   7.392   8.290   3.518
  231QMPE   C1123726   7.378   8.068   3.518
  231QMPE  H11A23727   7.335   8.043   3.423
  231QMPE  H11B23728   7.284   8.059   3.578
  231QMPE     P23729   7.456   7.843   3.606
  231QMPE   O1323730   7.586   7.839   3.674
  231QMPE   O1423731   7.416   7.725   3.528
  231QMPE   O1123732   7.344   7.898   3.705
  231QMPE   O1223733   7.471   7.964   3.511
  231QMPE    C123734   7.212   7.847   3.723
  231QMPE    HA23735   7.201   7.744   3.680
  231QMPE    HB23736   7.135   7.911   3.675
  231QMPE    C223737   7.187   7.839   3.875
  231QMPE    HS23738   7.091   7.787   3.901
  231QMPE   O2123739   7.198   7.966   3.942
  231QMPE   C2123740   7.091   8.039   3.940
  231QMPE   O2223741   6.988   8.013   3.881
  231QMPE   C2223742   7.121   8.167   4.019
  231QMPE   H2R23743   7.026   8.225   4.019
  231QMPE   H2S23744   7.197   8.223   3.962
  231QMPE    C323745   7.297   7.754   3.929
  231QMPE    HX23746   7.396   7.771   3.883
  231QMPE    HY23747   7.267   7.649   3.898
  231QMPE   O3123748   7.309   7.779   4.070
  231QMPE   C3123749   7.414   7.852   4.121
  231QMPE   O3223750   7.483   7.925   4.055
  231QMPE   C3223751   7.430   7.840   4.276
  231QMPE   H2X23752   7.329   7.856   4.317
  231QMPE   H2Y23753   7.457   7.740   4.292
  231QMPE   C2323754   7.169   8.139   4.165
  231QMPE   H3R23755   7.260   8.077   4.164
  231QMPE   H3S23756   7.090   8.081   4.217
  231QMPE   C2423757   7.204   8.265   4.247
  231QMPE   H4R23758   7.111   8.321   4.271
  231QMPE   H4S23759   7.265   8.333   4.183
  231QMPE   C2523760   7.293   8.235   4.370
  231QMPE   H5R23761   7.314   8.329   4.427
  231QMPE   H5S23762   7.388   8.190   4.336
  231QMPE   C2623763   7.242   8.136   4.473
  231QMPE   H6R23764   7.309   8.134   4.561
  231QMPE   H6S23765   7.237   8.033   4.432
  231QMPE   C2723766   7.114   8.180   4.534
  231QMPE   H7R23767   7.048   8.153   4.451
  231QMPE   H7S23768   7.096   8.288   4.545
  231QMPE   C2823769   7.107   8.112   4.673
  231QMPE   H8R23770   7.159   8.167   4.745
  231QMPE   H8S23771   7.148   8.010   4.678
  231QMPE   C2923772   6.967   8.115   4.710
  231QMPE   H9R23773   6.911   8.094   4.630
  231QMPE  C21723774   6.934   8.239   4.790
  231QMPE  H17R23775   7.023   8.291   4.776
  231QMPE  H17S23776   6.868   8.310   4.752
  231QMPE  C21023777   6.900   8.095   4.833
  231QMPE  H10R23778   6.809   8.032   4.823
  231QMPE  C21123779   6.968   8.094   4.953
  231QMPE  H11R23780   7.061   8.144   4.933
  231QMPE  H11S23781   6.903   8.141   5.030
  231QMPE  C21223782   7.007   7.960   4.973
  231QMPE  H12R23783   7.106   7.947   5.018
  231QMPE  H12S23784   7.014   7.910   4.875
  231QMPE  C21323785   6.897   7.921   5.061
  231QMPE  H13R23786   6.958   7.832   5.071
  231QMPE  H13S23787   6.795   7.902   5.019
  231QMPE  C21423788   6.895   7.945   5.210
  231QMPE  H14R23789   6.877   8.053   5.206
  231QMPE  H14S23790   6.997   7.912   5.244
  231QMPE  C21523791   6.780   7.884   5.293
  231QMPE  H15R23792   6.753   7.780   5.283
  231QMPE  H15S23793   6.689   7.895   5.243
  231QMPE  C21623794   6.788   7.889   5.445
  231QMPE  H16R23795   6.785   7.994   5.473
  231QMPE  H16S23796   6.881   7.849   5.490
  231QMPE  H16T23797   6.708   7.821   5.485
  231QMPE   C3323798   7.557   7.828   4.372
  231QMPE   H3X23799   7.581   7.933   4.360
  231QMPE   H3Y23800   7.637   7.758   4.334
  231QMPE   C3423801   7.541   7.786   4.524
  231QMPE   H4X23802   7.642   7.769   4.565
  231QMPE   H4Y23803   7.497   7.688   4.552
  231QMPE   C3523804   7.460   7.890   4.602
  231QMPE   H5X23805   7.362   7.907   4.553
  231QMPE   H5Y23806   7.516   7.984   4.593
  231QMPE   C3623807   7.432   7.852   4.749
  231QMPE   H6X23808   7.403   7.747   4.764
  231QMPE   H6Y23809   7.348   7.912   4.789
  231QMPE   C3723810   7.555   7.853   4.835
  231QMPE   H7X23811   7.526   7.801   4.929
  231QMPE   H7Y23812   7.630   7.791   4.782
  231QMPE   C3823813   7.608   7.992   4.862
  231QMPE   H8X23814   7.694   7.980   4.931
  231QMPE   H8Y23815   7.644   8.037   4.767
  231QMPE   C3923816   7.503   8.082   4.928
  231QMPE   H9X23817   7.559   8.141   5.005
  231QMPE   H9Y23818   7.424   8.024   4.977
  231QMPE  C31023819   7.433   8.177   4.832
  231QMPE  H10X23820   7.417   8.142   4.729
  231QMPE  H10Y23821   7.504   8.257   4.833
  231QMPE  C31123822   7.313   8.250   4.885
  231QMPE  H11X23823   7.235   8.180   4.910
  231QMPE  H11Y23824   7.278   8.332   4.815
  231QMPE  C31223825   7.343   8.301   5.019
  231QMPE  H12X23826   7.404   8.381   4.989
  231QMPE  H12Y23827   7.411   8.247   5.084
  231QMPE  C31323828   7.223   8.358   5.086
  231QMPE  H13X23829   7.270   8.435   5.143
  231QMPE  H13Y23830   7.149   8.390   5.012
  231QMPE  C31423831   7.138   8.284   5.177
  231QMPE  H14X23832   7.099   8.210   5.106
  231QMPE  H14Y23833   7.055   8.350   5.213
  231QMPE  C31523834   7.219   8.226   5.287
  231QMPE  H15X23835   7.322   8.203   5.251
  231QMPE  H15Y23836   7.228   8.297   5.371
  231QMPE  H15Z23837   7.168   8.133   5.316
  232QMPE     N23838   0.253   0.424   3.448
  232QMPE   HN123839   0.295   0.426   3.544
  232QMPE   HN223840   0.307   0.489   3.389
  232QMPE   HN323841   0.153   0.453   3.454
  232QMPE   C1223842   0.258   0.284   3.397
  232QMPE  H12A23843   0.364   0.250   3.409
  232QMPE  H12B23844   0.228   0.283   3.291
  232QMPE   C1123845   0.158   0.195   3.473
  232QMPE  H11A23846   0.167   0.088   3.441
  232QMPE  H11B23847   0.056   0.228   3.444
  232QMPE     P23848   0.305   0.158   3.682
  232QMPE   O1323849   0.387   0.280   3.695
  232QMPE   O1423850   0.354   0.043   3.607
  232QMPE   O1123851   0.250   0.112   3.820
  232QMPE   O1223852   0.171   0.208   3.613
  232QMPE    C123853   0.143   0.186   3.878
  232QMPE    HA23854   0.134   0.150   3.980
  232QMPE    HB23855   0.045   0.176   3.828
  232QMPE    C223856   0.180   0.317   3.936
  232QMPE    HS23857   0.177   0.388   3.849
  232QMPE   O2123858   0.305   0.294   4.001
  232QMPE   C2123859   0.361   0.408   4.006
  232QMPE   O2223860   0.316   0.508   3.952
  232QMPE   C2223861   0.485   0.385   4.095
  232QMPE   H2R23862   0.552   0.318   4.039
  232QMPE   H2S23863   0.449   0.338   4.191
  232QMPE    C323864   0.077   0.356   4.042
  232QMPE    HX23865  -0.015   0.338   3.981
  232QMPE    HY23866   0.090   0.462   4.074
  232QMPE   O3123867   0.070   0.266   4.152
  232QMPE   C3123868   0.114   0.304   4.269
  232QMPE   O3223869   0.173   0.405   4.300
  232QMPE   C3223870   0.080   0.197   4.365
  232QMPE   H2X23871  -0.022   0.154   4.361
  232QMPE   H2Y23872   0.158   0.135   4.317
  232QMPE   C2323873   0.573   0.500   4.139
  232QMPE   H3R23874   0.538   0.529   4.237
  232QMPE   H3S23875   0.592   0.582   4.072
  232QMPE   C2423876   0.705   0.474   4.189
  232QMPE   H4R23877   0.739   0.579   4.212
  232QMPE   H4S23878   0.768   0.445   4.103
  232QMPE   C2523879   0.682   0.366   4.299
  232QMPE   H5R23880   0.786   0.362   4.309
  232QMPE   H5S23881   0.635   0.275   4.260
  232QMPE   C2623882   0.603   0.381   4.430
  232QMPE   H6R23883   0.503   0.405   4.420
  232QMPE   H6S23884   0.639   0.450   4.496
  232QMPE   C2723885   0.628   0.324   4.563
  232QMPE   H7R23886   0.731   0.291   4.577
  232QMPE   H7S23887   0.562   0.249   4.523
  232QMPE   C2823888   0.576   0.396   4.691
  232QMPE   H8R23889   0.638   0.486   4.709
  232QMPE   H8S23890   0.596   0.328   4.775
  232QMPE   C2923891   0.432   0.440   4.704
  232QMPE   H9R23892   0.356   0.387   4.645
  232QMPE  C21723893   0.403   0.585   4.696
  232QMPE  H17R23894   0.467   0.672   4.706
  232QMPE  H17S23895   0.330   0.585   4.625
  232QMPE  C21023896   0.375   0.516   4.820
  232QMPE  H10R23897   0.274   0.506   4.852
  232QMPE  C21123898   0.451   0.596   4.911
  232QMPE  H11R23899   0.539   0.595   4.853
  232QMPE  H11S23900   0.437   0.701   4.903
  232QMPE  C21223901   0.450   0.536   5.051
  232QMPE  H12R23902   0.450   0.439   4.996
  232QMPE  H12S23903   0.375   0.478   5.088
  232QMPE  C21323904   0.538   0.580   5.181
  232QMPE  H13R23905   0.541   0.688   5.199
  232QMPE  H13S23906   0.646   0.580   5.176
  232QMPE  C21423907   0.547   0.502   5.308
  232QMPE  H14R23908   0.583   0.406   5.307
  232QMPE  H14S23909   0.455   0.475   5.354
  232QMPE  C21523910   0.661   0.552   5.391
  232QMPE  H15R23911   0.673   0.659   5.376
  232QMPE  H15S23912   0.755   0.518   5.352
  232QMPE  C21623913   0.646   0.488   5.525
  232QMPE  H16R23914   0.536   0.476   5.539
  232QMPE  H16S23915   0.695   0.552   5.601
  232QMPE  H16T23916   0.687   0.388   5.533
  232QMPE   C3323917   0.118   0.221   4.508
  232QMPE   H3X23918   0.061   0.309   4.538
  232QMPE   H3Y23919   0.227   0.243   4.504
  232QMPE   C3423920   0.089   0.105   4.605
  232QMPE   H4X23921   0.170   0.033   4.595
  232QMPE   H4Y23922  -0.008   0.055   4.611
  232QMPE   C3523923   0.152   0.126   4.734
  232QMPE   H5X23924   0.236   0.185   4.696
  232QMPE   H5Y23925   0.168   0.038   4.800
  232QMPE   C3623926   0.096   0.219   4.817
  232QMPE   H6X23927   0.000   0.176   4.853
  232QMPE   H6Y23928   0.089   0.300   4.745
  232QMPE   C3723929   0.181   0.271   4.925
  232QMPE   H7X23930   0.272   0.328   4.912
  232QMPE   H7Y23931   0.116   0.334   4.975
  232QMPE   C3823932   0.173   0.190   5.043
  232QMPE   H8X23933   0.070   0.148   5.040
  232QMPE   H8Y23934   0.226   0.101   5.006
  232QMPE   C3923935   0.228   0.280   5.166
  232QMPE   H9X23936   0.156   0.361   5.190
  232QMPE   H9Y23937   0.318   0.318   5.126
  232QMPE  C31023938   0.263   0.228   5.311
  232QMPE  H10X23939   0.282   0.132   5.344
  232QMPE  H10Y23940   0.190   0.148   5.296
  232QMPE  C31123941   0.389   0.223   5.404
  232QMPE  H11X23942   0.356   0.311   5.459
  232QMPE  H11Y23943   0.486   0.247   5.370
  232QMPE  C31223944   0.430   0.103   5.500
  232QMPE  H12X23945   0.458  -0.000   5.468
  232QMPE  H12Y23946   0.351   0.085   5.566
  232QMPE  C31323947   0.510   0.154   5.615
  232QMPE  H13X23948   0.481   0.261   5.618
  232QMPE  H13Y23949   0.481   0.102   5.710
  232QMPE  C31423950   0.650   0.130   5.580
  232QMPE  H14X23951   0.660   0.178   5.483
  232QMPE  H14Y23952   0.669   0.022   5.563
  232QMPE  C31523953   0.743   0.192   5.680
  232QMPE  H15X23954   0.746   0.299   5.700
  232QMPE  H15Y23955   0.686   0.193   5.770
  232QMPE  H15Z23956   0.840   0.136   5.683
  233PVCL2   C323957   1.751   5.484   7.577
  233PVCL2 HG3123958   1.845   5.438   7.539
  233PVCL2 HG3223959   1.739   5.453   7.683
  233PVCL2   P323960   1.513   5.388   7.560
  233PVCL2 OP3323961   1.463   5.490   7.655
  233PVCL2 OP3423962   1.537   5.256   7.620
  233PVCL2 OP3123963   1.646   5.435   7.494
  233PVCL2 OP3223964   1.413   5.370   7.441
  233PVCL2  C3123965   1.424   5.262   7.350
  233PVCL2 H31J23966   1.502   5.186   7.378
  233PVCL2 H31K23967   1.327   5.209   7.349
  233PVCL2   C223968   1.763   5.639   7.574
  233PVCL2 HG2223969   1.667   5.683   7.610
  233PVCL2 OG1223970   1.868   5.672   7.665
  233PVCL2 HO1223971   1.829   5.660   7.752
  233PVCL2   C123972   1.794   5.701   7.434
  233PVCL2 HG1123973   1.891   5.657   7.403
  233PVCL2 HG1223974   1.807   5.811   7.442
  233PVCL2   P123975   1.557   5.732   7.304
  233PVCL2 OP1323976   1.524   5.708   7.162
  233PVCL2 OP1423977   1.458   5.695   7.406
  233PVCL2 OP1123978   1.699   5.670   7.334
  233PVCL2 OP1223979   1.585   5.887   7.318
  233PVCL2  C1123980   1.524   5.972   7.413
  233PVCL2 H11J23981   1.581   5.965   7.508
  233PVCL2 H11K23982   1.419   5.942   7.438
  233PVCL2  C1223983   1.537   6.117   7.358
  233PVCL2 H12J23984   1.486   6.186   7.429
  233PVCL2  O1223985   1.482   6.136   7.228
  233PVCL2  CA123986   1.356   6.106   7.221
  233PVCL2  OA123987   1.282   6.077   7.313
  233PVCL2  CA223988   1.311   6.115   7.076
  233PVCL2  H2A23989   1.372   6.191   7.020
  233PVCL2  H2B23990   1.205   6.147   7.072
  233PVCL2  C1323991   1.688   6.155   7.349
  233PVCL2 H13J23992   1.731   6.115   7.443
  233PVCL2 H13K23993   1.701   6.264   7.350
  233PVCL2  O1323994   1.763   6.098   7.241
  233PVCL2  CB123995   1.762   6.167   7.126
  233PVCL2  OB123996   1.697   6.266   7.101
  233PVCL2  CB223997   1.856   6.098   7.027
  233PVCL2  H2D23998   1.952   6.080   7.080
  233PVCL2  H2E23999   1.877   6.166   6.942
  233PVCL2  C3224000   1.449   5.313   7.206
  233PVCL2 H32J24001   1.439   5.228   7.135
  233PVCL2  O3224002   1.578   5.375   7.195
  233PVCL2  CC124003   1.676   5.300   7.153
  233PVCL2  OC124004   1.668   5.183   7.118
  233PVCL2  CC224005   1.805   5.380   7.152
  233PVCL2  H2R24006   1.870   5.336   7.230
  233PVCL2  H2S24007   1.783   5.485   7.181
  233PVCL2  C3324008   1.341   5.417   7.166
  233PVCL2 H33J24009   1.244   5.362   7.175
  233PVCL2 H33K24010   1.341   5.503   7.237
  233PVCL2  O3324011   1.373   5.464   7.034
  233PVCL2  CD124012   1.290   5.441   6.936
  233PVCL2  OD124013   1.175   5.410   6.942
  233PVCL2  CD224014   1.359   5.440   6.803
  233PVCL2  H2X24015   1.462   5.404   6.826
  233PVCL2  H2Y24016   1.357   5.544   6.767
  233PVCL2  CA324017   1.330   5.973   7.024
  233PVCL2  H3A24018   1.254   5.907   7.070
  233PVCL2  H3B24019   1.430   5.935   7.057
  233PVCL2  CA424020   1.330   5.964   6.873
  233PVCL2  H4A24021   1.419   5.907   6.840
  233PVCL2  H4B24022   1.338   6.066   6.831
  233PVCL2  CA524023   1.214   5.886   6.813
  233PVCL2  H5A24024   1.118   5.937   6.841
  233PVCL2  H5B24025   1.212   5.783   6.856
  233PVCL2  CA624026   1.236   5.883   6.662
  233PVCL2  H6A24027   1.155   5.819   6.618
  233PVCL2  H6B24028   1.332   5.834   6.637
  233PVCL2  CA724029   1.245   6.028   6.606
  233PVCL2  H7A24030   1.315   6.099   6.645
  233PVCL2  H7B24031   1.145   6.064   6.645
  233PVCL2  CA824032   1.276   6.036   6.452
  233PVCL2  H8A24033   1.223   5.945   6.423
  233PVCL2  H8B24034   1.363   5.991   6.408
  233PVCL2  CA924035   1.242   6.171   6.375
  233PVCL2  H9A24036   1.285   6.258   6.428
  233PVCL2  H9B24037   1.140   6.204   6.386
  233PVCL2 CA1024038   1.250   6.180   6.217
  233PVCL2 H10A24039   1.355   6.203   6.203
  233PVCL2 H10B24040   1.191   6.276   6.197
  233PVCL2 CA1124041   1.205   6.067   6.120
  233PVCL2 H11A24042   1.109   6.016   6.124
  233PVCL2 CA1224043   1.214   6.030   6.000
  233PVCL2 H12A24044   1.138   5.963   5.957
  233PVCL2 CA1324045   1.285   6.105   5.907
  233PVCL2 H13A24046   1.343   6.182   5.962
  233PVCL2 H13B24047   1.218   6.145   5.830
  233PVCL2 CA1424048   1.351   5.967   5.896
  233PVCL2 H14A24049   1.408   5.920   5.981
  233PVCL2 H14B24050   1.434   6.021   5.858
  233PVCL2 CA1524051   1.283   5.848   5.817
  233PVCL2 H15A24052   1.181   5.819   5.849
  233PVCL2 H15B24053   1.352   5.762   5.823
  233PVCL2 CA1624054   1.262   5.878   5.673
  233PVCL2 H16A24055   1.368   5.860   5.651
  233PVCL2 H16B24056   1.220   5.981   5.670
  233PVCL2 CA1724057   1.219   5.788   5.559
  233PVCL2 H17A24058   1.115   5.766   5.586
  233PVCL2 H17B24059   1.286   5.700   5.560
  233PVCL2 CA1824060   1.226   5.847   5.418
  233PVCL2 H18A24061   1.328   5.862   5.375
  233PVCL2 H18B24062   1.176   5.947   5.414
  233PVCL2 H18C24063   1.186   5.779   5.343
  233PVCL2  CB324064   1.797   5.962   6.982
  233PVCL2  H3D24065   1.774   5.904   7.075
  233PVCL2  H3E24066   1.874   5.907   6.923
  233PVCL2  CB424067   1.667   5.963   6.900
  233PVCL2  H4D24068   1.602   6.051   6.918
  233PVCL2  H4E24069   1.612   5.873   6.938
  233PVCL2  CB524070   1.684   5.933   6.751
  233PVCL2  H5D24071   1.583   5.941   6.703
  233PVCL2  H5E24072   1.716   5.827   6.744
  233PVCL2  CB624073   1.779   6.026   6.674
  233PVCL2  H6D24074   1.798   5.982   6.573
  233PVCL2  H6E24075   1.878   6.031   6.725
  233PVCL2  CB724076   1.717   6.165   6.661
  233PVCL2  H7D24077   1.693   6.209   6.760
  233PVCL2  H7E24078   1.626   6.164   6.597
  233PVCL2  CB824079   1.803   6.265   6.592
  233PVCL2  H8D24080   1.903   6.276   6.645
  233PVCL2  H8E24081   1.753   6.363   6.589
  233PVCL2  CB924082   1.822   6.226   6.446
  233PVCL2  H9D24083   1.883   6.134   6.444
  233PVCL2  H9E24084   1.900   6.306   6.453
  233PVCL2 CB1024085   1.711   6.237   6.318
  233PVCL2 H10D24086   1.650   6.325   6.342
  233PVCL2 H10E24087   1.666   6.137   6.328
  233PVCL2 CB1124088   1.723   6.239   6.147
  233PVCL2 H11D24089   1.800   6.297   6.088
  233PVCL2 H11E24090   1.660   6.310   6.093
  233PVCL2 CB1224091   1.773   6.103   6.090
  233PVCL2 H12D24092   1.709   6.027   6.130
  233PVCL2 H12E24093   1.869   6.069   6.128
  233PVCL2 CB1324094   1.788   6.086   5.942
  233PVCL2 H13D24095   1.855   6.005   5.908
  233PVCL2 H13E24096   1.825   6.170   5.889
  233PVCL2 CB1424097   1.667   6.123   5.873
  233PVCL2 H14D24098   1.632   6.224   5.906
  233PVCL2 H14E24099   1.604   6.043   5.909
  233PVCL2 CB1524100   1.713   6.131   5.729
  233PVCL2 H15D24101   1.752   6.222   5.695
  233PVCL2 H15E24102   1.638   6.193   5.682
  233PVCL2 CB1624103   1.768   5.999   5.667
  233PVCL2 H16D24104   1.752   5.992   5.557
  233PVCL2 H16E24105   1.705   5.918   5.710
  233PVCL2 H16F24106   1.874   5.976   5.689
  233PVCL2  CC324107   1.878   5.382   7.015
  233PVCL2  H3R24108   1.874   5.283   6.963
  233PVCL2  H3S24109   1.984   5.408   7.035
  233PVCL2  CC424110   1.816   5.487   6.923
  233PVCL2  H4R24111   1.805   5.582   6.980
  233PVCL2  H4S24112   1.714   5.451   6.895
  233PVCL2  CC524113   1.894   5.516   6.794
  233PVCL2  H5R24114   1.826   5.582   6.735
  233PVCL2  H5S24115   1.913   5.423   6.736
  233PVCL2  CC624116   2.024   5.593   6.821
  233PVCL2  H6R24117   2.096   5.530   6.879
  233PVCL2  H6S24118   1.996   5.682   6.882
  233PVCL2  CC724119   2.099   5.634   6.696
  233PVCL2  H7R24120   2.144   5.543   6.651
  233PVCL2  H7S24121   2.184   5.704   6.718
  233PVCL2  CC824122   2.013   5.697   6.589
  233PVCL2  H8R24123   1.947   5.778   6.629
  233PVCL2  H8S24124   1.949   5.620   6.540
  233PVCL2  CC924125   2.105   5.750   6.483
  233PVCL2  H9R24126   2.158   5.834   6.534
  233PVCL2  H9S24127   2.033   5.797   6.414
  233PVCL2 CC1024128   2.213   5.650   6.426
  233PVCL2 H10R24129   2.286   5.633   6.507
  233PVCL2 H10S24130   2.282   5.704   6.359
  233PVCL2 CC1124131   2.171   5.514   6.366
  233PVCL2 H11R24132   2.082   5.478   6.418
  233PVCL2 CC1224133   2.209   5.443   6.255
  233PVCL2 H12R24134   2.146   5.361   6.219
  233PVCL2 CC1324135   2.311   5.480   6.150
  233PVCL2 H13R24136   2.382   5.553   6.196
  233PVCL2 H13S24137   2.264   5.521   6.056
  233PVCL2 CC1424138   2.408   5.386   6.096
  233PVCL2 H14R24139   2.455   5.343   6.185
  233PVCL2 H14S24140   2.482   5.444   6.034
  233PVCL2 CC1524141   2.337   5.290   6.009
  233PVCL2 H15R24142   2.243   5.244   6.047
  233PVCL2 H15S24143   2.415   5.213   5.992
  233PVCL2 CC1624144   2.308   5.357   5.880
  233PVCL2 H16R24145   2.404   5.367   5.824
  233PVCL2 H16S24146   2.240   5.446   5.878
  233PVCL2 CC1724147   2.243   5.271   5.791
  233PVCL2 H17R24148   2.228   5.345   5.711
  233PVCL2 H17S24149   2.147   5.231   5.837
  233PVCL2 CC1824150   2.344   5.175   5.741
  233PVCL2 H18R24151   2.377   5.126   5.832
  233PVCL2 H18S24152   2.422   5.186   5.668
  233PVCL2 H18T24153   2.296   5.107   5.673
  233PVCL2  CD324154   1.295   5.337   6.706
  233PVCL2  H3X24155   1.199   5.371   6.660
  233PVCL2  H3Y24156   1.270   5.243   6.761
  233PVCL2  CD424157   1.392   5.300   6.593
  233PVCL2  H4X24158   1.341   5.230   6.524
  233PVCL2  H4Y24159   1.480   5.246   6.634
  233PVCL2  CD524160   1.444   5.422   6.515
  233PVCL2  H5X24161   1.514   5.384   6.438
  233PVCL2  H5Y24162   1.502   5.486   6.585
  233PVCL2  CD624163   1.337   5.512   6.450
  233PVCL2  H6X24164   1.256   5.531   6.524
  233PVCL2  H6Y24165   1.291   5.463   6.361
  233PVCL2  CD724166   1.395   5.647   6.403
  233PVCL2  H7X24167   1.452   5.693   6.486
  233PVCL2  H7Y24168   1.310   5.715   6.379
  233PVCL2  CD824169   1.484   5.630   6.279
  233PVCL2  H8X24170   1.430   5.567   6.203
  233PVCL2  H8Y24171   1.575   5.573   6.309
  233PVCL2  CD924172   1.527   5.761   6.211
  233PVCL2  H9X24173   1.606   5.808   6.274
  233PVCL2  H9Y24174   1.441   5.830   6.200
  233PVCL2 CD1024175   1.588   5.741   6.073
  233PVCL2 H10X24176   1.638   5.835   6.039
  233PVCL2 H10Y24177   1.510   5.718   5.996
  233PVCL2 CD1124178   1.690   5.630   6.081
  233PVCL2 H11X24179   1.636   5.533   6.096
  233PVCL2 H11Y24180   1.768   5.645   6.157
  233PVCL2 CD1224181   1.756   5.618   5.948
  233PVCL2 H12X24182   1.679   5.664   5.884
  233PVCL2 H12Y24183   1.781   5.510   5.935
  233PVCL2 CD1324184   1.870   5.706   5.903
  233PVCL2 H13X24185   1.932   5.666   5.984
  233PVCL2 H13Y24186   1.836   5.811   5.914
  233PVCL2 CD1424187   1.942   5.689   5.768
  233PVCL2 H14X24188   2.026   5.761   5.761
  233PVCL2 H14Y24189   1.886   5.729   5.683
  233PVCL2 CD1524190   1.993   5.550   5.724
  233PVCL2 H15X24191   1.919   5.471   5.702
  233PVCL2 H15Y24192   2.056   5.510   5.805
  233PVCL2 CD1624193   2.065   5.576   5.593
  233PVCL2 H16X24194   2.001   5.613   5.511
  233PVCL2 H16Y24195   2.126   5.493   5.555
  233PVCL2 H16Z24196   2.129   5.661   5.618
  234PVCL2   C324197   0.684   1.468   7.405
  234PVCL2 HG3124198   0.587   1.520   7.418
  234PVCL2 HG3224199   0.760   1.537   7.363
  234PVCL2   P324200   0.615   1.364   7.173
  234PVCL2 OP3324201   0.729   1.378   7.080
  234PVCL2 OP3424202   0.504   1.461   7.160
  234PVCL2 OP3124203   0.667   1.353   7.322
  234PVCL2 OP3224204   0.551   1.220   7.157
  234PVCL2  C3124205   0.429   1.187   7.224
  234PVCL2 H31J24206   0.445   1.178   7.334
  234PVCL2 H31K24207   0.352   1.266   7.209
  234PVCL2   C224208   0.729   1.427   7.548
  234PVCL2 HG2224209   0.831   1.382   7.540
  234PVCL2 OG1224210   0.733   1.542   7.633
  234PVCL2 HO1224211   0.728   1.508   7.723
  234PVCL2   C124212   0.626   1.325   7.602
  234PVCL2 HG1124213   0.606   1.249   7.524
  234PVCL2 HG1224214   0.532   1.382   7.617
  234PVCL2   P124215   0.761   1.140   7.729
  234PVCL2 OP1324216   0.887   1.179   7.796
  234PVCL2 OP1424217   0.690   1.021   7.781
  234PVCL2 OP1124218   0.662   1.264   7.725
  234PVCL2 OP1224219   0.794   1.112   7.576
  234PVCL2  C1124220   0.878   1.001   7.543
  234PVCL2 H11J24221   0.821   0.906   7.552
  234PVCL2 H11K24222   0.964   0.995   7.615
  234PVCL2  C1224223   0.933   1.013   7.398
  234PVCL2 H12J24224   1.012   0.937   7.380
  234PVCL2  O1224225   0.982   1.145   7.375
  234PVCL2  CA124226   1.093   1.169   7.434
  234PVCL2  OA124227   1.170   1.091   7.488
  234PVCL2  CA224228   1.122   1.314   7.406
  234PVCL2  H2A24229   1.119   1.370   7.503
  234PVCL2  H2B24230   1.061   1.366   7.331
  234PVCL2  C1324231   0.828   0.987   7.287
  234PVCL2 H13J24232   0.746   1.062   7.300
  234PVCL2 H13K24233   0.782   0.887   7.301
  234PVCL2  O1324234   0.887   1.004   7.156
  234PVCL2  CB124235   0.956   0.904   7.106
  234PVCL2  OB124236   0.973   0.795   7.156
  234PVCL2  CB224237   0.997   0.939   6.963
  234PVCL2  H2D24238   1.104   0.914   6.946
  234PVCL2  H2E24239   0.984   1.048   6.948
  234PVCL2  C3224240   0.367   1.053   7.170
  234PVCL2 H32J24241   0.292   1.017   7.244
  234PVCL2  O3224242   0.469   0.955   7.141
  234PVCL2  CC124243   0.432   0.828   7.154
  234PVCL2  OC124244   0.326   0.791   7.200
  234PVCL2  CC224245   0.547   0.736   7.113
  234PVCL2  H2R24246   0.545   0.648   7.179
  234PVCL2  H2S24247   0.642   0.791   7.126
  234PVCL2  C3324248   0.291   1.085   7.040
  234PVCL2 H33J24249   0.249   0.995   6.991
  234PVCL2 H33K24250   0.204   1.149   7.071
  234PVCL2  O3324251   0.371   1.167   6.955
  234PVCL2  CD124252   0.459   1.119   6.871
  234PVCL2  OD124253   0.473   1.002   6.838
  234PVCL2  CD224254   0.527   1.239   6.808
  234PVCL2  H2X24255   0.523   1.324   6.880
  234PVCL2  H2Y24256   0.475   1.272   6.716
  234PVCL2  CA324257   1.260   1.315   7.349
  234PVCL2  H3A24258   1.321   1.263   7.424
  234PVCL2  H3B24259   1.269   1.425   7.353
  234PVCL2  CA424260   1.287   1.259   7.206
  234PVCL2  H4A24261   1.261   1.152   7.207
  234PVCL2  H4B24262   1.395   1.261   7.177
  234PVCL2  CA524263   1.211   1.336   7.097
  234PVCL2  H5A24264   1.242   1.443   7.095
  234PVCL2  H5B24265   1.103   1.331   7.126
  234PVCL2  CA624266   1.215   1.277   6.955
  234PVCL2  H6A24267   1.140   1.330   6.892
  234PVCL2  H6B24268   1.183   1.171   6.965
  234PVCL2  CA724269   1.350   1.280   6.883
  234PVCL2  H7A24270   1.416   1.207   6.935
  234PVCL2  H7B24271   1.396   1.380   6.894
  234PVCL2  CA824272   1.343   1.247   6.732
  234PVCL2  H8A24273   1.449   1.239   6.699
  234PVCL2  H8B24274   1.293   1.330   6.677
  234PVCL2  CA924275   1.271   1.117   6.691
  234PVCL2  H9A24276   1.184   1.096   6.756
  234PVCL2  H9B24277   1.342   1.034   6.705
  234PVCL2 CA1024278   1.218   1.108   6.546
  234PVCL2 H10A24279   1.131   1.171   6.527
  234PVCL2 H10B24280   1.187   1.002   6.534
  234PVCL2 CA1124281   1.295   1.150   6.428
  234PVCL2 H11A24282   1.330   1.254   6.416
  234PVCL2 CA1224283   1.347   1.060   6.351
  234PVCL2 H12A24284   1.416   1.079   6.274
  234PVCL2 CA1324285   1.356   0.919   6.345
  234PVCL2 H13A24286   1.292   0.861   6.413
  234PVCL2 H13B24287   1.452   0.917   6.379
  234PVCL2 CA1424288   1.389   0.879   6.206
  234PVCL2 H14A24289   1.460   0.793   6.209
  234PVCL2 H14B24290   1.449   0.928   6.129
  234PVCL2 CA1524291   1.247   0.877   6.164
  234PVCL2 H15A24292   1.194   0.970   6.195
  234PVCL2 H15B24293   1.192   0.804   6.225
  234PVCL2 CA1624294   1.240   0.890   6.016
  234PVCL2 H16A24295   1.299   0.974   5.981
  234PVCL2 H16B24296   1.135   0.914   5.995
  234PVCL2 CA1724297   1.305   0.783   5.930
  234PVCL2 H17A24298   1.217   0.740   5.944
  234PVCL2 H17B24299   1.374   0.714   5.987
  234PVCL2 CA1824300   1.249   0.755   5.789
  234PVCL2 H18A24301   1.331   0.757   5.727
  234PVCL2 H18B24302   1.150   0.803   5.772
  234PVCL2 H18C24303   1.236   0.655   5.746
  234PVCL2  CB324304   0.904   0.861   6.868
  234PVCL2  H3D24305   0.799   0.869   6.906
  234PVCL2  H3E24306   0.932   0.753   6.864
  234PVCL2  CB424307   0.906   0.918   6.727
  234PVCL2  H4D24308   1.010   0.952   6.708
  234PVCL2  H4E24309   0.839   1.006   6.723
  234PVCL2  CB524310   0.870   0.819   6.615
  234PVCL2  H5D24311   0.762   0.793   6.620
  234PVCL2  H5E24312   0.928   0.726   6.634
  234PVCL2  CB624313   0.914   0.878   6.479
  234PVCL2  H6D24314   1.025   0.874   6.484
  234PVCL2  H6E24315   0.886   0.985   6.472
  234PVCL2  CB724316   0.872   0.805   6.350
  234PVCL2  H7D24317   0.894   0.696   6.358
  234PVCL2  H7E24318   0.936   0.844   6.267
  234PVCL2  CB824319   0.726   0.825   6.307
  234PVCL2  H8D24320   0.702   0.934   6.302
  234PVCL2  H8E24321   0.660   0.780   6.383
  234PVCL2  CB924322   0.698   0.761   6.170
  234PVCL2  H9D24323   0.708   0.651   6.177
  234PVCL2  H9E24324   0.771   0.798   6.095
  234PVCL2 CB1024325   0.557   0.790   6.120
  234PVCL2 H10D24326   0.539   0.900   6.114
  234PVCL2 H10E24327   0.486   0.750   6.194
  234PVCL2 CB1124328   0.528   0.729   5.984
  234PVCL2 H11D24329   0.525   0.618   5.986
  234PVCL2 H11E24330   0.609   0.762   5.916
  234PVCL2 CB1224331   0.393   0.778   5.933
  234PVCL2 H12D24332   0.395   0.888   5.917
  234PVCL2 H12E24333   0.319   0.753   6.012
  234PVCL2 CB1324334   0.348   0.713   5.805
  234PVCL2 H13D24335   0.239   0.730   5.798
  234PVCL2 H13E24336   0.364   0.602   5.809
  234PVCL2 CB1424337   0.410   0.785   5.685
  234PVCL2 H14D24338   0.416   0.893   5.697
  234PVCL2 H14E24339   0.356   0.770   5.589
  234PVCL2 CB1524340   0.545   0.732   5.653
  234PVCL2 H15D24341   0.504   0.636   5.621
  234PVCL2 H15E24342   0.613   0.704   5.734
  234PVCL2 CB1624343   0.616   0.810   5.544
  234PVCL2 H16D24344   0.629   0.916   5.570
  234PVCL2 H16E24345   0.559   0.803   5.448
  234PVCL2 H16F24346   0.718   0.768   5.528
  234PVCL2  CC324347   0.541   0.694   6.965
  234PVCL2  H3R24348   0.631   0.636   6.935
  234PVCL2  H3S24349   0.540   0.784   6.900
  234PVCL2  CC424350   0.419   0.613   6.931
  234PVCL2  H4R24351   0.323   0.670   6.947
  234PVCL2  H4S24352   0.408   0.513   6.978
  234PVCL2  CC524353   0.426   0.587   6.788
  234PVCL2  H5R24354   0.519   0.542   6.747
  234PVCL2  H5S24355   0.421   0.689   6.740
  234PVCL2  CC624356   0.305   0.506   6.761
  234PVCL2  H6R24357   0.221   0.489   6.831
  234PVCL2  H6S24358   0.301   0.403   6.742
  234PVCL2  CC724359   0.273   0.554   6.629
  234PVCL2  H7R24360   0.243   0.643   6.678
  234PVCL2  H7S24361   0.190   0.482   6.600
  234PVCL2  CC824362   0.357   0.637   6.518
  234PVCL2  H8R24363   0.371   0.534   6.501
  234PVCL2  H8S24364   0.442   0.692   6.552
  234PVCL2  CC924365   0.311   0.717   6.379
  234PVCL2  H9R24366   0.265   0.611   6.379
  234PVCL2  H9S24367   0.343   0.668   6.285
  234PVCL2 CC1024368   0.192   0.863   6.357
  234PVCL2 H10R24369   0.077   0.873   6.385
  234PVCL2 H10S24370   0.084   0.877   6.307
  234PVCL2 CC1124371   0.256   0.960   6.413
  234PVCL2 H11R24372   0.291   0.951   6.514
  234PVCL2 CC1224373   0.246   1.051   6.328
  234PVCL2 H12R24374   0.322   1.123   6.347
  234PVCL2 CC1324375   0.169   1.037   6.194
  234PVCL2 H13R24376   0.078   1.101   6.191
  234PVCL2 H13S24377   0.134   0.940   6.144
  234PVCL2 CC1424378   0.272   1.083   6.114
  234PVCL2 H14R24379   0.360   1.018   6.101
  234PVCL2 H14S24380   0.300   1.184   6.159
  234PVCL2 CC1524381   0.203   1.096   5.988
  234PVCL2 H15R24382   0.104   1.152   5.999
  234PVCL2 H15S24383   0.185   1.007   5.924
  234PVCL2 CC1624384   0.305   1.177   5.932
  234PVCL2 H16R24385   0.393   1.139   5.879
  234PVCL2 H16S24386   0.349   1.253   6.008
  234PVCL2 CC1724387   0.205   1.214   5.833
  234PVCL2 H17R24388   0.254   1.301   5.875
  234PVCL2 H17S24389   0.107   1.260   5.833
  234PVCL2 CC1824390   0.212   1.133   5.704
  234PVCL2 H18R24391   0.303   1.079   5.673
  234PVCL2 H18S24392   0.235   1.191   5.619
  234PVCL2 H18T24393   0.110   1.104   5.674
  234PVCL2  CD324394   0.674   1.210   6.777
  234PVCL2  H3X24395   0.679   1.128   6.702
  234PVCL2  H3Y24396   0.730   1.181   6.869
  234PVCL2  CD424397   0.737   1.334   6.716
  234PVCL2  H4X24398   0.706   1.425   6.772
  234PVCL2  H4Y24399   0.692   1.341   6.614
  234PVCL2  CD524400   0.890   1.326   6.713
  234PVCL2  H5X24401   0.926   1.234   6.661
  234PVCL2  H5Y24402   0.930   1.325   6.816
  234PVCL2  CD624403   0.949   1.446   6.644
  234PVCL2  H6X24404   1.060   1.436   6.640
  234PVCL2  H6Y24405   0.925   1.538   6.702
  234PVCL2  CD724406   0.889   1.461   6.506
  234PVCL2  H7X24407   0.927   1.554   6.478
  234PVCL2  H7Y24408   0.782   1.487   6.500
  234PVCL2  CD824409   0.944   1.369   6.397
  234PVCL2  H8X24410   0.933   1.266   6.434
  234PVCL2  H8Y24411   1.054   1.378   6.387
  234PVCL2  CD924412   0.878   1.402   6.260
  234PVCL2  H9X24413   0.892   1.503   6.215
  234PVCL2  H9Y24414   0.769   1.406   6.275
  234PVCL2 CD1024415   0.929   1.311   6.152
  234PVCL2 H10X24416   1.037   1.286   6.165
  234PVCL2 H10Y24417   0.922   1.364   6.054
  234PVCL2 CD1124418   0.843   1.186   6.159
  234PVCL2 H11X24419   0.861   1.138   6.258
  234PVCL2 H11Y24420   0.878   1.117   6.080
  234PVCL2 CD1224421   0.691   1.206   6.146
  234PVCL2 H12X24422   0.647   1.262   6.231
  234PVCL2 H12Y24423   0.649   1.104   6.150
  234PVCL2 CD1324424   0.645   1.270   6.015
  234PVCL2 H13X24425   0.669   1.379   6.010
  234PVCL2 H13Y24426   0.536   1.260   6.009
  234PVCL2 CD1424427   0.707   1.203   5.892
  234PVCL2 H14X24428   0.678   1.096   5.890
  234PVCL2 H14Y24429   0.817   1.211   5.901
  234PVCL2 CD1524430   0.676   1.281   5.765
  234PVCL2 H15X24431   0.733   1.376   5.762
  234PVCL2 H15Y24432   0.581   1.325   5.777
  234PVCL2 CD1624433   0.682   1.209   5.632
  234PVCL2 H16X24434   0.783   1.164   5.624
  234PVCL2 H16Y24435   0.666   1.284   5.551
  234PVCL2 H16Z24436   0.603   1.132   5.620
  235PVCL2   C324437   3.128   5.406   3.636
  235PVCL2 HG3124438   3.110   5.297   3.623
  235PVCL2 HG3224439   3.219   5.415   3.698
  235PVCL2   P324440   2.874   5.413   3.730
  235PVCL2 OP3324441   2.821   5.356   3.603
  235PVCL2 OP3424442   2.794   5.508   3.809
  235PVCL2 OP3124443   3.021   5.470   3.705
  235PVCL2 OP3224444   2.898   5.290   3.823
  235PVCL2  C3124445   2.989   5.289   3.929
  235PVCL2 H31J24446   3.086   5.312   3.879
  235PVCL2 H31K24447   2.966   5.358   4.012
  235PVCL2   C224448   3.159   5.468   3.496
  235PVCL2 HG2224449   3.183   5.576   3.507
  235PVCL2 OG1224450   3.277   5.405   3.442
  235PVCL2 HO1224451   3.249   5.321   3.405
  235PVCL2   C124452   3.036   5.456   3.401
  235PVCL2 HG1124453   2.943   5.492   3.450
  235PVCL2 HG1224454   3.013   5.351   3.384
  235PVCL2   P124455   3.021   5.668   3.252
  235PVCL2 OP1324456   3.131   5.733   3.180
  235PVCL2 OP1424457   2.885   5.675   3.194
  235PVCL2 OP1124458   3.055   5.516   3.273
  235PVCL2 OP1224459   3.014   5.725   3.399
  235PVCL2  C1124460   2.995   5.864   3.421
  235PVCL2 H11J24461   2.903   5.900   3.368
  235PVCL2 H11K24462   3.084   5.921   3.386
  235PVCL2  C1224463   2.972   5.894   3.570
  235PVCL2 H12J24464   2.962   6.002   3.583
  235PVCL2  O1224465   3.080   5.846   3.653
  235PVCL2  CA124466   3.190   5.918   3.641
  235PVCL2  OA124467   3.194   6.024   3.580
  235PVCL2  CA224468   3.302   5.865   3.733
  235PVCL2  H2A24469   3.360   5.952   3.767
  235PVCL2  H2B24470   3.372   5.806   3.670
  235PVCL2  C1324471   2.837   5.834   3.613
  235PVCL2 H13J24472   2.833   5.725   3.591
  235PVCL2 H13K24473   2.757   5.883   3.552
  235PVCL2  O1324474   2.819   5.861   3.751
  235PVCL2  CB124475   2.697   5.869   3.795
  235PVCL2  OB124476   2.593   5.866   3.730
  235PVCL2  CB224477   2.715   5.932   3.929
  235PVCL2  H2D24478   2.746   6.038   3.913
  235PVCL2  H2E24479   2.788   5.882   3.994
  235PVCL2  C3224480   2.980   5.151   3.999
  235PVCL2 H32J24481   3.007   5.095   3.907
  235PVCL2  O3224482   2.846   5.124   4.037
  235PVCL2  CC124483   2.765   5.074   3.947
  235PVCL2  OC124484   2.785   5.063   3.828
  235PVCL2  CC224485   2.663   4.988   4.024
  235PVCL2  H2R24486   2.633   4.903   3.959
  235PVCL2  H2S24487   2.582   5.059   4.029
  235PVCL2  C3324488   3.065   5.116   4.131
  235PVCL2 H33J24489   3.115   5.021   4.158
  235PVCL2 H33K24490   3.170   5.094   4.123
  235PVCL2  O3324491   3.054   5.209   4.237
  235PVCL2  CD124492   3.041   5.132   4.342
  235PVCL2  OD124493   3.038   5.013   4.346
  235PVCL2  CD224494   3.053   5.214   4.458
  235PVCL2  H2X24495   2.989   5.300   4.434
  235PVCL2  H2Y24496   3.161   5.236   4.463
  235PVCL2  CA324497   3.252   5.772   3.847
  235PVCL2  H3A24498   3.336   5.715   3.893
  235PVCL2  H3B24499   3.186   5.695   3.800
  235PVCL2  CA424500   3.168   5.835   3.959
  235PVCL2  H4A24501   3.113   5.925   3.924
  235PVCL2  H4B24502   3.227   5.866   4.045
  235PVCL2  CA524503   3.072   5.733   4.020
  235PVCL2  H5A24504   3.004   5.699   3.938
  235PVCL2  H5B24505   3.011   5.782   4.100
  235PVCL2  CA624506   3.143   5.611   4.080
  235PVCL2  H6A24507   3.249   5.636   4.104
  235PVCL2  H6B24508   3.144   5.535   3.999
  235PVCL2  CA724509   3.075   5.551   4.205
  235PVCL2  H7A24510   3.117   5.450   4.226
  235PVCL2  H7B24511   2.966   5.537   4.185
  235PVCL2  CA824512   3.090   5.639   4.329
  235PVCL2  H8A24513   3.037   5.734   4.306
  235PVCL2  H8B24514   3.198   5.663   4.347
  235PVCL2  CA924515   3.027   5.581   4.456
  235PVCL2  H9A24516   3.076   5.484   4.481
  235PVCL2  H9B24517   2.919   5.564   4.437
  235PVCL2 CA1024518   3.041   5.676   4.575
  235PVCL2 H10A24519   2.990   5.772   4.552
  235PVCL2 H10B24520   3.149   5.699   4.586
  235PVCL2 CA1124521   2.981   5.610   4.697
  235PVCL2 H11A24522   2.882   5.565   4.683
  235PVCL2 CA1224523   3.040   5.606   4.818
  235PVCL2 H12A24524   2.994   5.548   4.900
  235PVCL2 CA1324525   3.175   5.669   4.846
  235PVCL2 H13A24526   3.192   5.675   4.957
  235PVCL2 H13B24527   3.194   5.763   4.794
  235PVCL2 CA1424528   3.292   5.601   4.787
  235PVCL2 H14A24529   3.398   5.627   4.806
  235PVCL2 H14B24530   3.275   5.567   4.680
  235PVCL2 CA1524531   3.289   5.496   4.880
  235PVCL2 H15A24532   3.347   5.442   4.799
  235PVCL2 H15B24533   3.221   5.421   4.825
  235PVCL2 CA1624534   3.343   5.490   5.054
  235PVCL2 H16A24535   3.375   5.391   5.104
  235PVCL2 H16B24536   3.270   5.467   5.137
  235PVCL2 CA1724537   3.483   5.509   5.113
  235PVCL2 H17A24538   3.451   5.607   5.074
  235PVCL2 H17B24539   3.576   5.476   5.068
  235PVCL2 CA1824540   3.485   5.456   5.260
  235PVCL2 H18A24541   3.459   5.353   5.295
  235PVCL2 H18B24542   3.383   5.470   5.286
  235PVCL2 H18C24543   3.537   5.526   5.327
  235PVCL2  CB324544   2.582   5.936   3.998
  235PVCL2  H3D24545   2.504   5.985   3.934
  235PVCL2  H3E24546   2.612   6.004   4.082
  235PVCL2  CB424547   2.529   5.807   4.062
  235PVCL2  H4D24548   2.598   5.724   4.041
  235PVCL2  H4E24549   2.439   5.774   4.010
  235PVCL2  CB524550   2.504   5.818   4.214
  235PVCL2  H5D24551   2.416   5.872   4.245
  235PVCL2  H5E24552   2.584   5.877   4.261
  235PVCL2  CB624553   2.481   5.688   4.289
  235PVCL2  H6D24554   2.576   5.632   4.282
  235PVCL2  H6E24555   2.396   5.629   4.249
  235PVCL2  CB724556   2.453   5.718   4.437
  235PVCL2  H7D24557   2.353   5.763   4.453
  235PVCL2  H7E24558   2.530   5.791   4.471
  235PVCL2  CB824559   2.468   5.588   4.514
  235PVCL2  H8D24560   2.566   5.545   4.484
  235PVCL2  H8E24561   2.388   5.517   4.484
  235PVCL2  CB924562   2.469   5.601   4.666
  235PVCL2  H9D24563   2.369   5.630   4.706
  235PVCL2  H9E24564   2.540   5.682   4.693
  235PVCL2 CB1024565   2.517   5.467   4.722
  235PVCL2 H10D24566   2.611   5.439   4.669
  235PVCL2 H10E24567   2.442   5.387   4.699
  235PVCL2 CB1124568   2.544   5.469   4.872
  235PVCL2 H11D24569   2.608   5.558   4.894
  235PVCL2 H11E24570   2.601   5.378   4.900
  235PVCL2 CB1224571   2.413   5.469   4.951
  235PVCL2 H12D24572   2.354   5.381   4.919
  235PVCL2 H12E24573   2.356   5.561   4.928
  235PVCL2 CB1324574   2.428   5.459   5.103
  235PVCL2 H13D24575   2.338   5.506   5.149
  235PVCL2 H13E24576   2.517   5.518   5.133
  235PVCL2 CB1424577   2.441   5.317   5.158
  235PVCL2 H14D24578   2.522   5.260   5.111
  235PVCL2 H14E24579   2.357   5.258   5.123
  235PVCL2 CB1524580   2.459   5.314   5.310
  235PVCL2 H15D24581   2.384   5.379   5.360
  235PVCL2 H15E24582   2.557   5.356   5.338
  235PVCL2 CB1624583   2.454   5.172   5.365
  235PVCL2 H16D24584   2.366   5.126   5.321
  235PVCL2 H16E24585   2.450   5.171   5.476
  235PVCL2 H16F24586   2.537   5.109   5.330
  235PVCL2  CC324587   2.708   4.932   4.164
  235PVCL2  H3R24588   2.800   4.982   4.204
  235PVCL2  H3S24589   2.732   4.824   4.160
  235PVCL2  CC424590   2.606   4.925   4.271
  235PVCL2  H4R24591   2.662   4.908   4.366
  235PVCL2  H4S24592   2.540   4.838   4.250
  235PVCL2  CC524593   2.529   5.052   4.271
  235PVCL2  H5R24594   2.459   5.053   4.183
  235PVCL2  H5S24595   2.594   5.141   4.263
  235PVCL2  CC624596   2.444   5.060   4.394
  235PVCL2  H6R24597   2.362   4.984   4.388
  235PVCL2  H6S24598   2.408   5.165   4.383
  235PVCL2  CC724599   2.506   5.049   4.531
  235PVCL2  H7R24600   2.566   5.140   4.553
  235PVCL2  H7S24601   2.572   4.961   4.540
  235PVCL2  CC824602   2.400   5.031   4.639
  235PVCL2  H8R24603   2.354   4.930   4.629
  235PVCL2  H8S24604   2.319   5.103   4.630
  235PVCL2  CC924605   2.460   5.059   4.775
  235PVCL2  H9R24606   2.485   5.166   4.786
  235PVCL2  H9S24607   2.556   5.009   4.784
  235PVCL2 CC1024608   2.367   5.017   4.887
  235PVCL2 H10R24609   2.294   5.084   4.846
  235PVCL2 H10S24610   2.403   5.052   4.986
  235PVCL2 CC1124611   2.292   4.889   4.904
  235PVCL2 H11R24612   2.251   4.849   4.811
  235PVCL2 CC1224613   2.299   4.813   5.013
  235PVCL2 H12R24614   2.281   4.706   4.990
  235PVCL2 CC1324615   2.388   4.849   5.130
  235PVCL2 H13R24616   2.409   4.777   5.201
  235PVCL2 H13S24617   2.411   4.951   5.169
  235PVCL2 CC1424618   2.500   4.761   5.148
  235PVCL2 H14R24619   2.597   4.808   5.203
  235PVCL2 H14S24620   2.587   4.843   5.126
  235PVCL2 CC1524621   2.497   4.555   5.069
  235PVCL2 H15R24622   2.456   4.525   4.979
  235PVCL2 H15S24623   2.515   4.468   5.122
  235PVCL2 CC1624624   2.634   4.425   5.068
  235PVCL2 H16R24625   2.712   4.451   5.141
  235PVCL2 H16S24626   2.699   4.448   4.991
  235PVCL2 CC1724627   2.638   4.255   5.082
  235PVCL2 H17R24628   2.553   4.243   5.020
  235PVCL2 H17S24629   2.617   4.280   5.188
  235PVCL2 CC1824630   2.750   4.116   5.054
  235PVCL2 H18R24631   2.859   4.106   5.091
  235PVCL2 H18S24632   2.859   4.126   5.021
  235PVCL2 H18T24633   2.731   4.017   5.077
  235PVCL2  CD324634   3.013   5.134   4.581
  235PVCL2  H3X24635   3.068   5.190   4.660
  235PVCL2  H3Y24636   3.050   5.029   4.580
  235PVCL2  CD424637   2.863   5.136   4.603
  235PVCL2  H4X24638   2.815   5.080   4.520
  235PVCL2  H4Y24639   2.822   5.240   4.602
  235PVCL2  CD524640   2.821   5.073   4.734
  235PVCL2  H5X24641   2.833   4.963   4.738
  235PVCL2  H5Y24642   2.713   5.091   4.744
  235PVCL2  CD624643   2.877   5.143   4.857
  235PVCL2  H6X24644   2.848   5.250   4.850
  235PVCL2  H6Y24645   2.988   5.139   4.859
  235PVCL2  CD724646   2.805   5.075   4.974
  235PVCL2  H7X24647   2.828   4.965   4.967
  235PVCL2  H7Y24648   2.697   5.092   4.973
  235PVCL2  CD824649   2.845   5.118   5.111
  235PVCL2  H8X24650   2.936   5.054   5.096
  235PVCL2  H8Y24651   2.806   5.070   5.202
  235PVCL2  CD924652   2.865   5.269   5.135
  235PVCL2  H9X24653   2.926   5.319   5.055
  235PVCL2  H9Y24654   2.914   5.274   5.236
  235PVCL2 CD1024655   2.755   5.353   5.181
  235PVCL2 H10X24656   2.729   5.306   5.279
  235PVCL2 H10Y24657   2.687   5.340   5.097
  235PVCL2 CD1124658   2.784   5.501   5.201
  235PVCL2 H11X24659   2.687   5.548   5.224
  235PVCL2 H11Y24660   2.826   5.545   5.108
  235PVCL2 CD1224661   2.869   5.533   5.323
  235PVCL2 H12X24662   2.966   5.491   5.291
  235PVCL2 H12Y24663   2.837   5.479   5.414
  235PVCL2 CD1324664   2.865   5.683   5.358
  235PVCL2 H13X24665   2.917   5.702   5.455
  235PVCL2 H13Y24666   2.760   5.710   5.376
  235PVCL2 CD1424667   2.913   5.774   5.247
  235PVCL2 H14X24668   2.875   5.876   5.257
  235PVCL2 H14Y24669   2.890   5.737   5.144
  235PVCL2 CD1524670   3.060   5.782   5.256
  235PVCL2 H15X24671   3.107   5.831   5.167
  235PVCL2 H15Y24672   3.086   5.675   5.242
  235PVCL2 CD1624673   3.120   5.828   5.391
  235PVCL2 H16X24674   3.228   5.849   5.398
  235PVCL2 H16Y24675   3.081   5.805   5.489
  235PVCL2 H16Z24676   3.150   5.922   5.390
  236PVCL2   C324677   3.692   1.633   3.472
  236PVCL2 HG3124678   3.767   1.714   3.487
  236PVCL2 HG3224679   3.597   1.670   3.517
  236PVCL2   P324680   3.875   1.469   3.575
  236PVCL2 OP3324681   3.948   1.481   3.448
  236PVCL2 OP3424682   3.875   1.337   3.642
  236PVCL2 OP3124683   3.727   1.512   3.540
  236PVCL2 OP3224684   3.922   1.583   3.674
  236PVCL2  C3124685   3.837   1.632   3.778
  236PVCL2 H31J24686   3.778   1.718   3.739
  236PVCL2 H31K24687   3.765   1.554   3.812
  236PVCL2   C224688   3.659   1.615   3.321
  236PVCL2 HG2224689   3.610   1.708   3.286
  236PVCL2 OG1224690   3.776   1.600   3.240
  236PVCL2 HO1224691   3.848   1.588   3.305
  236PVCL2   C124692   3.556   1.503   3.298
  236PVCL2 HG1124693   3.606   1.406   3.320
  236PVCL2 HG1224694   3.526   1.507   3.190
  236PVCL2   P124695   3.334   1.409   3.397
  236PVCL2 OP1324696   3.211   1.455   3.329
  236PVCL2 OP1424697   3.392   1.280   3.352
  236PVCL2 OP1124698   3.442   1.525   3.384
  236PVCL2 OP1224699   3.303   1.403   3.553
  236PVCL2  C1124700   3.388   1.449   3.657
  236PVCL2 H11J24701   3.345   1.542   3.698
  236PVCL2 H11K24702   3.492   1.475   3.624
  236PVCL2  C1224703   3.394   1.340   3.767
  236PVCL2 H12J24704   3.433   1.387   3.860
  236PVCL2  O1224705   3.475   1.227   3.726
  236PVCL2  CA124706   3.601   1.227   3.768
  236PVCL2  OA124707   3.652   1.313   3.838
  236PVCL2  CA224708   3.659   1.091   3.739
  236PVCL2  H2A24709   3.769   1.097   3.724
  236PVCL2  H2B24710   3.613   1.045   3.649
  236PVCL2  C1324711   3.251   1.288   3.802
  236PVCL2 H13J24712   3.198   1.259   3.708
  236PVCL2 H13K24713   3.193   1.372   3.846
  236PVCL2  O1324714   3.262   1.176   3.894
  236PVCL2  CB124715   3.146   1.120   3.925
  236PVCL2  OB124716   3.038   1.154   3.882
  236PVCL2  CB224717   3.164   1.006   4.026
  236PVCL2  H2D24718   3.252   1.021   4.092
  236PVCL2  H2E24719   3.179   0.913   3.968
  236PVCL2  C3224720   3.919   1.681   3.901
  236PVCL2 H32J24721   3.989   1.762   3.865
  236PVCL2  O3224722   3.988   1.573   3.966
  236PVCL2  CC124723   4.101   1.545   3.905
  236PVCL2  OC124724   4.154   1.612   3.819
  236PVCL2  CC224725   4.168   1.422   3.958
  236PVCL2  H2R24726   4.151   1.410   4.066
  236PVCL2  H2S24727   4.277   1.439   3.942
  236PVCL2  C3324728   3.833   1.747   4.011
  236PVCL2 H33J24729   3.906   1.784   4.086
  236PVCL2 H33K24730   3.783   1.837   3.966
  236PVCL2  O3324731   3.731   1.658   4.065
  236PVCL2  CD124732   3.758   1.602   4.183
  236PVCL2  OD124733   3.860   1.620   4.248
  236PVCL2  CD224734   3.638   1.521   4.236
  236PVCL2  H2X24735   3.544   1.571   4.203
  236PVCL2  H2Y24736   3.644   1.526   4.347
  236PVCL2  CA324737   3.631   1.003   3.857
  236PVCL2  H3A24738   3.523   0.977   3.868
  236PVCL2  H3B24739   3.670   1.039   3.955
  236PVCL2  CA424740   3.694   0.875   3.827
  236PVCL2  H4A24741   3.807   0.874   3.822
  236PVCL2  H4B24742   3.654   0.832   3.732
  236PVCL2  CA524743   3.630   0.795   3.936
  236PVCL2  H5A24744   3.694   0.722   3.882
  236PVCL2  H5B24745   3.538   0.742   3.910
  236PVCL2  CA624746   3.635   0.835   4.098
  236PVCL2  H6A24747   3.537   0.881   4.109
  236PVCL2  H6B24748   3.714   0.911   4.121
  236PVCL2  CA724749   3.651   0.741   4.232
  236PVCL2  H7A24750   3.746   0.681   4.241
  236PVCL2  H7B24751   3.570   0.666   4.239
  236PVCL2  CA824752   3.658   0.807   4.365
  236PVCL2  H8A24753   3.576   0.879   4.366
  236PVCL2  H8B24754   3.761   0.850   4.371
  236PVCL2  CA924755   3.649   0.709   4.480
  236PVCL2  H9A24756   3.691   0.752   4.573
  236PVCL2  H9B24757   3.731   0.646   4.443
  236PVCL2 CA1024758   3.513   0.636   4.512
  236PVCL2 H10A24759   3.519   0.574   4.605
  236PVCL2 H10B24760   3.478   0.565   4.434
  236PVCL2 CA1124761   3.415   0.745   4.528
  236PVCL2 H11A24762   3.400   0.798   4.433
  236PVCL2 CA1224763   3.344   0.784   4.634
  236PVCL2 H12A24764   3.284   0.874   4.617
  236PVCL2 CA1324765   3.337   0.734   4.777
  236PVCL2 H13A24766   3.346   0.622   4.780
  236PVCL2 H13B24767   3.235   0.756   4.816
  236PVCL2 CA1424768   3.440   0.794   4.876
  236PVCL2 H14A24769   3.541   0.771   4.834
  236PVCL2 H14B24770   3.432   0.742   4.974
  236PVCL2 CA1524771   3.434   0.946   4.901
  236PVCL2 H15A24772   3.424   0.998   4.803
  236PVCL2 H15B24773   3.531   0.977   4.945
  236PVCL2 CA1624774   3.321   1.001   4.992
  236PVCL2 H16A24775   3.225   0.989   4.939
  236PVCL2 H16B24776   3.340   1.111   5.003
  236PVCL2 CA1724777   3.305   0.943   5.134
  236PVCL2 H17A24778   3.287   0.834   5.127
  236PVCL2 H17B24779   3.212   0.987   5.177
  236PVCL2 CA1824780   3.420   0.974   5.233
  236PVCL2 H18A24781   3.408   0.916   5.327
  236PVCL2 H18B24782   3.419   1.082   5.259
  236PVCL2 H18C24783   3.519   0.949   5.189
  236PVCL2  CB324784   3.037   0.991   4.114
  236PVCL2  H3D24785   3.050   0.903   4.180
  236PVCL2  H3E24786   2.948   0.972   4.050
  236PVCL2  CB424787   3.009   1.113   4.202
  236PVCL2  H4D24788   2.912   1.096   4.254
  236PVCL2  H4E24789   2.995   1.205   4.140
  236PVCL2  CB524790   3.117   1.137   4.308
  236PVCL2  H5D24791   3.200   1.195   4.261
  236PVCL2  H5E24792   3.159   1.040   4.343
  236PVCL2  CB624793   3.062   1.212   4.430
  236PVCL2  H6D24794   2.984   1.148   4.479
  236PVCL2  H6E24795   3.011   1.304   4.395
  236PVCL2  CB724796   3.171   1.247   4.532
  236PVCL2  H7D24797   3.234   1.330   4.492
  236PVCL2  H7E24798   3.237   1.158   4.543
  236PVCL2  CB824799   3.118   1.285   4.670
  236PVCL2  H8D24800   3.061   1.200   4.713
  236PVCL2  H8E24801   3.049   1.373   4.662
  236PVCL2  CB924802   3.235   1.323   4.762
  236PVCL2  H9D24803   3.290   1.404   4.709
  236PVCL2  H9E24804   3.303   1.236   4.773
  236PVCL2 CB1024805   3.198   1.365   4.905
  236PVCL2 H10D24806   3.205   1.278   4.972
  236PVCL2 H10E24807   3.093   1.391   4.918
  236PVCL2 CB1124808   3.283   1.482   4.952
  236PVCL2 H11D24809   3.241   1.532   5.043
  236PVCL2 H11E24810   3.288   1.553   4.869
  236PVCL2 CB1224811   3.432   1.460   4.956
  236PVCL2 H12D24812   3.480   1.559   4.940
  236PVCL2 H12E24813   3.461   1.395   4.871
  236PVCL2 CB1324814   3.476   1.401   5.088
  236PVCL2 H13D24815   3.584   1.378   5.078
  236PVCL2 H13E24816   3.419   1.308   5.111
  236PVCL2 CB1424817   3.455   1.498   5.204
  236PVCL2 H14D24818   3.347   1.518   5.219
  236PVCL2 H14E24819   3.506   1.594   5.179
  236PVCL2 CB1524820   3.510   1.437   5.332
  236PVCL2 H15D24821   3.619   1.419   5.320
  236PVCL2 H15E24822   3.462   1.337   5.347
  236PVCL2 CB1624823   3.482   1.524   5.453
  236PVCL2 H16D24824   3.372   1.534   5.466
  236PVCL2 H16E24825   3.526   1.625   5.440
  236PVCL2 H16F24826   3.527   1.477   5.543
  236PVCL2  CC324827   4.125   1.300   3.874
  236PVCL2  H3R24828   4.204   1.223   3.878
  236PVCL2  H3S24829   4.120   1.329   3.766
  236PVCL2  CC424830   3.992   1.238   3.921
  236PVCL2  H4R24831   3.968   1.156   3.850
  236PVCL2  H4S24832   3.913   1.317   3.912
  236PVCL2  CC524833   3.979   1.186   4.065
  236PVCL2  H5R24834   3.877   1.149   4.085
  236PVCL2  H5S24835   3.997   1.273   4.133
  236PVCL2  CC624836   4.071   1.071   4.100
  236PVCL2  H6R24837   4.149   1.136   4.125
  236PVCL2  H6S24838   4.115   1.008   4.021
  236PVCL2  CC724839   4.044   1.003   4.233
  236PVCL2  H7R24840   3.945   0.959   4.236
  236PVCL2  H7S24841   4.034   1.081   4.313
  236PVCL2  CC824842   4.147   0.899   4.272
  236PVCL2  H8R24843   4.254   0.932   4.265
  236PVCL2  H8S24844   4.154   0.815   4.202
  236PVCL2  CC924845   4.107   0.842   4.410
  236PVCL2  H9R24846   4.208   0.814   4.436
  236PVCL2  H9S24847   4.069   0.739   4.400
  236PVCL2 CC1024848   4.020   0.921   4.522
  236PVCL2 H10R24849   4.003   0.844   4.598
  236PVCL2 H10S24850   3.927   0.951   4.470
  236PVCL2 CC1124851   4.057   1.047   4.599
  236PVCL2 H11R24852   4.077   1.116   4.520
  236PVCL2 CC1224853   4.121   1.060   4.720
  236PVCL2 H12R24854   4.192   1.142   4.744
  236PVCL2 CC1324855   4.167   0.949   4.810
  236PVCL2 H13R24856   4.264   0.948   4.868
  236PVCL2 H13S24857   4.157   0.860   4.759
  236PVCL2 CC1424858   4.062   0.917   4.899
  236PVCL2 H14R24859   4.090   0.831   4.963
  236PVCL2 H14S24860   3.971   0.890   4.838
  236PVCL2 CC1524861   4.061   1.040   4.974
  236PVCL2 H15R24862   4.057   1.139   4.923
  236PVCL2 H15S24863   4.151   1.052   5.036
  236PVCL2 CC1624864   3.933   1.022   5.034
  236PVCL2 H16R24865   3.932   0.938   5.108
  236PVCL2 H16S24866   3.849   1.023   4.961
  236PVCL2 CC1724867   3.911   1.147   5.093
  236PVCL2 H17R24868   3.939   1.242   5.045
  236PVCL2 H17S24869   4.004   1.141   5.161
  236PVCL2 CC1824870   3.761   1.124   5.134
  236PVCL2 H18R24871   3.718   1.213   5.182
  236PVCL2 H18S24872   3.752   1.057   5.225
  236PVCL2 H18T24873   3.679   1.164   5.076
  236PVCL2  CD324874   3.639   1.371   4.199
  236PVCL2  H3X24875   3.733   1.325   4.238
  236PVCL2  H3Y24876   3.641   1.364   4.087
  236PVCL2  CD424877   3.522   1.285   4.252
  236PVCL2  H4X24878   3.521   1.189   4.194
  236PVCL2  H4Y24879   3.426   1.336   4.230
  236PVCL2  CD524880   3.524   1.250   4.403
  236PVCL2  H5X24881   3.431   1.192   4.427
  236PVCL2  H5Y24882   3.519   1.344   4.461
  236PVCL2  CD624883   3.641   1.163   4.452
  236PVCL2  H6X24884   3.739   1.205   4.422
  236PVCL2  H6Y24885   3.638   1.064   4.402
  236PVCL2  CD724886   3.637   1.140   4.604
  236PVCL2  H7X24887   3.708   1.057   4.627
  236PVCL2  H7Y24888   3.535   1.105   4.635
  236PVCL2  CD824889   3.670   1.263   4.691
  236PVCL2  H8X24890   3.694   1.228   4.794
  236PVCL2  H8Y24891   3.578   1.326   4.699
  236PVCL2  CD924892   3.783   1.352   4.638
  236PVCL2  H9X24893   3.770   1.373   4.530
  236PVCL2  H9Y24894   3.881   1.301   4.652
  236PVCL2 CD1024895   3.789   1.491   4.703
  236PVCL2 H10X24896   3.693   1.546   4.690
  236PVCL2 H10Y24897   3.867   1.549   4.648
  236PVCL2 CD1124898   3.831   1.486   4.849
  236PVCL2 H11X24899   3.899   1.398   4.864
  236PVCL2 H11Y24900   3.750   1.478   4.923
  236PVCL2 CD1224901   3.918   1.604   4.880
  236PVCL2 H12X24902   3.871   1.703   4.861
  236PVCL2 H12Y24903   3.995   1.602   4.803
  236PVCL2 CD1324904   3.970   1.580   5.020
  236PVCL2 H13X24905   4.037   1.656   5.055
  236PVCL2 H13Y24906   4.030   1.490   5.037
  236PVCL2 CD1424907   3.888   1.646   5.123
  236PVCL2 H14X24908   3.794   1.599   5.144
  236PVCL2 H14Y24909   3.863   1.737   5.063
  236PVCL2 CD1524910   3.966   1.665   5.252
  236PVCL2 H15X24911   4.066   1.711   5.242
  236PVCL2 H15Y24912   3.992   1.568   5.295
  236PVCL2 CD1624913   3.901   1.762   5.345
  236PVCL2 H16X24914   3.935   1.798   5.442
  236PVCL2 H16Y24915   3.794   1.773   5.337
  236PVCL2 H16Z24916   3.962   1.844   5.304
  237SOD    SOD24917   5.877   5.896   2.464
  238SOD    SOD24918   4.177   0.493   2.032
  239SOD    SOD24919   7.150   0.522   0.271
  240SOD    SOD24920   7.390   1.509   8.062
  241SOD    SOD24921   2.099   4.161   0.547
  242SOD    SOD24922   4.528   7.025   8.036
  243SOD    SOD24923   4.996   6.285   1.645
  244SOD    SOD24924   1.873   6.326   0.123
  245SOD    SOD24925   0.621   3.620   8.957
  246SOD    SOD24926   7.363   5.827   8.526
  247SOD    SOD24927   3.254   2.486   1.294
  248SOD    SOD24928   7.113   2.483   0.157
  249SOD    SOD24929   2.833   2.451  11.045
  250SOD    SOD24930   6.812   4.870   9.856
  251SOD    SOD24931   0.153   4.035   2.525
  252SOD    SOD24932   6.543   2.305  10.820
  253SOD    SOD24933   0.257   0.939   1.008
  254SOD    SOD24934   0.610   6.749   1.595
  255SOD    SOD24935   4.171   1.669   2.343
  256SOD    SOD24936   3.998   2.618   9.960
  257SOD    SOD24937   6.751   1.085   0.343
  258SOD    SOD24938   0.692   6.194  10.316
  259SOD    SOD24939   7.763   7.100   0.346
  260SOD    SOD24940   1.116   1.683   9.710
  261SOD    SOD24941   3.165   6.478   8.196
  262SOD    SOD24942   2.985   6.101  10.916
  263SOD    SOD24943   7.614   2.132   9.214
  264SOD    SOD24944   2.580   1.306   8.696
  265SOD    SOD24945   1.538   5.342   8.323
  266SOD    SOD24946   2.214   7.654   3.071
  267SOD    SOD24947   7.044   7.943   2.332
  268SOD    SOD24948   1.148   3.593   8.182
  269SOD    SOD24949   0.105   5.138   9.049
  270SOD    SOD24950   4.876   0.387  10.036
  271SOD    SOD24951   1.411   0.749   8.641
  272SOD    SOD24952   5.385   3.798   0.607
  273SOD    SOD24953   4.853   7.563   8.377
  274SOD    SOD24954   0.818   3.274   3.068
  275SOD    SOD24955   4.614   2.533   0.327
  276SOD    SOD24956   2.355   2.763   3.153
  277SOD    SOD24957   0.740   2.074  10.589
  278SOD    SOD24958   3.266   1.882   1.558
  279SOD    SOD24959   7.703   4.384  10.866
  280SOD    SOD24960   5.946   0.786   0.574
  281SOD    SOD24961   2.648   7.443   9.852
  282SOD    SOD24962   5.523   7.086   2.806
  283SOD    SOD24963   1.499   2.167   2.054
  284SOD    SOD24964   4.160   1.541   1.875
  285SOD    SOD24965   5.952   2.985   8.659
  286SOD    SOD24966   1.761   1.603   8.464
  287SOD    SOD24967   5.212   1.366   1.557
  288SOD    SOD24968   1.021   4.530   2.236
  289SOD    SOD24969   5.713   0.120   0.831
  290SOD    SOD24970   7.840   0.538   9.081
  291SOD    SOD24971   7.380   0.993   3.010
  292SOD    SOD24972   4.960   3.461   7.829
  293SOD    SOD24973   6.965   0.269   8.806
  294SOD    SOD24974  -0.052   3.235   2.422
  295SOD    SOD24975   7.078   2.268   7.862
  296SOD    SOD24976   1.735   5.157   0.918
  297SOD    SOD24977   6.240   1.072   1.451
  298SOD    SOD24978   5.157   4.371   1.270
  299SOD    SOD24979   1.485   7.750   0.293
  300SOD    SOD24980   5.869   1.567   9.575
  301SOD    SOD24981   0.840   3.297   2.438
  302SOD    SOD24982   3.376   6.591   8.951
  303SOD    SOD24983   5.872   2.078   3.140
  304SOD    SOD24984   2.401   6.850  10.217
  305SOD    SOD24985   6.998   5.542   1.111
  306SOD    SOD24986   1.597   6.484   9.443
  307SOD    SOD24987   7.308   3.487   2.526
  308SOD    SOD24988   2.452   2.239   8.558
  309SOD    SOD24989   4.148   7.826   1.581
  310SOD    SOD24990   4.387   2.984  10.440
  311SOD    SOD24991   3.696   4.284   0.047
  312SOD    SOD24992   0.581   7.145   0.105
  313SOD    SOD24993   7.350   5.180   9.963
  314SOD    SOD24994   5.545   4.557   8.332
  315CLA    CLA24995   6.573   1.891   2.714
  316CLA    CLA24996   1.141   2.784   0.875
  317CLA    CLA24997   2.199   1.438   1.479
  318CLA    CLA24998   1.642   7.781   1.034
  319CLA    CLA24999   2.095   2.521   2.311
  320CLA    CLA25000   3.147   0.119   2.487
  321CLA    CLA25001   0.913   7.015   9.575
  322CLA    CLA25002   7.757   0.802  10.406
  323CLA    CLA25003   4.419   3.953   1.604
  324CLA    CLA25004   4.462   5.439   0.015
  325CLA    CLA25005   0.385   1.480   8.736
  326CLA    CLA25006   1.466   7.714  10.439
  327CLA    CLA25007   2.359   5.973   8.454
  328CLA    CLA25008   2.626   6.499   0.442
  329CLA    CLA25009   3.078   6.727   9.575
  330CLA    CLA25010   0.491   2.553   8.363
  331CLA    CLA25011  -0.064   0.700   2.717
  332CLA    CLA25012   0.561   1.151   2.325
  333CLA    CLA25013   4.969   1.510   9.817
  334CLA    CLA25014   1.894   7.648   8.562
  335CLA    CLA25015   0.059   1.123   8.125
  336CLA    CLA25016   6.318   7.912   8.574
  337CLA    CLA25017   3.583   2.436   1.593
  338CLA    CLA25018   0.917   3.393  10.341
  339CLA    CLA25019   4.149   0.800  10.168
  340CLA    CLA25020   7.753   4.370   1.784
  341CLA    CLA25021   7.979   3.050  10.982
  342CLA    CLA25022   0.770   2.573   2.147
  343CLA    CLA25023   0.351   0.291  10.227
  344CLA    CLA25024   3.957   2.320  10.589
  345CLA    CLA25025   4.245   3.821   0.134
  346CLA    CLA25026   0.452   1.907   2.051
  347CLA    CLA25027   7.107   3.290   9.125
  348CLA    CLA25028   1.050   6.251   9.675
  349CLA    CLA25029   6.948   0.173   2.486
  350CLA    CLA25030   5.578   6.476   9.378
  351TIP3   OH225031   1.176   0.997   8.190
  351TIP3    H125032   1.170   1.095   8.185
  351TIP3    H225033   1.101   0.972   8.133
  352TIP3   OH225034   1.066   0.916   8.538
  352TIP3    H125035   1.050   0.856   8.611
  352TIP3    H225036   1.019   0.873   8.464
  353TIP3   OH225037   0.309   0.879   8.683
  353TIP3    H125038   0.301   0.821   8.762
  353TIP3    H225039   0.366   0.950   8.718
  354TIP3   OH225040   1.430   1.216   8.370
  354TIP3    H125041   1.382   1.147   8.415
  354TIP3    H225042   1.426   1.289   8.435
  355TIP3   OH225043   0.388   1.321   8.497
  355TIP3    H125044   0.353   1.231   8.508
  355TIP3    H225045   0.471   1.317   8.547
  356TIP3   OH225046   0.056   0.692   8.083
  356TIP3    H125047   0.014   0.781   8.088
  356TIP3    H225048  -0.011   0.638   8.043
  357TIP3   OH225049   0.126   0.901   8.322
  357TIP3    H125050   0.156   0.816   8.355
  357TIP3    H225051   0.180   0.924   8.243
  358TIP3   OH225052   1.139   1.735   8.389
  358TIP3    H125053   1.202   1.664   8.360
  358TIP3    H225054   1.115   1.699   8.475
  359TIP3   OH225055   0.893   1.162   8.589
  359TIP3    H125056   0.925   1.102   8.519
  359TIP3    H225057   0.976   1.178   8.638
  360TIP3   OH225058   1.754   0.324   8.658
  360TIP3    H125059   1.773   0.383   8.735
  360TIP3    H225060   1.810   0.366   8.591
  361TIP3   OH225061   1.228   0.610   8.614
  361TIP3    H125062   1.227   0.511   8.620
  361TIP3    H225063   1.195   0.618   8.522
  362TIP3   OH225064   0.524   0.419   8.339
  362TIP3    H125065   0.534   0.503   8.290
  362TIP3    H225066   0.484   0.362   8.270
  363TIP3   OH225067   1.296   0.429   8.179
  363TIP3    H125068   1.361   0.394   8.243
  363TIP3    H225069   1.352   0.482   8.121
  364TIP3   OH225070   0.195   0.655   8.413
  364TIP3    H125071   0.260   0.597   8.456
  364TIP3    H225072   0.197   0.627   8.320
  365TIP3   OH225073   0.700   0.814   8.348
  365TIP3    H125074   0.769   0.755   8.383
  365TIP3    H225075   0.651   0.751   8.291
  366TIP3   OH225076   1.798   0.471   8.884
  366TIP3    H125077   1.737   0.546   8.876
  366TIP3    H225078   1.801   0.456   8.980
  367TIP3   OH225079   0.417   0.310   8.738
  367TIP3    H125080   0.385   0.369   8.666
  367TIP3    H225081   0.351   0.330   8.809
  368TIP3   OH225082   1.143   1.253   8.097
  368TIP3    H125083   1.108   1.228   8.010
  368TIP3    H225084   1.113   1.347   8.103
  369TIP3   OH225085   0.672   1.068   8.763
  369TIP3    H125086   0.600   1.129   8.791
  369TIP3    H225087   0.738   1.133   8.735
  370TIP3   OH225088   1.473   0.369   8.382
  370TIP3    H125089   1.455   0.284   8.426
  370TIP3    H225090   1.551   0.400   8.430
  371TIP3   OH225091   0.374   0.495   8.546
  371TIP3    H125092   0.436   0.564   8.578
  371TIP3    H225093   0.425   0.455   8.471
  372TIP3   OH225094   0.519   1.258   8.860
  372TIP3    H125095   0.508   1.344   8.813
  372TIP3    H225096   0.426   1.258   8.892
  373TIP3   OH225097   0.156   1.278   7.886
  373TIP3    H125098   0.076   1.272   7.834
  373TIP3    H225099   0.124   1.302   7.976
  374TIP3   OH225100   1.478   1.402   8.603
  374TIP3    H125101   1.381   1.409   8.616
  374TIP3    H225102   1.499   1.495   8.585
  375TIP3   OH225103   1.515   0.236   8.756
  375TIP3    H125104   1.438   0.289   8.730
  375TIP3    H225105   1.582   0.262   8.690
  376TIP3   OH225106   0.800   0.052   8.454
  376TIP3    H125107   0.808  -0.039   8.489
  376TIP3    H225108   0.726   0.080   8.510
  377TIP3   OH225109   1.311   1.578   8.270
  377TIP3    H125110   1.345   1.507   8.212
  377TIP3    H225111   1.347   1.657   8.223
  378TIP3   OH225112   1.433   1.371   8.114
  378TIP3    H125113   1.395   1.304   8.055
  378TIP3    H225114   1.429   1.323   8.198
  379TIP3   OH225115   1.586   1.232   8.965
  379TIP3    H125116   1.603   1.167   8.894
  379TIP3    H225117   1.607   1.315   8.920
  380TIP3   OH225118   1.038   0.921   7.940
  380TIP3    H125119   0.966   0.977   7.903
  380TIP3    H225120   1.104   0.928   7.869
  381TIP3   OH225121   1.047   0.770   7.648
  381TIP3    H125122   1.122   0.771   7.707
  381TIP3    H225123   1.077   0.704   7.582
  382TIP3   OH225124   1.772   0.859   8.763
  382TIP3    H125125   1.713   0.937   8.772
  382TIP3    H225126   1.829   0.887   8.689
  383TIP3   OH225127   1.384   0.939   8.029
  383TIP3    H125128   1.308   0.966   8.087
  383TIP3    H225129   1.430   0.874   8.085
  384TIP3   OH225130   1.379   0.761   8.938
  384TIP3    H125131   1.376   0.836   9.001
  384TIP3    H225132   1.304   0.790   8.882
  385TIP3   OH225133   0.546   1.008   8.227
  385TIP3    H125134   0.509   0.971   8.142
  385TIP3    H225135   0.606   0.937   8.256
  386TIP3   OH225136   0.677   1.348   8.492
  386TIP3    H125137   0.672   1.295   8.412
  386TIP3    H225138   0.753   1.309   8.538
  387TIP3   OH225139   0.579   0.880   8.591
  387TIP3    H125140   0.631   0.891   8.509
  387TIP3    H225141   0.612   0.951   8.650
  388TIP3   OH225142   1.219   1.439   8.662
  388TIP3    H125143   1.188   1.504   8.726
  388TIP3    H225144   1.192   1.354   8.704
  389TIP3   OH225145   0.672   1.326   9.062
  389TIP3    H125146   0.629   1.401   9.108
  389TIP3    H225147   0.606   1.306   8.991
  390TIP3   OH225148   1.270   0.860   7.797
  390TIP3    H125149   1.321   0.881   7.879
  390TIP3    H225150   1.312   0.913   7.727
  391TIP3   OH225151   0.363   0.933   8.978
  391TIP3    H125152   0.371   1.006   9.042
  391TIP3    H225153   0.270   0.950   8.951
  392TIP3   OH225154   1.046   1.535   8.145
  392TIP3    H125155   1.085   1.565   8.228
  392TIP3    H225156   0.985   1.606   8.120
  393TIP3   OH225157   0.497   1.521   9.142
  393TIP3    H125158   0.497   1.527   9.044
  393TIP3    H225159   0.401   1.513   9.160
  394TIP3   OH225160   1.647   0.041   7.794
  394TIP3    H125161   1.549   0.045   7.803
  394TIP3    H225162   1.666   0.120   7.738
  395TIP3   OH225163   0.440   0.909   7.991
  395TIP3    H125164   0.416   0.985   7.935
  395TIP3    H225165   0.373   0.844   7.966
  396TIP3   OH225166   0.101   1.105   8.849
  396TIP3    H125167   0.026   1.147   8.803
  396TIP3    H225168   0.055   1.040   8.903
  397TIP3   OH225169   0.051   1.451   8.539
  397TIP3    H125170   0.140   1.415   8.557
  397TIP3    H225171   0.031   1.507   8.616
  398TIP3   OH225172   1.849   1.496   9.122
  398TIP3    H125173   1.837   1.400   9.120
  398TIP3    H225174   1.761   1.521   9.160
  399TIP3   OH225175   0.944   1.449   9.009
  399TIP3    H125176   0.950   1.534   9.058
  399TIP3    H225177   0.855   1.415   9.031
  400TIP3   OH225178   0.994   1.824   7.987
  400TIP3    H125179   0.977   1.817   7.891
  400TIP3    H225180   0.989   1.919   8.006
  401TIP3   OH225181   0.356   1.711   8.172
  401TIP3    H125182   0.369   1.669   8.260
  401TIP3    H225183   0.272   1.667   8.147
  402TIP3   OH225184   1.263   1.742   7.964
  402TIP3    H125185   1.167   1.746   7.984
  402TIP3    H225186   1.288   1.666   8.019
  403TIP3   OH225187   1.564   0.645   9.168
  403TIP3    H125188   1.514   0.689   9.098
  403TIP3    H225189   1.562   0.552   9.141
  404TIP3   OH225190   0.279   1.284   8.977
  404TIP3    H125191   0.292   1.243   9.064
  404TIP3    H225192   0.196   1.244   8.944
  405TIP3   OH225193   0.547   0.136   8.558
  405TIP3    H125194   0.459   0.132   8.517
  405TIP3    H225195   0.532   0.214   8.615
  406TIP3   OH225196   1.011   0.103   8.906
  406TIP3    H125197   1.052   0.055   8.978
  406TIP3    H225198   0.916   0.086   8.917
  407TIP3   OH225199   1.336   0.479   8.989
  407TIP3    H125200   1.283   0.460   9.070
  407TIP3    H225201   1.321   0.573   8.971
  408TIP3   OH225202   1.431   0.948   7.577
  408TIP3    H125203   1.402   0.951   7.485
  408TIP3    H225204   1.495   1.019   7.586
  409TIP3   OH225205   0.969   0.352   7.634
  409TIP3    H125206   0.944   0.347   7.728
  409TIP3    H225207   0.947   0.264   7.607
  410TIP3   OH225208   0.558   0.630   8.693
  410TIP3    H125209   0.482   0.629   8.755
  410TIP3    H225210   0.549   0.719   8.652
  411TIP3   OH225211   0.553   0.636   8.179
  411TIP3    H125212   0.459   0.617   8.163
  411TIP3    H225213   0.590   0.616   8.091
  412TIP3   OH225214   1.109   0.688   8.053
  412TIP3    H125215   1.066   0.770   8.019
  412TIP3    H225216   1.175   0.672   7.983
  413TIP3   OH225217   1.009   0.713   9.197
  413TIP3    H125218   0.958   0.634   9.227
  413TIP3    H225219   1.093   0.700   9.244
  414TIP3   OH225220   1.211   0.642   8.339
  414TIP3    H125221   1.178   0.695   8.264
  414TIP3    H225222   1.216   0.556   8.292
  415TIP3   OH225223   0.319   0.654   8.857
  415TIP3    H125224   0.322   0.696   8.945
  415TIP3    H225225   0.274   0.571   8.877
  416TIP3   OH225226   0.652   0.386   7.535
  416TIP3    H125227   0.613   0.351   7.618
  416TIP3    H225228   0.579   0.434   7.496
  417TIP3   OH225229   0.012   0.399   8.266
  417TIP3    H125230   0.063   0.363   8.342
  417TIP3    H225231   0.028   0.335   8.199
  418TIP3   OH225232   0.116   0.450   7.803
  418TIP3    H125233   0.162   0.498   7.731
  418TIP3    H225234   0.040   0.506   7.818
  419TIP3   OH225235   1.137   0.795   8.794
  419TIP3    H125236   1.159   0.723   8.733
  419TIP3    H225237   1.079   0.750   8.859
  420TIP3   OH225238   0.810   0.400   8.277
  420TIP3    H125239   0.716   0.393   8.303
  420TIP3    H225240   0.856   0.377   8.359
  421TIP3   OH225241   0.291   0.548   8.165
  421TIP3    H125242   0.204   0.568   8.125
  421TIP3    H225243   0.316   0.465   8.121
  422TIP3   OH225244   0.651   0.554   7.928
  422TIP3    H125245   0.747   0.566   7.942
  422TIP3    H225246   0.627   0.622   7.862
  423TIP3   OH225247   1.248   0.329   8.595
  423TIP3    H125248   1.183   0.320   8.667
  423TIP3    H225249   1.203   0.287   8.521
  424TIP3   OH225250   0.524   0.677   7.683
  424TIP3    H125251   0.467   0.639   7.614
  424TIP3    H225252   0.606   0.695   7.638
  425TIP3   OH225253   1.568   1.883   9.233
  425TIP3    H125254   1.596   1.920   9.146
  425TIP3    H225255   1.640   1.915   9.289
  426TIP3   OH225256   0.340   1.125   9.194
  426TIP3    H125257   0.413   1.156   9.250
  426TIP3    H225258   0.263   1.138   9.252
  427TIP3   OH225259   0.942   0.673   8.470
  427TIP3    H125260   0.992   0.616   8.411
  427TIP3    H225261   0.917   0.614   8.542
  428TIP3   OH225262   0.437   0.288   8.108
  428TIP3    H125263   0.405   0.196   8.111
  428TIP3    H225264   0.518   0.278   8.056
  429TIP3   OH225265   0.799   0.504   8.709
  429TIP3    H125266   0.718   0.558   8.716
  429TIP3    H225267   0.857   0.541   8.779
  430TIP3   OH225268   1.578   1.040   8.753
  430TIP3    H125269   1.634   1.095   8.696
  430TIP3    H225270   1.491   1.058   8.713
  431TIP3   OH225271   1.236   0.403   7.711
  431TIP3    H125272   1.151   0.420   7.667
  431TIP3    H225273   1.274   0.492   7.721
  432TIP3   OH225274   1.008   1.155   9.002
  432TIP3    H125275   0.974   1.111   9.081
  432TIP3    H225276   0.981   1.246   9.014
  433TIP3   OH225277   1.315   0.601   7.863
  433TIP3    H125278   1.405   0.586   7.898
  433TIP3    H225279   1.321   0.679   7.806
  434TIP3   OH225280   0.371   1.064   8.460
  434TIP3    H125281   0.436   1.059   8.388
  434TIP3    H225282   0.376   0.978   8.503
  435TIP3   OH225283   0.076   0.890   8.981
  435TIP3    H125284   0.089   0.857   9.071
  435TIP3    H225285   0.002   0.843   8.942
  436TIP3   OH225286   0.770   0.861   9.202
  436TIP3    H125287   0.738   0.830   9.116
  436TIP3    H225288   0.863   0.828   9.200
  437TIP3   OH225289   1.240   1.396   8.998
  437TIP3    H125290   1.147   1.413   8.973
  437TIP3    H225291   1.235   1.426   9.090
  438TIP3   OH225292   1.799   0.619   7.841
  438TIP3    H125293   1.754   0.578   7.767
  438TIP3    H225294   1.817   0.710   7.808
  439TIP3   OH225295   1.804   1.202   9.116
  439TIP3    H125296   1.714   1.222   9.081
  439TIP3    H225297   1.857   1.194   9.034
  440TIP3   OH225298   1.629   1.498   7.870
  440TIP3    H125299   1.600   1.415   7.911
  440TIP3    H225300   1.669   1.474   7.785
  441TIP3   OH225301   1.353   0.967   8.594
  441TIP3    H125302   1.258   0.965   8.569
  441TIP3    H225303   1.396   0.922   8.519
  442TIP3   OH225304   0.606   1.412   8.198
  442TIP3    H125305   0.657   1.492   8.174
  442TIP3    H225306   0.518   1.433   8.161
  443TIP3   OH225307   0.172   0.899   7.645
  443TIP3    H125308   0.243   0.954   7.688
  443TIP3    H225309   0.098   0.930   7.695
  444TIP3   OH225310   0.753   1.180   8.162
  444TIP3    H125311   0.717   1.270   8.153
  444TIP3    H225312   0.675   1.128   8.189
  445TIP3   OH225313   0.810   1.589   8.775
  445TIP3    H125314   0.840   1.680   8.762
  445TIP3    H225315   0.854   1.564   8.857
  446TIP3   OH225316   0.617   1.675   8.106
  446TIP3    H125317   0.520   1.689   8.115
  446TIP3    H225318   0.653   1.761   8.132
  447TIP3   OH225319   1.143   1.193   8.749
  447TIP3    H125320   1.111   1.179   8.841
  447TIP3    H225321   1.210   1.125   8.736
  448TIP3   OH225322   1.372   1.307   7.666
  448TIP3    H125323   1.406   1.255   7.742
  448TIP3    H225324   1.280   1.279   7.669
  449TIP3   OH225325   1.427   1.654   9.000
  449TIP3    H125326   1.358   1.605   8.952
  449TIP3    H225327   1.444   1.725   8.935
  450TIP3   OH225328   1.827   1.743   7.688
  450TIP3    H125329   1.897   1.803   7.659
  450TIP3    H225330   1.756   1.805   7.714
  451TIP3   OH225331   0.234   0.379   8.937
  451TIP3    H125332   0.144   0.413   8.940
  451TIP3    H225333   0.223   0.295   8.983
  452TIP3   OH225334   1.458   1.163   7.883
  452TIP3    H125335   1.432   1.086   7.936
  452TIP3    H225336   1.553   1.168   7.899
  453TIP3   OH225337   0.128   1.559   8.810
  453TIP3    H125338   0.190   1.493   8.772
  453TIP3    H225339   0.203   1.596   8.859
  454TIP3   OH225340   0.317   1.088   7.789
  454TIP3    H125341   0.256   1.126   7.858
  454TIP3    H225342   0.382   1.160   7.783
  455TIP3   OH225343   1.110   0.358   8.835
  455TIP3    H125344   1.180   0.358   8.900
  455TIP3    H225345   1.072   0.269   8.851
  456TIP3   OH225346   1.186   0.311   7.954
  456TIP3    H125347   1.202   0.355   7.866
  456TIP3    H225348   1.239   0.369   8.010
  457TIP3   OH225349   0.956   1.536   7.829
  457TIP3    H125350   0.872   1.582   7.831
  457TIP3    H225351   1.002   1.582   7.759
  458TIP3   OH225352   0.904   0.489   8.025
  458TIP3    H125353   0.982   0.547   8.031
  458TIP3    H225354   0.875   0.477   8.118
  459TIP3   OH225355   0.965   0.594   8.942
  459TIP3    H125356   0.966   0.645   9.025
  459TIP3    H225357   1.023   0.519   8.957
  460TIP3   OH225358   0.993   0.196   8.120
  460TIP3    H125359   0.957   0.266   8.178
  460TIP3    H225360   1.058   0.250   8.068
  461TIP3   OH225361   0.557   0.307   7.782
  461TIP3    H125362   0.550   0.394   7.825
  461TIP3    H225363   0.647   0.283   7.812
  462TIP3   OH225364   1.577   0.385   9.028
  462TIP3    H125365   1.482   0.410   9.015
  462TIP3    H225366   1.607   0.371   8.936
  463TIP3   OH225367   1.440   0.755   8.414
  463TIP3    H125368   1.358   0.709   8.385
  463TIP3    H225369   1.497   0.683   8.450
  464TIP3   OH225370   0.213   0.618   7.611
  464TIP3    H125371   0.212   0.715   7.616
  464TIP3    H225372   0.133   0.594   7.562
  465TIP3   OH225373   1.553   1.676   8.582
  465TIP3    H125374   1.532   1.756   8.529
  465TIP3    H225375   1.635   1.701   8.628
  466TIP3   OH225376   0.280   0.119   8.464
  466TIP3    H125377   0.264   0.104   8.367
  466TIP3    H225378   0.261   0.030   8.501
  467TIP3   OH225379   0.195   1.495   8.097
  467TIP3    H125380   0.106   1.530   8.086
  467TIP3    H225381   0.240   1.532   8.020
  468TIP3   OH225382   0.112   1.751   9.220
  468TIP3    H125383   0.172   1.725   9.293
  468TIP3    H225384   0.069   1.666   9.196
  469TIP3   OH225385   0.578   1.643   9.379
  469TIP3    H125386   0.653   1.593   9.413
  469TIP3    H225387   0.575   1.615   9.285
  470TIP3   OH225388   1.225   1.485   9.260
  470TIP3    H125389   1.197   1.394   9.282
  470TIP3    H225390   1.307   1.493   9.313
  471TIP3   OH225391   0.101   1.133   9.322
  471TIP3    H125392   0.119   1.042   9.291
  471TIP3    H225393   0.031   1.157   9.262
  472TIP3   OH225394   0.773   1.128   9.258
  472TIP3    H125395   0.739   1.161   9.172
  472TIP3    H225396   0.779   1.031   9.247
  473TIP3   OH225397   1.342   1.114   8.993
  473TIP3    H125398   1.421   1.172   8.994
  473TIP3    H225399   1.273   1.181   9.002
  474TIP3   OH225400   0.176   0.849   9.260
  474TIP3    H125401   0.238   0.775   9.251
  474TIP3    H225402   0.167   0.854   9.357
  475TIP3   OH225403   0.583   0.746   8.993
  475TIP3    H125404   0.522   0.818   9.018
  475TIP3    H225405   0.623   0.783   8.912
  476TIP3   OH225406   1.091   1.005   9.328
  476TIP3    H125407   1.186   1.001   9.313
  476TIP3    H225408   1.074   0.927   9.384
  477TIP3   OH225409   0.627   0.488   9.097
  477TIP3    H125410   0.637   0.417   9.031
  477TIP3    H225411   0.617   0.569   9.042
  478TIP3   OH225412   0.665   0.323   8.854
  478TIP3    H125413   0.716   0.370   8.783
  478TIP3    H225414   0.576   0.316   8.814
  479TIP3   OH225415   0.817   0.874   8.880
  479TIP3    H125416   0.891   0.856   8.821
  479TIP3    H225417   0.779   0.956   8.845
  480TIP3   OH225418   1.257   0.646   9.373
  480TIP3    H125419   1.281   0.552   9.365
  480TIP3    H225420   1.343   0.691   9.378
  481TIP3   OH225421   1.393   0.928   9.192
  481TIP3    H125422   1.367   1.001   9.130
  481TIP3    H225423   1.489   0.925   9.174
  482TIP3   OH225424   0.471   0.610   9.290
  482TIP3    H125425   0.393   0.552   9.274
  482TIP3    H225426   0.536   0.572   9.229
  483TIP3   OH225427   0.734   0.075   8.896
  483TIP3    H125428   0.724   0.173   8.884
  483TIP3    H225429   0.659   0.037   8.850
  484TIP3   OH225430   0.871   0.500   9.255
  484TIP3    H125431   0.840   0.475   9.344
  484TIP3    H225432   0.792   0.479   9.202
  485TIP3   OH225433   1.142   0.421   9.168
  485TIP3    H125434   1.045   0.417   9.176
  485TIP3    H225435   1.170   0.353   9.233
  486TIP3   OH225436   1.299   0.285   9.354
  486TIP3    H125437   1.298   0.186   9.352
  486TIP3    H225438   1.274   0.303   9.446
  487TIP3   OH225439   0.279   0.404   9.266
  487TIP3    H125440   0.306   0.331   9.207
  487TIP3    H225441   0.274   0.359   9.352
  488TIP3   OH225442   0.775   8.142   9.141
  488TIP3    H125443   0.842   8.071   9.146
  488TIP3    H225444   0.752   8.127   9.047
  489TIP3   OH225445   0.799   0.173   9.375
  489TIP3    H125446   0.786   0.127   9.290
  489TIP3    H225447   0.741   0.250   9.366
  490TIP3   OH225448   0.750   1.860   7.690
  490TIP3    H125449   0.846   1.866   7.698
  490TIP3    H225450   0.727   1.926   7.624
  491TIP3   OH225451   0.109   1.318   7.624
  491TIP3    H125452   0.198   1.328   7.663
  491TIP3    H225453   0.123   1.250   7.559
  492TIP3   OH225454  -0.004   1.867   8.126
  492TIP3    H125455  -0.084   1.819   8.096
  492TIP3    H225456   0.015   1.805   8.200
  493TIP3   OH225457   0.079   1.675   8.318
  493TIP3    H125458   0.040   1.586   8.333
  493TIP3    H225459   0.098   1.706   8.409
  494TIP3   OH225460   1.818   1.758   8.624
  494TIP3    H125461   1.824   1.771   8.721
  494TIP3    H225462   1.891   1.815   8.596
  495TIP3   OH225463   1.776   1.706   8.908
  495TIP3    H125464   1.726   1.629   8.876
  495TIP3    H225465   1.821   1.665   8.984
  496TIP3   OH225466   1.619   1.278   9.379
  496TIP3    H125467   1.528   1.277   9.414
  496TIP3    H225468   1.656   1.358   9.421
  497TIP3   OH225469   1.751   1.111   7.919
  497TIP3    H125470   1.837   1.150   7.938
  497TIP3    H225471   1.749   1.041   7.988
  498TIP3   OH225472   1.788   0.920   8.106
  498TIP3    H125473   1.712   0.871   8.144
  498TIP3    H225474   1.845   0.933   8.184
  499TIP3   OH225475   1.760   1.188   8.605
  499TIP3    H125476   1.842   1.147   8.571
  499TIP3    H225477   1.777   1.282   8.592
  500TIP3   OH225478   1.618   1.481   8.832
  500TIP3    H125479   1.551   1.512   8.895
  500TIP3    H225480   1.561   1.439   8.765
  501TIP3   OH225481   1.803   0.898   7.751
  501TIP3    H125482   1.768   0.944   7.676
  501TIP3    H225483   1.814   0.972   7.815
  502TIP3   OH225484   1.570   0.766   8.166
  502TIP3    H125485   1.555   0.671   8.160
  502TIP3    H225486   1.536   0.787   8.254
  503TIP3   OH225487   0.069   0.972   8.575
  503TIP3    H125488   0.086   0.968   8.478
  503TIP3    H225489   0.159   0.963   8.609
  504TIP3   OH225490   1.654   0.966   9.137
  504TIP3    H125491   1.715   0.889   9.149
  504TIP3    H225492   1.716   1.042   9.137
  505TIP3   OH225493   1.805   0.752   9.201
  505TIP3    H125494   1.716   0.712   9.186
  505TIP3    H225495   1.862   0.673   9.194
  506TIP3   OH225496   1.535   0.530   8.012
  506TIP3    H125497   1.563   0.436   8.022
  506TIP3    H225498   1.615   0.568   7.974
  507TIP3   OH225499   1.593   0.594   8.560
  507TIP3    H125500   1.692   0.600   8.553
  507TIP3    H225501   1.589   0.581   8.656
  508TIP3   OH225502   1.600   0.656   8.821
  508TIP3    H125503   1.521   0.682   8.874
  508TIP3    H225504   1.654   0.739   8.816
  509TIP3   OH225505   0.043   0.472   9.154
  509TIP3    H125506   0.133   0.477   9.196
  509TIP3    H225507  -0.003   0.417   9.217
  510TIP3   OH225508   1.846   0.068   9.385
  510TIP3    H125509   1.859   0.001   9.315
  510TIP3    H225510   1.839   0.144   9.324
  511TIP3   OH225511   1.597   0.259   8.016
  511TIP3    H125512   1.623   0.213   8.099
  511TIP3    H225513   1.540   0.192   7.974
  512TIP3   OH225514   0.147   0.340   8.480
  512TIP3    H125515   0.197   0.258   8.498
  512TIP3    H225516   0.206   0.407   8.518
  513TIP3   OH225517   0.001   0.645   8.589
  513TIP3    H125518   0.046   0.619   8.506
  513TIP3    H225519   0.038   0.733   8.601
  514TIP3   OH225520   1.788   0.273   9.201
  514TIP3    H125521   1.693   0.294   9.198
  514TIP3    H225522   1.788   0.210   9.127
  515TIP3   OH225523   1.795   0.251   7.683
  515TIP3    H125524   1.823   0.193   7.610
  515TIP3    H225525   1.857   0.323   7.673
  516TIP3   OH225526   0.035   0.243   7.951
  516TIP3    H125527  -0.060   0.264   7.950
  516TIP3    H225528   0.073   0.314   7.894
  517TIP3   OH225529   1.490   1.753   8.182
  517TIP3    H125530   1.556   1.727   8.115
  517TIP3    H225531   1.540   1.810   8.242
  518TIP3   OH225532   0.015   0.116   8.809
  518TIP3    H125533  -0.048   0.100   8.880
  518TIP3    H225534  -0.029   0.193   8.766
  519TIP3   OH225535   0.236   1.450   9.235
  519TIP3    H125536   0.154   1.469   9.185
  519TIP3    H225537   0.206   1.440   9.325
  520TIP3   OH225538   0.580   1.599   8.903
  520TIP3    H125539   0.501   1.619   8.847
  520TIP3    H225540   0.628   1.557   8.829
  521TIP3   OH225541   0.956   1.689   9.149
  521TIP3    H125542   0.970   1.653   9.238
  521TIP3    H225543   1.046   1.719   9.122
  522TIP3   OH225544   1.185   1.816   9.078
  522TIP3    H125545   1.258   1.758   9.055
  522TIP3    H225546   1.222   1.861   9.156
  523TIP3   OH225547   1.675   0.099   8.992
  523TIP3    H125548   1.588   0.117   8.953
  523TIP3    H225549   1.685   0.006   8.971
  524TIP3   OH225550   0.266   1.870   8.859
  524TIP3    H125551   0.191   1.918   8.819
  524TIP3    H225552   0.233   1.852   8.948
  525TIP3   OH225553   0.519   1.839   8.766
  525TIP3    H125554   0.428   1.843   8.803
  525TIP3    H225555   0.507   1.888   8.684
  526TIP3   OH225556   0.986   1.819   8.680
  526TIP3    H125557   0.938   1.874   8.616
  526TIP3    H225558   0.997   1.882   8.755
  527TIP3   OH225559   1.212   1.699   8.786
  527TIP3    H125560   1.127   1.727   8.748
  527TIP3    H225561   1.261   1.782   8.776
  528TIP3   OH225562   1.474   1.855   8.805
  528TIP3    H125563   1.466   1.952   8.785
  528TIP3    H225564   1.491   1.821   8.716
  529TIP3   OH225565   0.215   1.740   8.547
  529TIP3    H125566   0.202   1.695   8.633
  529TIP3    H225567   0.296   1.696   8.512
  530TIP3   OH225568   0.419   1.606   8.416
  530TIP3    H125569   0.404   1.513   8.444
  530TIP3    H225570   0.503   1.622   8.463
  531TIP3   OH225571   0.681   1.656   8.506
  531TIP3    H125572   0.695   1.563   8.479
  531TIP3    H225573   0.682   1.647   8.603
  532TIP3   OH225574   1.022   0.226   8.414
  532TIP3    H125575   0.960   0.158   8.445
  532TIP3    H225576   1.084   0.172   8.364
  533TIP3   OH225577   1.542   0.057   8.441
  533TIP3    H125578   1.603   0.090   8.372
  533TIP3    H225579   1.453   0.057   8.399
  534TIP3   OH225580   1.708   0.156   8.250
  534TIP3    H125581   1.771   0.093   8.212
  534TIP3    H225582   1.761   0.237   8.264
  535TIP3   OH225583   0.267   0.082   8.200
  535TIP3    H125584   0.186   0.065   8.148
  535TIP3    H225585   0.309  -0.005   8.196
  536TIP3   OH225586   0.171   0.102   7.782
  536TIP3    H125587   0.183   0.156   7.701
  536TIP3    H225588   0.089   0.140   7.820
  537TIP3   OH225589   0.703   0.089   8.182
  537TIP3    H125590   0.797   0.112   8.171
  537TIP3    H225591   0.711   0.054   8.272
  538TIP3   OH225592   1.280   0.079   8.347
  538TIP3    H125593   1.277   0.087   8.251
  538TIP3    H225594   1.248  -0.012   8.359
  539TIP3   OH225595   1.394   0.092   7.884
  539TIP3    H125596   1.321   0.155   7.890
  539TIP3    H225597   1.364   0.014   7.929
  540TIP3   OH225598   0.135   1.661   7.872
  540TIP3    H125599   0.067   1.653   7.804
  540TIP3    H225600   0.126   1.753   7.897
  541TIP3   OH225601   0.325   0.256   7.631
  541TIP3    H125602   0.368   0.201   7.566
  541TIP3    H225603   0.395   0.284   7.692
  542TIP3   OH225604   0.817   0.281   7.868
  542TIP3    H125605   0.853   0.220   7.934
  542TIP3    H225606   0.831   0.366   7.913
  543TIP3   OH225607   1.022   1.778   7.707
  543TIP3    H125608   1.108   1.812   7.685
  543TIP3    H225609   0.991   1.735   7.626
  544TIP3   OH225610   1.682   1.735   7.984
  544TIP3    H125611   1.670   1.655   7.927
  544TIP3    H225612   1.684   1.805   7.917
  545TIP3   OH225613   0.253   0.146   9.157
  545TIP3    H125614   0.219   0.059   9.183
  545TIP3    H225615   0.347   0.131   9.180
  546TIP3   OH225616   0.458   0.081   9.325
  546TIP3    H125617   0.540   0.048   9.286
  546TIP3    H225618   0.410  -0.002   9.339
  547TIP3   OH225619   0.312   1.750   7.580
  547TIP3    H125620   0.290   1.773   7.669
  547TIP3    H225621   0.392   1.697   7.589
  548TIP3   OH225622   1.304   8.106   9.332
  548TIP3    H125623   1.302   8.038   9.402
  548TIP3    H225624   1.387   8.084   9.288
  549TIP3   OH225625   1.613   1.609   9.190
  549TIP3    H125626   1.533   1.596   9.135
  549TIP3    H225627   1.601   1.703   9.212
  550TIP3   OH225628   3.059   0.997   8.187
  550TIP3    H125629   3.056   1.095   8.184
  550TIP3    H225630   2.984   0.974   8.131
  551TIP3   OH225631   2.939   0.923   8.538
  551TIP3    H125632   2.944   0.857   8.609
  551TIP3    H225633   2.908   0.869   8.463
  552TIP3   OH225634   2.179   0.891   8.692
  552TIP3    H125635   2.186   0.822   8.761
  552TIP3    H225636   2.254   0.947   8.717
  553TIP3   OH225637   3.311   1.217   8.368
  553TIP3    H125638   3.270   1.145   8.417
  553TIP3    H225639   3.314   1.287   8.435
  554TIP3   OH225640   2.268   1.333   8.548
  554TIP3    H125641   2.237   1.247   8.512
  554TIP3    H225642   2.363   1.316   8.540
  555TIP3   OH225643   1.933   0.688   8.095
  555TIP3    H125644   1.894   0.777   8.087
  555TIP3    H225645   1.878   0.637   8.034
  556TIP3   OH225646   2.009   0.916   8.310
  556TIP3    H125647   2.032   0.831   8.352
  556TIP3    H225648   2.076   0.923   8.240
  557TIP3   OH225649   3.025   1.734   8.391
  557TIP3    H125650   3.089   1.665   8.361
  557TIP3    H225651   3.001   1.697   8.477
  558TIP3   OH225652   2.777   1.165   8.593
  558TIP3    H125653   2.809   1.103   8.524
  558TIP3    H225654   2.864   1.176   8.637
  559TIP3   OH225655   3.644   0.321   8.660
  559TIP3    H125656   3.656   0.386   8.734
  559TIP3    H225657   3.695   0.367   8.592
  560TIP3   OH225658   3.097   0.608   8.619
  560TIP3    H125659   3.114   0.511   8.619
  560TIP3    H225660   3.087   0.622   8.523
  561TIP3   OH225661   2.409   0.418   8.338
  561TIP3    H125662   2.420   0.502   8.288
  561TIP3    H225663   2.369   0.361   8.270
  562TIP3   OH225664   3.182   0.425   8.176
  562TIP3    H125665   3.246   0.396   8.244
  562TIP3    H225666   3.238   0.483   8.122
  563TIP3   OH225667   2.069   0.659   8.411
  563TIP3    H125668   2.137   0.606   8.458
  563TIP3    H225669   2.082   0.628   8.320
  564TIP3   OH225670   2.586   0.816   8.347
  564TIP3    H125671   2.654   0.757   8.384
  564TIP3    H225672   2.536   0.752   8.293
  565TIP3   OH225673   3.686   0.471   8.885
  565TIP3    H125674   3.623   0.545   8.875
  565TIP3    H225675   3.687   0.456   8.981
  566TIP3   OH225676   2.300   0.310   8.738
  566TIP3    H125677   2.270   0.370   8.666
  566TIP3    H225678   2.233   0.331   8.809
  567TIP3   OH225679   3.025   1.255   8.097
  567TIP3    H125680   2.999   1.232   8.007
  567TIP3    H225681   2.999   1.350   8.103
  568TIP3   OH225682   2.547   1.072   8.759
  568TIP3    H125683   2.477   1.130   8.796
  568TIP3    H225684   2.629   1.121   8.745
  569TIP3   OH225685   3.363   0.365   8.376
  569TIP3    H125686   3.339   0.286   8.427
  569TIP3    H225687   3.432   0.404   8.431
  570TIP3   OH225688   2.256   0.499   8.544
  570TIP3    H125689   2.322   0.564   8.577
  570TIP3    H225690   2.308   0.455   8.472
  571TIP3   OH225691   2.398   1.275   8.841
  571TIP3    H125692   2.382   1.370   8.821
  571TIP3    H225693   2.313   1.259   8.891
  572TIP3   OH225694   1.998   1.234   7.928
  572TIP3    H125695   1.981   1.264   7.837
  572TIP3    H225696   2.008   1.318   7.976
  573TIP3   OH225697   3.363   1.401   8.604
  573TIP3    H125698   3.267   1.412   8.615
  573TIP3    H225699   3.391   1.492   8.583
  574TIP3   OH225700   3.399   0.235   8.754
  574TIP3    H125701   3.324   0.292   8.732
  574TIP3    H225702   3.467   0.264   8.691
  575TIP3   OH225703   2.685   0.051   8.454
  575TIP3    H125704   2.694  -0.039   8.489
  575TIP3    H225705   2.612   0.080   8.511
  576TIP3   OH225706   3.191   1.578   8.265
  576TIP3    H125707   3.232   1.507   8.212
  576TIP3    H225708   3.235   1.657   8.226
  577TIP3   OH225709   3.312   1.372   8.116
  577TIP3    H125710   3.284   1.303   8.054
  577TIP3    H225711   3.315   1.322   8.199
  578TIP3   OH225712   3.472   1.232   8.964
  578TIP3    H125713   3.487   1.166   8.893
  578TIP3    H225714   3.494   1.315   8.918
  579TIP3   OH225715   2.923   0.915   7.937
  579TIP3    H125716   2.856   0.981   7.909
  579TIP3    H225717   2.996   0.933   7.875
  580TIP3   OH225718   3.662   0.863   8.768
  580TIP3    H125719   3.596   0.936   8.771
  580TIP3    H225720   3.713   0.886   8.687
  581TIP3   OH225721   3.268   0.937   8.032
  581TIP3    H125722   3.197   0.966   8.094
  581TIP3    H225723   3.319   0.875   8.088
  582TIP3   OH225724   3.261   0.757   8.946
  582TIP3    H125725   3.261   0.840   8.997
  582TIP3    H225726   3.199   0.785   8.876
  583TIP3   OH225727   2.428   1.008   8.228
  583TIP3    H125728   2.396   0.971   8.142
  583TIP3    H225729   2.491   0.938   8.256
  584TIP3   OH225730   2.562   1.344   8.480
  584TIP3    H125731   2.554   1.297   8.394
  584TIP3    H225732   2.652   1.317   8.504
  585TIP3   OH225733   2.460   0.883   8.590
  585TIP3    H125734   2.515   0.889   8.509
  585TIP3    H225735   2.503   0.946   8.651
  586TIP3   OH225736   3.101   1.439   8.660
  586TIP3    H125737   3.079   1.503   8.729
  586TIP3    H225738   3.081   1.354   8.704
  587TIP3   OH225739   2.559   1.327   9.053
  587TIP3    H125740   2.517   1.396   9.110
  587TIP3    H225741   2.485   1.303   8.994
  588TIP3   OH225742   3.155   0.860   7.797
  588TIP3    H125743   3.209   0.879   7.878
  588TIP3    H225744   3.197   0.914   7.729
  589TIP3   OH225745   2.255   0.946   8.970
  589TIP3    H125746   2.257   1.006   9.046
  589TIP3    H225747   2.159   0.948   8.954
  590TIP3   OH225748   2.929   1.533   8.144
  590TIP3    H125749   2.971   1.565   8.226
  590TIP3    H225750   2.871   1.606   8.120
  591TIP3   OH225751   2.383   1.525   9.132
  591TIP3    H125752   2.373   1.519   9.036
  591TIP3    H225753   2.291   1.515   9.163
  592TIP3   OH225754   3.534   0.040   7.792
  592TIP3    H125755   3.437   0.039   7.808
  592TIP3    H225756   3.538   0.120   7.738
  593TIP3   OH225757   2.327   0.907   7.983
  593TIP3    H125758   2.298   0.987   7.934
  593TIP3    H225759   2.257   0.845   7.960
  594TIP3   OH225760   3.652   1.466   7.647
  594TIP3    H125761   3.654   1.561   7.632
  594TIP3    H225762   3.736   1.436   7.613
  595TIP3   OH225763   1.934   1.152   8.877
  595TIP3    H125764   1.891   1.142   8.790
  595TIP3    H225765   1.945   1.057   8.898
  596TIP3   OH225766   1.910   1.442   8.544
  596TIP3    H125767   2.002   1.407   8.550
  596TIP3    H225768   1.913   1.502   8.620
  597TIP3   OH225769   3.735   1.497   9.123
  597TIP3    H125770   3.723   1.401   9.119
  597TIP3    H225771   3.647   1.521   9.160
  598TIP3   OH225772   2.827   1.450   9.004
  598TIP3    H125773   2.838   1.532   9.057
  598TIP3    H225774   2.743   1.413   9.036
  599TIP3   OH225775   2.874   1.826   7.990
  599TIP3    H125776   2.868   1.818   7.894
  599TIP3    H225777   2.878   1.922   8.005
  600TIP3   OH225778   2.235   1.716   8.174
  600TIP3    H125779   2.255   1.670   8.258
  600TIP3    H225780   2.155   1.669   8.143
  601TIP3   OH225781   3.147   1.745   7.967
  601TIP3    H125782   3.051   1.746   7.979
  601TIP3    H225783   3.172   1.666   8.017
  602TIP3   OH225784   3.448   0.645   9.170
  602TIP3    H125785   3.401   0.689   9.097
  602TIP3    H225786   3.448   0.553   9.140
  603TIP3   OH225787   2.168   1.281   8.968
  603TIP3    H125788   2.185   1.248   9.059
  603TIP3    H225789   2.078   1.246   8.949
  604TIP3   OH225790   2.435   0.137   8.559
  604TIP3    H125791   2.347   0.132   8.518
  604TIP3    H225792   2.418   0.214   8.616
  605TIP3   OH225793   2.898   0.102   8.905
  605TIP3    H125794   2.938   0.055   8.978
  605TIP3    H225795   2.802   0.086   8.917
  606TIP3   OH225796   3.223   0.478   8.990
  606TIP3    H125797   3.167   0.462   9.069
  606TIP3    H225798   3.209   0.572   8.968
  607TIP3   OH225799   2.442   0.629   8.693
  607TIP3    H125800   2.367   0.629   8.755
  607TIP3    H225801   2.437   0.719   8.653
  608TIP3   OH225802   2.438   0.638   8.176
  608TIP3    H125803   2.343   0.616   8.162
  608TIP3    H225804   2.475   0.611   8.091
  609TIP3   OH225805   2.984   0.683   8.041
  609TIP3    H125806   2.953   0.775   8.020
  609TIP3    H225807   3.066   0.675   7.991
  610TIP3   OH225808   2.895   0.712   9.197
  610TIP3    H125809   2.843   0.634   9.227
  610TIP3    H225810   2.979   0.700   9.244
  611TIP3   OH225811   3.094   0.641   8.338
  611TIP3    H125812   3.065   0.697   8.264
  611TIP3    H225813   3.103   0.555   8.292
  612TIP3   OH225814   2.202   0.655   8.857
  612TIP3    H125815   2.214   0.694   8.945
  612TIP3    H225816   2.160   0.570   8.879
  613TIP3   OH225817   1.873   0.370   8.256
  613TIP3    H125818   1.940   0.363   8.328
  613TIP3    H225819   1.916   0.329   8.179
  614TIP3   OH225820   1.995   0.444   7.799
  614TIP3    H125821   2.046   0.496   7.736
  614TIP3    H225822   1.926   0.507   7.825
  615TIP3   OH225823   3.013   0.797   8.792
  615TIP3    H125824   3.052   0.728   8.734
  615TIP3    H225825   2.966   0.745   8.859
  616TIP3   OH225826   2.695   0.400   8.277
  616TIP3    H125827   2.602   0.393   8.304
  616TIP3    H225828   2.742   0.378   8.359
  617TIP3   OH225829   2.175   0.552   8.163
  617TIP3    H125830   2.086   0.565   8.123
  617TIP3    H225831   2.204   0.469   8.122
  618TIP3   OH225832   2.537   0.553   7.914
  618TIP3    H125833   2.628   0.567   7.947
  618TIP3    H225834   2.511   0.630   7.863
  619TIP3   OH225835   3.136   0.323   8.596
  619TIP3    H125836   3.068   0.323   8.667
  619TIP3    H225837   3.087   0.289   8.520
  620TIP3   OH225838   3.453   1.883   9.233
  620TIP3    H125839   3.480   1.921   9.148
  620TIP3    H225840   3.526   1.915   9.289
  621TIP3   OH225841   2.221   1.131   9.191
  621TIP3    H125842   2.294   1.155   9.251
  621TIP3    H225843   2.144   1.137   9.252
  622TIP3   OH225844   2.822   0.672   8.466
  622TIP3    H125845   2.882   0.618   8.414
  622TIP3    H225846   2.806   0.617   8.544
  623TIP3   OH225847   2.320   0.288   8.107
  623TIP3    H125848   2.291   0.195   8.109
  623TIP3    H225849   2.400   0.277   8.054
  624TIP3   OH225850   2.685   0.504   8.708
  624TIP3    H125851   2.603   0.558   8.716
  624TIP3    H225852   2.742   0.540   8.779
  625TIP3   OH225853   2.746   1.115   7.879
  625TIP3    H125854   2.661   1.081   7.845
  625TIP3    H225855   2.721   1.145   7.969
  626TIP3   OH225856   3.464   1.048   8.758
  626TIP3    H125857   3.519   1.096   8.693
  626TIP3    H225858   3.378   1.050   8.712
  627TIP3   OH225859   3.131   0.410   7.688
  627TIP3    H125860   3.037   0.410   7.688
  627TIP3    H225861   3.165   0.493   7.730
  628TIP3   OH225862   2.884   1.155   8.998
  628TIP3    H125863   2.862   1.110   9.080
  628TIP3    H225864   2.870   1.248   9.018
  629TIP3   OH225865   3.198   0.601   7.862
  629TIP3    H125866   3.287   0.586   7.903
  629TIP3    H225867   3.214   0.684   7.814
  630TIP3   OH225868   2.261   1.069   8.460
  630TIP3    H125869   2.320   1.055   8.384
  630TIP3    H225870   2.259   0.980   8.501
  631TIP3   OH225871   2.952   1.274   7.783
  631TIP3    H125872   2.919   1.360   7.817
  631TIP3    H225873   2.880   1.212   7.803
  632TIP3   OH225874   1.955   0.906   8.983
  632TIP3    H125875   1.971   0.862   9.069
  632TIP3    H225876   1.894   0.845   8.940
  633TIP3   OH225877   2.655   0.864   9.199
  633TIP3    H125878   2.623   0.830   9.115
  633TIP3    H225879   2.747   0.829   9.200
  634TIP3   OH225880   3.126   1.396   8.998
  634TIP3    H125881   3.034   1.414   8.973
  634TIP3    H225882   3.122   1.426   9.091
  635TIP3   OH225883   3.689   0.615   7.836
  635TIP3    H125884   3.630   0.588   7.763
  635TIP3    H225885   3.698   0.710   7.813
  636TIP3   OH225886   3.690   1.200   9.115
  636TIP3    H125887   3.600   1.222   9.079
  636TIP3    H225888   3.744   1.194   9.033
  637TIP3   OH225889   3.523   1.495   7.877
  637TIP3    H125890   3.482   1.413   7.906
  637TIP3    H225891   3.551   1.474   7.785
  638TIP3   OH225892   3.241   0.978   8.585
  638TIP3    H125893   3.147   0.958   8.574
  638TIP3    H225894   3.284   0.903   8.541
  639TIP3   OH225895   2.492   1.413   8.199
  639TIP3    H125896   2.542   1.493   8.171
  639TIP3    H225897   2.406   1.434   8.161
  640TIP3   OH225898   2.635   1.179   8.152
  640TIP3    H125899   2.600   1.270   8.154
  640TIP3    H225900   2.561   1.128   8.189
  641TIP3   OH225901   2.680   1.591   8.787
  641TIP3    H125902   2.723   1.675   8.760
  641TIP3    H225903   2.741   1.565   8.858
  642TIP3   OH225904   2.500   1.673   8.114
  642TIP3    H125905   2.405   1.693   8.112
  642TIP3    H225906   2.538   1.762   8.130
  643TIP3   OH225907   3.024   1.192   8.747
  643TIP3    H125908   3.002   1.177   8.841
  643TIP3    H225909   3.095   1.127   8.732
  644TIP3   OH225910   3.257   1.301   7.666
  644TIP3    H125911   3.289   1.250   7.741
  644TIP3    H225912   3.162   1.286   7.666
  645TIP3   OH225913   3.314   1.654   8.998
  645TIP3    H125914   3.244   1.605   8.952
  645TIP3    H225915   3.331   1.724   8.932
  646TIP3   OH225916   3.717   1.743   7.694
  646TIP3    H125917   3.784   1.804   7.661
  646TIP3    H225918   3.641   1.799   7.711
  647TIP3   OH225919   2.119   0.379   8.939
  647TIP3    H125920   2.029   0.413   8.937
  647TIP3    H225921   2.106   0.293   8.983
  648TIP3   OH225922   3.344   1.169   7.894
  648TIP3    H125923   3.321   1.086   7.939
  648TIP3    H225924   3.440   1.169   7.901
  649TIP3   OH225925   2.082   1.555   8.777
  649TIP3    H125926   2.113   1.464   8.784
  649TIP3    H225927   2.104   1.588   8.866
  650TIP3   OH225928   2.220   1.090   7.813
  650TIP3    H125929   2.138   1.125   7.852
  650TIP3    H225930   2.254   1.171   7.770
  651TIP3   OH225931   2.993   0.356   8.836
  651TIP3    H125932   3.065   0.359   8.900
  651TIP3    H225933   2.957   0.267   8.853
  652TIP3   OH225934   3.067   0.317   7.945
  652TIP3    H125935   3.099   0.357   7.863
  652TIP3    H225936   3.123   0.362   8.011
  653TIP3   OH225937   2.839   1.535   7.831
  653TIP3    H125938   2.753   1.579   7.826
  653TIP3    H225939   2.887   1.579   7.760
  654TIP3   OH225940   2.786   0.495   8.021
  654TIP3    H125941   2.868   0.547   8.034
  654TIP3    H225942   2.760   0.474   8.113
  655TIP3   OH225943   2.847   0.593   8.945
  655TIP3    H125944   2.854   0.646   9.027
  655TIP3    H225945   2.910   0.521   8.955
  656TIP3   OH225946   2.877   0.197   8.115
  656TIP3    H125947   2.842   0.263   8.178
  656TIP3    H225948   2.945   0.252   8.070
  657TIP3   OH225949   2.441   0.310   7.777
  657TIP3    H125950   2.433   0.395   7.824
  657TIP3    H225951   2.527   0.280   7.811
  658TIP3   OH225952   3.462   0.382   9.028
  658TIP3    H125953   3.369   0.411   9.014
  658TIP3    H225954   3.492   0.373   8.936
  659TIP3   OH225955   3.325   0.757   8.428
  659TIP3    H125956   3.242   0.712   8.402
  659TIP3    H225957   3.373   0.689   8.480
  660TIP3   OH225958   2.271   1.339   7.700
  660TIP3    H125959   2.324   1.419   7.716
  660TIP3    H225960   2.314   1.303   7.621
  661TIP3   OH225961   3.431   1.684   8.596
  661TIP3    H125962   3.423   1.752   8.526
  661TIP3    H225963   3.527   1.688   8.614
  662TIP3   OH225964   2.166   0.120   8.464
  662TIP3    H125965   2.151   0.106   8.367
  662TIP3    H225966   2.145   0.031   8.498
  663TIP3   OH225967   2.075   1.492   8.096
  663TIP3    H125968   1.989   1.533   8.079
  663TIP3    H225969   2.124   1.530   8.020
  664TIP3   OH225970   1.995   1.753   9.219
  664TIP3    H125971   2.056   1.733   9.293
  664TIP3    H225972   1.956   1.666   9.200
  665TIP3   OH225973   2.465   1.645   9.379
  665TIP3    H125974   2.539   1.595   9.414
  665TIP3    H225975   2.462   1.616   9.286
  666TIP3   OH225976   3.113   1.483   9.256
  666TIP3    H125977   3.082   1.394   9.284
  666TIP3    H225978   3.191   1.495   9.315
  667TIP3   OH225979   1.985   1.130   9.320
  667TIP3    H125980   2.003   1.038   9.291
  667TIP3    H225981   1.912   1.155   9.262
  668TIP3   OH225982   2.424   1.153   7.519
  668TIP3    H125983   2.432   1.089   7.591
  668TIP3    H225984   2.507   1.146   7.472
  669TIP3   OH225985   2.658   1.129   9.259
  669TIP3    H125986   2.625   1.160   9.173
  669TIP3    H225987   2.665   1.031   9.247
  670TIP3   OH225988   2.939   1.271   7.498
  670TIP3    H125989   2.941   1.285   7.594
  670TIP3    H225990   2.955   1.176   7.488
  671TIP3   OH225991   3.227   1.114   8.997
  671TIP3    H125992   3.307   1.172   8.993
  671TIP3    H225993   3.159   1.182   9.001
  672TIP3   OH225994   2.080   0.852   9.258
  672TIP3    H125995   2.120   0.765   9.250
  672TIP3    H225996   2.056   0.853   9.352
  673TIP3   OH225997   2.550   0.963   7.762
  673TIP3    H125998   2.492   0.921   7.828
  673TIP3    H225999   2.568   0.893   7.699
  674TIP3   OH226000   2.468   0.746   8.993
  674TIP3    H126001   2.409   0.819   9.018
  674TIP3    H226002   2.509   0.781   8.913
  675TIP3   OH226003   2.977   1.004   9.328
  675TIP3    H126004   3.073   1.001   9.316
  675TIP3    H226005   2.959   0.927   9.384
  676TIP3   OH226006   2.511   0.487   9.098
  676TIP3    H126007   2.522   0.417   9.032
  676TIP3    H226008   2.505   0.568   9.043
  677TIP3   OH226009   2.551   0.323   8.854
  677TIP3    H126010   2.601   0.369   8.783
  677TIP3    H226011   2.461   0.316   8.815
  678TIP3   OH226012   2.703   0.874   8.878
  678TIP3    H126013   2.780   0.854   8.823
  678TIP3    H226014   2.668   0.956   8.843
  679TIP3   OH226015   3.143   0.646   9.373
  679TIP3    H126016   3.167   0.552   9.365
  679TIP3    H226017   3.229   0.691   9.378
  680TIP3   OH226018   3.278   0.929   9.193
  680TIP3    H126019   3.252   0.999   9.130
  680TIP3    H226020   3.373   0.924   9.174
  681TIP3   OH226021   2.356   0.609   9.290
  681TIP3    H126022   2.279   0.552   9.274
  681TIP3    H226023   2.422   0.572   9.229
  682TIP3   OH226024   2.620   0.075   8.896
  682TIP3    H126025   2.608   0.173   8.884
  682TIP3    H226026   2.545   0.037   8.851
  683TIP3   OH226027   2.755   0.500   9.257
  683TIP3    H126028   2.724   0.476   9.346
  683TIP3    H226029   2.678   0.478   9.202
  684TIP3   OH226030   3.027   0.421   9.168
  684TIP3    H126031   2.931   0.417   9.176
  684TIP3    H226032   3.056   0.353   9.232
  685TIP3   OH226033   3.185   0.285   9.354
  685TIP3    H126034   3.184   0.186   9.352
  685TIP3    H226035   3.160   0.303   9.446
  686TIP3   OH226036   2.163   0.405   9.266
  686TIP3    H126037   2.188   0.330   9.208
  686TIP3    H226038   2.155   0.360   9.353
  687TIP3   OH226039   2.661   8.142   9.140
  687TIP3    H126040   2.728   8.071   9.146
  687TIP3    H226041   2.638   8.128   9.047
  688TIP3   OH226042   2.684   0.173   9.375
  688TIP3    H126043   2.672   0.127   9.289
  688TIP3    H226044   2.627   0.250   9.365
  689TIP3   OH226045   1.863   1.854   8.139
  689TIP3    H126046   1.796   1.804   8.087
  689TIP3    H226047   1.898   1.788   8.201
  690TIP3   OH226048   1.937   1.670   8.328
  690TIP3    H126049   1.933   1.574   8.335
  690TIP3    H226050   1.989   1.700   8.407
  691TIP3   OH226051   3.703   1.748   8.616
  691TIP3    H126052   3.706   1.763   8.712
  691TIP3    H226053   3.773   1.806   8.586
  692TIP3   OH226054   3.660   1.707   8.911
  692TIP3    H126055   3.613   1.630   8.872
  692TIP3    H226056   3.708   1.662   8.983
  693TIP3   OH226057   3.504   1.279   9.379
  693TIP3    H126058   3.414   1.277   9.415
  693TIP3    H226059   3.541   1.360   9.419
  694TIP3   OH226060   3.640   1.111   7.917
  694TIP3    H126061   3.725   1.152   7.940
  694TIP3    H226062   3.636   1.041   7.986
  695TIP3   OH226063   3.671   0.921   8.108
  695TIP3    H126064   3.596   0.871   8.148
  695TIP3    H226065   3.731   0.933   8.185
  696TIP3   OH226066   3.647   1.189   8.609
  696TIP3    H126067   3.728   1.151   8.570
  696TIP3    H226068   3.662   1.284   8.591
  697TIP3   OH226069   3.504   1.480   8.835
  697TIP3    H126070   3.435   1.514   8.894
  697TIP3    H226071   3.449   1.440   8.764
  698TIP3   OH226072   3.694   0.899   7.748
  698TIP3    H126073   3.647   0.942   7.676
  698TIP3    H226074   3.697   0.974   7.811
  699TIP3   OH226075   3.546   0.615   7.602
  699TIP3    H126076   3.535   0.691   7.543
  699TIP3    H226077   3.510   0.544   7.549
  700TIP3   OH226078   3.454   0.767   8.168
  700TIP3    H126079   3.440   0.672   8.162
  700TIP3    H226080   3.423   0.787   8.258
  701TIP3   OH226081   1.952   0.975   8.575
  701TIP3    H126082   1.969   0.966   8.478
  701TIP3    H226083   2.043   0.957   8.608
  702TIP3   OH226084   3.541   0.965   9.137
  702TIP3    H126085   3.601   0.888   9.149
  702TIP3    H226086   3.602   1.041   9.137
  703TIP3   OH226087   3.690   0.751   9.201
  703TIP3    H126088   3.602   0.712   9.186
  703TIP3    H226089   3.747   0.673   9.194
  704TIP3   OH226090   3.420   0.528   8.010
  704TIP3    H126091   3.450   0.436   8.025
  704TIP3    H226092   3.502   0.566   7.976
  705TIP3   OH226093   3.484   0.582   8.556
  705TIP3    H126094   3.581   0.601   8.555
  705TIP3    H226095   3.466   0.590   8.651
  706TIP3   OH226096   3.490   0.654   8.833
  706TIP3    H126097   3.402   0.682   8.866
  706TIP3    H226098   3.535   0.740   8.813
  707TIP3   OH226099   1.919   0.509   9.191
  707TIP3    H126100   2.011   0.481   9.207
  707TIP3    H226101   1.871   0.427   9.214
  708TIP3   OH226102   3.731   0.068   9.385
  708TIP3    H126103   3.744   0.001   9.315
  708TIP3    H226104   3.725   0.144   9.325
  709TIP3   OH226105   3.484   0.257   8.014
  709TIP3    H126106   3.508   0.214   8.100
  709TIP3    H226107   3.424   0.192   7.973
  710TIP3   OH226108   2.031   0.342   8.475
  710TIP3    H126109   2.077   0.258   8.496
  710TIP3    H226110   2.092   0.407   8.512
  711TIP3   OH226111   1.861   0.637   8.574
  711TIP3    H126112   1.921   0.608   8.502
  711TIP3    H226113   1.913   0.715   8.603
  712TIP3   OH226114   3.673   0.273   9.202
  712TIP3    H126115   3.578   0.294   9.199
  712TIP3    H226116   3.673   0.211   9.127
  713TIP3   OH226117   1.900   0.262   7.984
  713TIP3    H126118   1.807   0.280   7.968
  713TIP3    H226119   1.943   0.310   7.910
  714TIP3   OH226120   3.375   1.755   8.180
  714TIP3    H126121   3.442   1.725   8.117
  714TIP3    H226122   3.425   1.806   8.244
  715TIP3   OH226123   1.901   0.140   8.808
  715TIP3    H126124   1.841   0.118   8.880
  715TIP3    H226125   1.849   0.203   8.754
  716TIP3   OH226126   2.121   1.445   9.229
  716TIP3    H126127   2.037   1.468   9.186
  716TIP3    H226128   2.094   1.438   9.321
  717TIP3   OH226129   2.410   1.544   8.850
  717TIP3    H126130   2.376   1.634   8.833
  717TIP3    H226131   2.504   1.562   8.830
  718TIP3   OH226132   2.842   1.689   9.148
  718TIP3    H126133   2.856   1.654   9.239
  718TIP3    H226134   2.932   1.720   9.124
  719TIP3   OH226135   3.070   1.816   9.079
  719TIP3    H126136   3.144   1.758   9.055
  719TIP3    H226137   3.108   1.860   9.159
  720TIP3   OH226138   3.561   0.099   8.992
  720TIP3    H126139   3.474   0.118   8.954
  720TIP3    H226140   3.569   0.005   8.970
  721TIP3   OH226141   2.154   1.870   8.855
  721TIP3    H126142   2.079   1.921   8.819
  721TIP3    H226143   2.124   1.852   8.946
  722TIP3   OH226144   2.400   1.828   8.765
  722TIP3    H126145   2.310   1.842   8.804
  722TIP3    H226146   2.394   1.880   8.684
  723TIP3   OH226147   2.866   1.814   8.683
  723TIP3    H126148   2.826   1.872   8.617
  723TIP3    H226149   2.884   1.879   8.755
  724TIP3   OH226150   3.098   1.699   8.786
  724TIP3    H126151   3.013   1.727   8.747
  724TIP3    H226152   3.148   1.782   8.776
  725TIP3   OH226153   3.356   1.856   8.806
  725TIP3    H126154   3.353   1.952   8.783
  725TIP3    H226155   3.379   1.818   8.718
  726TIP3   OH226156   2.092   1.730   8.549
  726TIP3    H126157   2.094   1.691   8.639
  726TIP3    H226158   2.178   1.699   8.512
  727TIP3   OH226159   2.301   1.606   8.422
  727TIP3    H126160   2.290   1.511   8.440
  727TIP3    H226161   2.390   1.624   8.458
  728TIP3   OH226162   2.563   1.657   8.507
  728TIP3    H126163   2.581   1.567   8.475
  728TIP3    H226164   2.572   1.650   8.603
  729TIP3   OH226165   2.907   0.226   8.413
  729TIP3    H126166   2.846   0.158   8.445
  729TIP3    H226167   2.970   0.171   8.365
  730TIP3   OH226168   3.429   0.054   8.441
  730TIP3    H126169   3.488   0.090   8.371
  730TIP3    H226170   3.340   0.058   8.401
  731TIP3   OH226171   3.594   0.157   8.246
  731TIP3    H126172   3.658   0.093   8.213
  731TIP3    H226173   3.646   0.238   8.267
  732TIP3   OH226174   2.141   0.078   8.205
  732TIP3    H126175   2.069   0.064   8.143
  732TIP3    H226176   2.193  -0.003   8.193
  733TIP3   OH226177   2.050   0.103   7.788
  733TIP3    H126178   2.073   0.155   7.708
  733TIP3    H226179   1.964   0.138   7.818
  734TIP3   OH226180   2.590   0.087   8.182
  734TIP3    H126181   2.682   0.114   8.172
  734TIP3    H226182   2.597   0.053   8.272
  735TIP3   OH226183   3.166   0.079   8.347
  735TIP3    H126184   3.164   0.084   8.251
  735TIP3    H226185   3.132  -0.012   8.359
  736TIP3   OH226186   3.278   0.093   7.876
  736TIP3    H126187   3.205   0.154   7.894
  736TIP3    H226188   3.251   0.013   7.923
  737TIP3   OH226189   2.011   1.657   7.885
  737TIP3    H126190   1.955   1.652   7.805
  737TIP3    H226191   2.022   1.753   7.889
  738TIP3   OH226192   2.206   0.245   7.624
  738TIP3    H126193   2.265   0.191   7.573
  738TIP3    H226194   2.270   0.284   7.686
  739TIP3   OH226195   2.705   0.285   7.872
  739TIP3    H126196   2.736   0.220   7.937
  739TIP3    H226197   2.718   0.367   7.923
  740TIP3   OH226198   2.906   1.787   7.704
  740TIP3    H126199   3.000   1.802   7.689
  740TIP3    H226200   2.881   1.729   7.630
  741TIP3   OH226201   3.572   1.738   7.979
  741TIP3    H126202   3.554   1.656   7.925
  741TIP3    H226203   3.564   1.809   7.915
  742TIP3   OH226204   2.138   0.142   9.152
  742TIP3    H126205   2.102   0.058   9.183
  742TIP3    H226206   2.230   0.130   9.181
  743TIP3   OH226207   2.341   0.083   9.325
  743TIP3    H126208   2.423   0.050   9.286
  743TIP3    H226209   2.294  -0.002   9.337
  744TIP3   OH226210   3.190   8.106   9.333
  744TIP3    H126211   3.188   8.039   9.402
  744TIP3    H226212   3.273   8.084   9.288
  745TIP3   OH226213   3.499   1.609   9.190
  745TIP3    H126214   3.418   1.596   9.135
  745TIP3    H226215   3.487   1.703   9.212
  746TIP3   OH226216   4.945   0.997   8.186
  746TIP3    H126217   4.941   1.095   8.186
  746TIP3    H226218   4.869   0.973   8.131
  747TIP3   OH226219   4.829   0.921   8.537
  747TIP3    H126220   4.827   0.857   8.610
  747TIP3    H226221   4.792   0.870   8.463
  748TIP3   OH226222   4.064   0.890   8.694
  748TIP3    H126223   4.072   0.821   8.762
  748TIP3    H226224   4.139   0.947   8.716
  749TIP3   OH226225   5.196   1.217   8.367
  749TIP3    H126226   5.156   1.145   8.417
  749TIP3    H226227   5.200   1.287   8.435
  750TIP3   OH226228   4.156   1.335   8.542
  750TIP3    H126229   4.125   1.247   8.512
  750TIP3    H226230   4.251   1.317   8.547
  751TIP3   OH226231   3.820   0.691   8.095
  751TIP3    H126232   3.776   0.777   8.086
  751TIP3    H226233   3.764   0.635   8.038
  752TIP3   OH226234   3.892   0.915   8.308
  752TIP3    H126235   3.919   0.831   8.352
  752TIP3    H226236   3.960   0.924   8.240
  753TIP3   OH226237   4.908   1.733   8.391
  753TIP3    H126238   4.974   1.665   8.361
  753TIP3    H226239   4.887   1.697   8.477
  754TIP3   OH226240   4.666   1.160   8.587
  754TIP3    H126241   4.699   1.100   8.519
  754TIP3    H226242   4.748   1.177   8.637
  755TIP3   OH226243   5.530   0.321   8.660
  755TIP3    H126244   5.542   0.386   8.733
  755TIP3    H226245   5.581   0.367   8.592
  756TIP3   OH226246   4.983   0.608   8.619
  756TIP3    H126247   4.999   0.511   8.619
  756TIP3    H226248   4.972   0.622   8.523
  757TIP3   OH226249   4.295   0.419   8.338
  757TIP3    H126250   4.306   0.503   8.288
  757TIP3    H226251   4.255   0.361   8.269
  758TIP3   OH226252   5.067   0.423   8.173
  758TIP3    H126253   5.131   0.396   8.244
  758TIP3    H226254   5.124   0.483   8.123
  759TIP3   OH226255   3.955   0.660   8.412
  759TIP3    H126256   4.022   0.606   8.458
  759TIP3    H226257   3.967   0.628   8.321
  760TIP3   OH226258   4.471   0.814   8.347
  760TIP3    H126259   4.540   0.756   8.383
  760TIP3    H226260   4.422   0.750   8.292
  761TIP3   OH226261   5.572   0.471   8.885
  761TIP3    H126262   5.508   0.545   8.875
  761TIP3    H226263   5.572   0.456   8.981
  762TIP3   OH226264   4.186   0.310   8.738
  762TIP3    H126265   4.156   0.370   8.666
  762TIP3    H226266   4.119   0.331   8.808
  763TIP3   OH226267   4.911   1.256   8.099
  763TIP3    H126268   4.887   1.233   8.009
  763TIP3    H226269   4.884   1.350   8.104
  764TIP3   OH226270   4.436   1.072   8.766
  764TIP3    H126271   4.366   1.136   8.789
  764TIP3    H226272   4.507   1.131   8.737
  765TIP3   OH226273   5.248   0.365   8.376
  765TIP3    H126274   5.225   0.286   8.427
  765TIP3    H226275   5.318   0.404   8.431
  766TIP3   OH226276   4.142   0.499   8.544
  766TIP3    H126277   4.207   0.564   8.577
  766TIP3    H226278   4.193   0.455   8.471
  767TIP3   OH226279   4.282   1.273   8.848
  767TIP3    H126280   4.276   1.364   8.815
  767TIP3    H226281   4.193   1.264   8.892
  768TIP3   OH226282   3.884   1.232   7.926
  768TIP3    H126283   3.865   1.264   7.836
  768TIP3    H226284   3.897   1.315   7.976
  769TIP3   OH226285   5.250   1.401   8.604
  769TIP3    H126286   5.153   1.412   8.616
  769TIP3    H226287   5.276   1.492   8.583
  770TIP3   OH226288   5.285   0.235   8.754
  770TIP3    H126289   5.210   0.292   8.732
  770TIP3    H226290   5.353   0.265   8.691
  771TIP3   OH226291   4.570   0.051   8.453
  771TIP3    H126292   4.578  -0.038   8.491
  771TIP3    H226293   4.498   0.081   8.510
  772TIP3   OH226294   5.076   1.578   8.264
  772TIP3    H126295   5.118   1.507   8.212
  772TIP3    H226296   5.120   1.657   8.225
  773TIP3   OH226297   5.199   1.370   8.114
  773TIP3    H126298   5.168   1.302   8.054
  773TIP3    H226299   5.200   1.323   8.199
  774TIP3   OH226300   5.358   1.232   8.964
  774TIP3    H126301   5.373   1.166   8.893
  774TIP3    H226302   5.379   1.315   8.918
  775TIP3   OH226303   4.807   0.923   7.938
  775TIP3    H126304   4.736   0.976   7.904
  775TIP3    H226305   4.882   0.927   7.874
  776TIP3   OH226306   4.818   0.778   7.643
  776TIP3    H126307   4.891   0.772   7.707
  776TIP3    H226308   4.840   0.704   7.584
  777TIP3   OH226309   5.548   0.863   8.767
  777TIP3    H126310   5.482   0.935   8.771
  777TIP3    H226311   5.598   0.887   8.687
  778TIP3   OH226312   5.154   0.943   8.032
  778TIP3    H126313   5.081   0.965   8.094
  778TIP3    H226314   5.202   0.876   8.084
  779TIP3   OH226315   5.147   0.757   8.946
  779TIP3    H126316   5.147   0.840   8.997
  779TIP3    H226317   5.084   0.785   8.876
  780TIP3   OH226318   4.316   1.007   8.222
  780TIP3    H126319   4.283   0.969   8.137
  780TIP3    H226320   4.375   0.937   8.258
  781TIP3   OH226321   4.445   1.345   8.493
  781TIP3    H126322   4.446   1.294   8.411
  781TIP3    H226323   4.525   1.309   8.537
  782TIP3   OH226324   4.347   0.882   8.591
  782TIP3    H126325   4.401   0.891   8.510
  782TIP3    H226326   4.387   0.948   8.651
  783TIP3   OH226327   4.991   1.439   8.662
  783TIP3    H126328   4.962   1.503   8.728
  783TIP3    H226329   4.965   1.354   8.703
  784TIP3   OH226330   4.443   1.325   9.060
  784TIP3    H126331   4.400   1.398   9.109
  784TIP3    H226332   4.376   1.304   8.990
  785TIP3   OH226333   5.041   0.861   7.798
  785TIP3    H126334   5.094   0.878   7.880
  785TIP3    H226335   5.084   0.915   7.730
  786TIP3   OH226336   4.138   0.940   8.973
  786TIP3    H126337   4.143   1.007   9.045
  786TIP3    H226338   4.043   0.946   8.955
  787TIP3   OH226339   4.814   1.532   8.143
  787TIP3    H126340   4.856   1.562   8.224
  787TIP3    H226341   4.757   1.608   8.123
  788TIP3   OH226342   4.268   1.528   9.134
  788TIP3    H126343   4.261   1.518   9.038
  788TIP3    H226344   4.175   1.514   9.162
  789TIP3   OH226345   5.418   0.048   7.791
  789TIP3    H126346   5.322   0.046   7.805
  789TIP3    H226347   5.433   0.127   7.738
  790TIP3   OH226348   4.209   0.908   7.990
  790TIP3    H126349   4.182   0.986   7.935
  790TIP3    H226350   4.146   0.842   7.960
  791TIP3   OH226351   5.531   1.467   7.651
  791TIP3    H126352   5.531   1.561   7.626
  791TIP3    H226353   5.614   1.438   7.610
  792TIP3   OH226354   3.821   1.153   8.877
  792TIP3    H126355   3.776   1.144   8.790
  792TIP3    H226356   3.830   1.058   8.898
  793TIP3   OH226357   3.796   1.427   8.551
  793TIP3    H126358   3.892   1.414   8.551
  793TIP3    H226359   3.788   1.508   8.603
  794TIP3   OH226360   5.622   1.496   9.127
  794TIP3    H126361   5.607   1.401   9.117
  794TIP3    H226362   5.532   1.521   9.158
  795TIP3   OH226363   4.716   1.450   9.008
  795TIP3    H126364   4.722   1.534   9.060
  795TIP3    H226365   4.629   1.413   9.033
  796TIP3   OH226366   4.756   1.825   7.984
  796TIP3    H126367   4.757   1.822   7.887
  796TIP3    H226368   4.765   1.919   8.006
  797TIP3   OH226369   4.125   1.712   8.171
  797TIP3    H126370   4.140   1.672   8.259
  797TIP3    H226371   4.039   1.671   8.148
  798TIP3   OH226372   5.032   1.745   7.966
  798TIP3    H126373   4.937   1.746   7.982
  798TIP3    H226374   5.061   1.666   8.013
  799TIP3   OH226375   5.334   0.645   9.170
  799TIP3    H126376   5.286   0.689   9.097
  799TIP3    H226377   5.333   0.553   9.140
  800TIP3   OH226378   4.050   1.283   8.970
  800TIP3    H126379   4.071   1.247   9.058
  800TIP3    H226380   3.962   1.244   8.949
  801TIP3   OH226381   4.320   0.136   8.559
  801TIP3    H126382   4.232   0.132   8.518
  801TIP3    H226383   4.304   0.213   8.616
  802TIP3   OH226384   4.783   0.102   8.905
  802TIP3    H126385   4.823   0.055   8.978
  802TIP3    H226386   4.688   0.086   8.917
  803TIP3   OH226387   5.108   0.478   8.990
  803TIP3    H126388   5.053   0.462   9.069
  803TIP3    H226389   5.094   0.572   8.968
  804TIP3   OH226390   4.758   0.343   7.642
  804TIP3    H126391   4.710   0.352   7.727
  804TIP3    H226392   4.705   0.273   7.602
  805TIP3   OH226393   4.328   0.630   8.692
  805TIP3    H126394   4.253   0.629   8.754
  805TIP3    H226395   4.323   0.720   8.652
  806TIP3   OH226396   4.324   0.637   8.177
  806TIP3    H126397   4.229   0.616   8.163
  806TIP3    H226398   4.361   0.613   8.090
  807TIP3   OH226399   4.875   0.689   8.048
  807TIP3    H126400   4.837   0.774   8.018
  807TIP3    H226401   4.946   0.673   7.984
  808TIP3   OH226402   4.780   0.712   9.197
  808TIP3    H126403   4.729   0.634   9.227
  808TIP3    H226404   4.864   0.700   9.244
  809TIP3   OH226405   4.980   0.640   8.337
  809TIP3    H126406   4.951   0.696   8.264
  809TIP3    H226407   4.988   0.555   8.291
  810TIP3   OH226408   4.089   0.654   8.857
  810TIP3    H126409   4.100   0.694   8.945
  810TIP3    H226410   4.045   0.570   8.879
  811TIP3   OH226411   3.758   0.369   8.253
  811TIP3    H126412   3.824   0.365   8.325
  811TIP3    H226413   3.802   0.327   8.178
  812TIP3   OH226414   3.876   0.440   7.789
  812TIP3    H126415   3.934   0.502   7.743
  812TIP3    H226416   3.813   0.504   7.829
  813TIP3   OH226417   4.898   0.797   8.792
  813TIP3    H126418   4.937   0.728   8.734
  813TIP3    H226419   4.851   0.745   8.859
  814TIP3   OH226420   4.580   0.400   8.277
  814TIP3    H126421   4.487   0.393   8.304
  814TIP3    H226422   4.628   0.378   8.358
  815TIP3   OH226423   4.058   0.550   8.164
  815TIP3    H126424   3.971   0.564   8.121
  815TIP3    H226425   4.089   0.467   8.123
  816TIP3   OH226426   4.420   0.555   7.927
  816TIP3    H126427   4.517   0.561   7.939
  816TIP3    H226428   4.398   0.621   7.860
  817TIP3   OH226429   5.021   0.323   8.596
  817TIP3    H126430   4.953   0.323   8.667
  817TIP3    H226431   4.972   0.289   8.520
  818TIP3   OH226432   4.293   0.679   7.686
  818TIP3    H126433   4.245   0.634   7.616
  818TIP3    H226434   4.377   0.693   7.641
  819TIP3   OH226435   5.339   1.883   9.233
  819TIP3    H126436   5.366   1.921   9.148
  819TIP3    H226437   5.411   1.915   9.289
  820TIP3   OH226438   4.107   1.130   9.191
  820TIP3    H126439   4.179   1.155   9.251
  820TIP3    H226440   4.030   1.137   9.252
  821TIP3   OH226441   4.707   0.672   8.466
  821TIP3    H126442   4.767   0.619   8.414
  821TIP3    H226443   4.692   0.617   8.544
  822TIP3   OH226444   4.207   0.286   8.109
  822TIP3    H126445   4.178   0.194   8.109
  822TIP3    H226446   4.285   0.279   8.052
  823TIP3   OH226447   4.570   0.504   8.708
  823TIP3    H126448   4.489   0.558   8.716
  823TIP3    H226449   4.627   0.540   8.779
  824TIP3   OH226450   5.350   1.048   8.758
  824TIP3    H126451   5.405   1.096   8.693
  824TIP3    H226452   5.263   1.050   8.712
  825TIP3   OH226453   4.779   1.153   9.001
  825TIP3    H126454   4.744   1.110   9.080
  825TIP3    H226455   4.753   1.246   9.013
  826TIP3   OH226456   5.089   0.588   7.858
  826TIP3    H126457   5.177   0.585   7.901
  826TIP3    H226458   5.094   0.671   7.809
  827TIP3   OH226459   4.142   1.067   8.457
  827TIP3    H126460   4.208   1.058   8.385
  827TIP3    H226461   4.147   0.982   8.503
  828TIP3   OH226462   4.843   1.270   7.789
  828TIP3    H126463   4.811   1.359   7.813
  828TIP3    H226464   4.766   1.218   7.802
  829TIP3   OH226465   3.839   0.906   8.984
  829TIP3    H126466   3.856   0.861   9.069
  829TIP3    H226467   3.777   0.845   8.939
  830TIP3   OH226468   4.541   0.863   9.200
  830TIP3    H126469   4.509   0.830   9.115
  830TIP3    H226470   4.633   0.829   9.200
  831TIP3   OH226471   5.011   1.396   8.997
  831TIP3    H126472   4.918   1.414   8.973
  831TIP3    H226473   5.007   1.425   9.090
  832TIP3   OH226474   5.566   0.621   7.842
  832TIP3    H126475   5.529   0.579   7.762
  832TIP3    H226476   5.593   0.704   7.804
  833TIP3   OH226477   5.575   1.199   9.115
  833TIP3    H126478   5.486   1.222   9.079
  833TIP3    H226479   5.629   1.194   9.033
  834TIP3   OH226480   5.407   1.497   7.881
  834TIP3    H126481   5.368   1.414   7.908
  834TIP3    H226482   5.432   1.483   7.786
  835TIP3   OH226483   5.127   0.978   8.586
  835TIP3    H126484   5.033   0.958   8.574
  835TIP3    H226485   5.170   0.903   8.541
  836TIP3   OH226486   4.378   1.410   8.196
  836TIP3    H126487   4.428   1.492   8.179
  836TIP3    H226488   4.290   1.434   8.165
  837TIP3   OH226489   3.957   0.885   7.662
  837TIP3    H126490   4.014   0.960   7.686
  837TIP3    H226491   3.870   0.927   7.673
  838TIP3   OH226492   4.519   1.179   8.146
  838TIP3    H126493   4.486   1.271   8.158
  838TIP3    H226494   4.449   1.128   8.192
  839TIP3   OH226495   4.564   1.597   8.790
  839TIP3    H126496   4.611   1.676   8.760
  839TIP3    H226497   4.626   1.562   8.856
  840TIP3   OH226498   4.386   1.677   8.100
  840TIP3    H126499   4.291   1.689   8.120
  840TIP3    H226500   4.425   1.759   8.135
  841TIP3   OH226501   4.915   1.195   8.750
  841TIP3    H126502   4.885   1.176   8.841
  841TIP3    H226503   4.980   1.125   8.733
  842TIP3   OH226504   5.144   1.281   7.655
  842TIP3    H126505   5.173   1.261   7.745
  842TIP3    H226506   5.049   1.288   7.667
  843TIP3   OH226507   5.200   1.654   8.998
  843TIP3    H126508   5.130   1.605   8.952
  843TIP3    H226509   5.217   1.724   8.932
  844TIP3   OH226510   4.006   0.379   8.939
  844TIP3    H126511   3.915   0.414   8.935
  844TIP3    H226512   3.991   0.293   8.982
  845TIP3   OH226513   5.232   1.156   7.879
  845TIP3    H126514   5.204   1.087   7.943
  845TIP3    H226515   5.322   1.174   7.908
  846TIP3   OH226516   3.966   1.557   8.781
  846TIP3    H126517   3.998   1.466   8.781
  846TIP3    H226518   3.992   1.587   8.868
  847TIP3   OH226519   4.443   1.363   7.753
  847TIP3    H126520   4.462   1.310   7.831
  847TIP3    H226521   4.453   1.453   7.786
  848TIP3   OH226522   4.098   1.088   7.810
  848TIP3    H126523   4.023   1.129   7.856
  848TIP3    H226524   4.138   1.166   7.769
  849TIP3   OH226525   4.878   0.356   8.836
  849TIP3    H126526   4.951   0.359   8.900
  849TIP3    H226527   4.843   0.267   8.853
  850TIP3   OH226528   4.971   0.305   7.933
  850TIP3    H126529   4.970   0.379   7.871
  850TIP3    H226530   5.005   0.354   8.010
  851TIP3   OH226531   4.714   1.526   7.818
  851TIP3    H126532   4.645   1.589   7.836
  851TIP3    H226533   4.779   1.578   7.768
  852TIP3   OH226534   4.679   0.486   8.026
  852TIP3    H126535   4.752   0.550   8.031
  852TIP3    H226536   4.646   0.478   8.118
  853TIP3   OH226537   4.732   0.593   8.945
  853TIP3    H126538   4.739   0.646   9.026
  853TIP3    H226539   4.796   0.521   8.955
  854TIP3   OH226540   4.764   0.195   8.118
  854TIP3    H126541   4.727   0.263   8.178
  854TIP3    H226542   4.829   0.251   8.070
  855TIP3   OH226543   4.323   0.299   7.797
  855TIP3    H126544   4.322   0.395   7.816
  855TIP3    H226545   4.418   0.282   7.804
  856TIP3   OH226546   5.347   0.382   9.028
  856TIP3    H126547   5.254   0.411   9.014
  856TIP3    H226548   5.378   0.373   8.936
  857TIP3   OH226549   5.210   0.757   8.429
  857TIP3    H126550   5.128   0.711   8.404
  857TIP3    H226551   5.259   0.689   8.480
  858TIP3   OH226552   4.156   1.343   7.698
  858TIP3    H126553   4.217   1.413   7.719
  858TIP3    H226554   4.193   1.304   7.616
  859TIP3   OH226555   5.316   1.684   8.596
  859TIP3    H126556   5.308   1.752   8.526
  859TIP3    H226557   5.413   1.688   8.613
  860TIP3   OH226558   4.052   0.121   8.465
  860TIP3    H126559   4.036   0.106   8.368
  860TIP3    H226560   4.032   0.032   8.499
  861TIP3   OH226561   3.963   1.487   8.091
  861TIP3    H126562   3.876   1.530   8.088
  861TIP3    H226563   4.007   1.534   8.020
  862TIP3   OH226564   3.880   1.753   9.219
  862TIP3    H126565   3.941   1.734   9.293
  862TIP3    H226566   3.841   1.665   9.202
  863TIP3   OH226567   4.350   1.645   9.381
  863TIP3    H126568   4.425   1.594   9.414
  863TIP3    H226569   4.347   1.616   9.287
  864TIP3   OH226570   5.003   1.481   9.253
  864TIP3    H126571   4.967   1.396   9.286
  864TIP3    H226572   5.076   1.495   9.315
  865TIP3   OH226573   3.871   1.129   9.320
  865TIP3    H126574   3.888   1.038   9.290
  865TIP3    H226575   3.798   1.155   9.262
  866TIP3   OH226576   4.544   1.129   9.258
  866TIP3    H126577   4.511   1.161   9.173
  866TIP3    H226578   4.550   1.031   9.247
  867TIP3   OH226579   5.113   1.114   8.998
  867TIP3    H126580   5.193   1.172   8.993
  867TIP3    H226581   5.044   1.182   9.001
  868TIP3   OH226582   3.966   0.852   9.258
  868TIP3    H126583   4.005   0.765   9.249
  868TIP3    H226584   3.942   0.853   9.352
  869TIP3   OH226585   4.354   0.746   8.992
  869TIP3    H126586   4.295   0.819   9.018
  869TIP3    H226587   4.395   0.783   8.912
  870TIP3   OH226588   4.530   0.790   7.592
  870TIP3    H126589   4.517   0.763   7.500
  870TIP3    H226590   4.628   0.786   7.596
  871TIP3   OH226591   4.862   1.004   9.328
  871TIP3    H126592   4.957   1.002   9.313
  871TIP3    H226593   4.845   0.927   9.383
  872TIP3   OH226594   4.397   0.488   9.098
  872TIP3    H126595   4.408   0.417   9.032
  872TIP3    H226596   4.391   0.568   9.043
  873TIP3   OH226597   4.436   0.324   8.854
  873TIP3    H126598   4.487   0.370   8.783
  873TIP3    H226599   4.347   0.316   8.815
  874TIP3   OH226600   4.589   0.873   8.878
  874TIP3    H126601   4.665   0.856   8.822
  874TIP3    H226602   4.552   0.956   8.844
  875TIP3   OH226603   5.028   0.646   9.374
  875TIP3    H126604   5.052   0.552   9.364
  875TIP3    H226605   5.114   0.691   9.378
  876TIP3   OH226606   5.163   0.929   9.193
  876TIP3    H126607   5.138   0.999   9.130
  876TIP3    H226608   5.259   0.924   9.174
  877TIP3   OH226609   4.242   0.609   9.290
  877TIP3    H126610   4.164   0.552   9.274
  877TIP3    H226611   4.307   0.572   9.228
  878TIP3   OH226612   4.506   0.075   8.895
  878TIP3    H126613   4.495   0.173   8.884
  878TIP3    H226614   4.430   0.038   8.851
  879TIP3   OH226615   4.642   0.499   9.255
  879TIP3    H126616   4.611   0.476   9.345
  879TIP3    H226617   4.563   0.479   9.202
  880TIP3   OH226618   4.913   0.421   9.169
  880TIP3    H126619   4.816   0.417   9.176
  880TIP3    H226620   4.941   0.354   9.233
  881TIP3   OH226621   5.070   0.285   9.355
  881TIP3    H126622   5.070   0.186   9.352
  881TIP3    H226623   5.045   0.303   9.447
  882TIP3   OH226624   4.049   0.405   9.266
  882TIP3    H126625   4.073   0.330   9.208
  882TIP3    H226626   4.040   0.360   9.353
  883TIP3   OH226627   4.547   8.142   9.140
  883TIP3    H126628   4.613   8.071   9.146
  883TIP3    H226629   4.523   8.128   9.046
  884TIP3   OH226630   4.571   0.172   9.374
  884TIP3    H126631   4.558   0.127   9.289
  884TIP3    H226632   4.513   0.250   9.365
  885TIP3   OH226633   3.752   1.855   8.133
  885TIP3    H126634   3.680   1.804   8.090
  885TIP3    H226635   3.780   1.792   8.202
  886TIP3   OH226636   3.834   1.668   8.324
  886TIP3    H126637   3.799   1.581   8.344
  886TIP3    H226638   3.857   1.701   8.412
  887TIP3   OH226639   5.589   1.748   8.616
  887TIP3    H126640   5.592   1.763   8.712
  887TIP3    H226641   5.659   1.806   8.586
  888TIP3   OH226642   5.546   1.707   8.911
  888TIP3    H126643   5.499   1.630   8.872
  888TIP3    H226644   5.593   1.662   8.983
  889TIP3   OH226645   5.389   1.279   9.380
  889TIP3    H126646   5.298   1.277   9.416
  889TIP3    H226647   5.425   1.361   9.418
  890TIP3   OH226648   5.519   1.111   7.922
  890TIP3    H126649   5.607   1.151   7.937
  890TIP3    H226650   5.523   1.040   7.989
  891TIP3   OH226651   5.556   0.922   8.107
  891TIP3    H126652   5.482   0.871   8.147
  891TIP3    H226653   5.617   0.932   8.183
  892TIP3   OH226654   5.533   1.189   8.608
  892TIP3    H126655   5.614   1.151   8.570
  892TIP3    H226656   5.548   1.284   8.591
  893TIP3   OH226657   5.389   1.480   8.835
  893TIP3    H126658   5.320   1.514   8.894
  893TIP3    H226659   5.335   1.440   8.764
  894TIP3   OH226660   5.406   0.621   7.598
  894TIP3    H126661   5.439   0.683   7.532
  894TIP3    H226662   5.413   0.540   7.548
  895TIP3   OH226663   5.339   0.768   8.169
  895TIP3    H126664   5.325   0.672   8.161
  895TIP3    H226665   5.308   0.786   8.260
  896TIP3   OH226666   3.840   0.976   8.573
  896TIP3    H126667   3.858   0.968   8.477
  896TIP3    H226668   3.930   0.957   8.608
  897TIP3   OH226669   5.426   0.965   9.137
  897TIP3    H126670   5.487   0.888   9.149
  897TIP3    H226671   5.487   1.041   9.136
  898TIP3   OH226672   5.576   0.751   9.201
  898TIP3    H126673   5.488   0.712   9.186
  898TIP3    H226674   5.633   0.673   9.194
  899TIP3   OH226675   5.305   0.529   8.009
  899TIP3    H126676   5.335   0.437   8.024
  899TIP3    H226677   5.388   0.567   7.973
  900TIP3   OH226678   5.370   0.582   8.556
  900TIP3    H126679   5.467   0.601   8.555
  900TIP3    H226680   5.352   0.590   8.651
  901TIP3   OH226681   5.375   0.654   8.833
  901TIP3    H126682   5.288   0.682   8.866
  901TIP3    H226683   5.420   0.740   8.813
  902TIP3   OH226684   3.804   0.509   9.191
  902TIP3    H126685   3.897   0.481   9.207
  902TIP3    H226686   3.756   0.426   9.214
  903TIP3   OH226687   5.617   0.068   9.385
  903TIP3    H126688   5.630   0.001   9.315
  903TIP3    H226689   5.610   0.144   9.325
  904TIP3   OH226690   5.369   0.257   8.015
  904TIP3    H126691   5.394   0.214   8.101
  904TIP3    H226692   5.311   0.189   7.976
  905TIP3   OH226693   3.917   0.342   8.474
  905TIP3    H126694   3.963   0.258   8.496
  905TIP3    H226695   3.977   0.406   8.512
  906TIP3   OH226696   3.750   0.636   8.576
  906TIP3    H126697   3.807   0.609   8.501
  906TIP3    H226698   3.798   0.716   8.603
  907TIP3   OH226699   5.559   0.273   9.202
  907TIP3    H126700   5.464   0.294   9.198
  907TIP3    H226701   5.559   0.211   9.127
  908TIP3   OH226702   3.785   0.254   7.980
  908TIP3    H126703   3.692   0.282   7.973
  908TIP3    H226704   3.829   0.311   7.915
  909TIP3   OH226705   5.261   1.754   8.181
  909TIP3    H126706   5.327   1.727   8.115
  909TIP3    H226707   5.312   1.807   8.243
  910TIP3   OH226708   3.788   0.138   8.809
  910TIP3    H126709   3.727   0.119   8.881
  910TIP3    H226710   3.737   0.202   8.754
  911TIP3   OH226711   4.006   1.445   9.229
  911TIP3    H126712   3.922   1.468   9.186
  911TIP3    H226713   3.980   1.438   9.321
  912TIP3   OH226714   4.296   1.547   8.858
  912TIP3    H126715   4.264   1.635   8.831
  912TIP3    H226716   4.388   1.555   8.827
  913TIP3   OH226717   4.727   1.689   9.146
  913TIP3    H126718   4.740   1.654   9.238
  913TIP3    H226719   4.818   1.720   9.124
  914TIP3   OH226720   4.956   1.816   9.079
  914TIP3    H126721   5.030   1.758   9.055
  914TIP3    H226722   4.993   1.860   9.159
  915TIP3   OH226723   5.447   0.099   8.992
  915TIP3    H126724   5.360   0.118   8.954
  915TIP3    H226725   5.455   0.005   8.970
  916TIP3   OH226726   4.038   1.870   8.856
  916TIP3    H126727   3.965   1.921   8.817
  916TIP3    H226728   4.008   1.852   8.946
  917TIP3   OH226729   4.284   1.828   8.764
  917TIP3    H126730   4.195   1.845   8.803
  917TIP3    H226731   4.280   1.887   8.687
  918TIP3   OH226732   4.756   1.819   8.681
  918TIP3    H126733   4.709   1.875   8.616
  918TIP3    H226734   4.769   1.882   8.755
  919TIP3   OH226735   4.983   1.699   8.786
  919TIP3    H126736   4.899   1.728   8.747
  919TIP3    H226737   5.034   1.781   8.776
  920TIP3   OH226738   5.242   1.856   8.806
  920TIP3    H126739   5.239   1.952   8.783
  920TIP3    H226740   5.264   1.819   8.718
  921TIP3   OH226741   3.985   1.735   8.551
  921TIP3    H126742   3.976   1.689   8.637
  921TIP3    H226743   4.066   1.696   8.513
  922TIP3   OH226744   4.191   1.606   8.418
  922TIP3    H126745   4.176   1.513   8.441
  922TIP3    H226746   4.278   1.622   8.461
  923TIP3   OH226747   4.453   1.655   8.505
  923TIP3    H126748   4.467   1.562   8.478
  923TIP3    H226749   4.457   1.649   8.602
  924TIP3   OH226750   4.793   0.225   8.412
  924TIP3    H126751   4.731   0.157   8.444
  924TIP3    H226752   4.856   0.170   8.364
  925TIP3   OH226753   5.315   0.053   8.441
  925TIP3    H126754   5.374   0.090   8.372
  925TIP3    H226755   5.226   0.058   8.401
  926TIP3   OH226756   5.479   0.156   8.247
  926TIP3    H126757   5.544   0.092   8.213
  926TIP3    H226758   5.531   0.236   8.267
  927TIP3   OH226759   4.028   0.079   8.203
  927TIP3    H126760   3.951   0.063   8.148
  927TIP3    H226761   4.079  -0.002   8.191
  928TIP3   OH226762   4.478   0.084   8.181
  928TIP3    H126763   4.569   0.114   8.173
  928TIP3    H226764   4.483   0.054   8.272
  929TIP3   OH226765   5.052   0.081   8.347
  929TIP3    H126766   5.048   0.087   8.251
  929TIP3    H226767   5.019  -0.010   8.359
  930TIP3   OH226768   5.161   0.092   7.872
  930TIP3    H126769   5.092   0.154   7.901
  930TIP3    H226770   5.141   0.015   7.928
  931TIP3   OH226771   3.907   1.653   7.870
  931TIP3    H126772   3.834   1.654   7.803
  931TIP3    H226773   3.903   1.746   7.897
  932TIP3   OH226774   4.592   0.283   7.865
  932TIP3    H126775   4.618   0.221   7.935
  932TIP3    H226776   4.600   0.368   7.913
  933TIP3   OH226777   4.793   1.776   7.708
  933TIP3    H126778   4.883   1.810   7.693
  933TIP3    H226779   4.773   1.732   7.625
  934TIP3   OH226780   5.459   1.739   7.976
  934TIP3    H126781   5.438   1.658   7.923
  934TIP3    H226782   5.448   1.809   7.910
  935TIP3   OH226783   4.023   0.142   9.152
  935TIP3    H126784   3.988   0.059   9.184
  935TIP3    H226785   4.115   0.131   9.181
  936TIP3   OH226786   4.227   0.083   9.326
  936TIP3    H126787   4.309   0.050   9.285
  936TIP3    H226788   4.180  -0.002   9.338
  937TIP3   OH226789   5.075   8.106   9.332
  937TIP3    H126790   5.073   8.038   9.401
  937TIP3    H226791   5.158   8.084   9.288
  938TIP3   OH226792   5.384   1.609   9.189
  938TIP3    H126793   5.304   1.595   9.135
  938TIP3    H226794   5.372   1.703   9.212
  939TIP3   OH226795   6.830   0.998   8.188
  939TIP3    H126796   6.827   1.095   8.184
  939TIP3    H226797   6.757   0.973   8.129
  940TIP3   OH226798   6.715   0.921   8.538
  940TIP3    H126799   6.713   0.857   8.610
  940TIP3    H226800   6.678   0.871   8.464
  941TIP3   OH226801   5.949   0.890   8.694
  941TIP3    H126802   5.957   0.821   8.762
  941TIP3    H226803   6.024   0.947   8.717
  942TIP3   OH226804   7.084   1.221   8.366
  942TIP3    H126805   7.042   1.148   8.413
  942TIP3    H226806   7.085   1.288   8.436
  943TIP3   OH226807   6.041   1.335   8.542
  943TIP3    H126808   6.011   1.247   8.512
  943TIP3    H226809   6.137   1.317   8.547
  944TIP3   OH226810   5.705   0.690   8.096
  944TIP3    H126811   5.662   0.777   8.087
  944TIP3    H226812   5.651   0.636   8.035
  945TIP3   OH226813   5.777   0.914   8.307
  945TIP3    H126814   5.804   0.831   8.351
  945TIP3    H226815   5.847   0.925   8.241
  946TIP3   OH226816   6.796   1.734   8.391
  946TIP3    H126817   6.860   1.664   8.361
  946TIP3    H226818   6.772   1.698   8.477
  947TIP3   OH226819   6.552   1.161   8.587
  947TIP3    H126820   6.585   1.099   8.520
  947TIP3    H226821   6.633   1.177   8.637
  948TIP3   OH226822   7.412   0.322   8.659
  948TIP3    H126823   7.428   0.386   8.732
  948TIP3    H226824   7.468   0.366   8.591
  949TIP3   OH226825   6.869   0.604   8.620
  949TIP3    H126826   6.884   0.509   8.611
  949TIP3    H226827   6.857   0.626   8.525
  950TIP3   OH226828   6.180   0.419   8.338
  950TIP3    H126829   6.192   0.503   8.288
  950TIP3    H226830   6.140   0.362   8.269
  951TIP3   OH226831   6.953   0.425   8.176
  951TIP3    H126832   7.018   0.396   8.243
  951TIP3    H226833   7.008   0.483   8.121
  952TIP3   OH226834   5.841   0.660   8.412
  952TIP3    H126835   5.908   0.605   8.458
  952TIP3    H226836   5.852   0.628   8.321
  953TIP3   OH226837   6.357   0.814   8.347
  953TIP3    H126838   6.426   0.756   8.384
  953TIP3    H226839   6.306   0.749   8.295
  954TIP3   OH226840   7.459   0.471   8.886
  954TIP3    H126841   7.395   0.545   8.875
  954TIP3    H226842   7.456   0.456   8.982
  955TIP3   OH226843   6.071   0.313   8.740
  955TIP3    H126844   6.041   0.370   8.666
  955TIP3    H226845   6.003   0.333   8.809
  956TIP3   OH226846   6.799   1.256   8.097
  956TIP3    H126847   6.772   1.231   8.008
  956TIP3    H226848   6.768   1.349   8.104
  957TIP3   OH226849   6.321   1.072   8.766
  957TIP3    H126850   6.252   1.136   8.789
  957TIP3    H226851   6.392   1.131   8.737
  958TIP3   OH226852   7.130   0.368   8.382
  958TIP3    H126853   7.114   0.283   8.424
  958TIP3    H226854   7.205   0.404   8.432
  959TIP3   OH226855   6.027   0.499   8.544
  959TIP3    H126856   6.093   0.564   8.577
  959TIP3    H226857   6.079   0.453   8.473
  960TIP3   OH226858   6.167   1.273   8.848
  960TIP3    H126859   6.162   1.364   8.815
  960TIP3    H226860   6.079   1.264   8.892
  961TIP3   OH226861   5.770   1.234   7.926
  961TIP3    H126862   5.751   1.269   7.837
  961TIP3    H226863   5.783   1.316   7.978
  962TIP3   OH226864   7.135   1.400   8.604
  962TIP3    H126865   7.038   1.412   8.616
  962TIP3    H226866   7.161   1.492   8.585
  963TIP3   OH226867   7.178   0.234   8.748
  963TIP3    H126868   7.124   0.305   8.715
  963TIP3    H226869   7.257   0.254   8.692
  964TIP3   OH226870   6.458   0.055   8.447
  964TIP3    H126871   6.463  -0.035   8.486
  964TIP3    H226872   6.386   0.078   8.509
  965TIP3   OH226873   6.963   1.578   8.264
  965TIP3    H126874   7.002   1.506   8.212
  965TIP3    H226875   7.005   1.658   8.225
  966TIP3   OH226876   7.098   1.369   8.110
  966TIP3    H126877   7.052   1.302   8.056
  966TIP3    H226878   7.085   1.325   8.197
  967TIP3   OH226879   7.244   1.232   8.964
  967TIP3    H126880   7.258   1.166   8.893
  967TIP3    H226881   7.265   1.316   8.918
  968TIP3   OH226882   6.693   0.926   7.940
  968TIP3    H126883   6.623   0.979   7.899
  968TIP3    H226884   6.761   0.925   7.870
  969TIP3   OH226885   7.435   0.863   8.769
  969TIP3    H126886   7.368   0.934   8.772
  969TIP3    H226887   7.483   0.886   8.688
  970TIP3   OH226888   7.041   0.939   8.032
  970TIP3    H126889   6.968   0.965   8.093
  970TIP3    H226890   7.088   0.874   8.089
  971TIP3   OH226891   7.032   0.755   8.946
  971TIP3    H126892   7.033   0.838   8.997
  971TIP3    H226893   6.970   0.787   8.876
  972TIP3   OH226894   6.201   1.008   8.224
  972TIP3    H126895   6.168   0.969   8.139
  972TIP3    H226896   6.262   0.938   8.257
  973TIP3   OH226897   6.331   1.344   8.492
  973TIP3    H126898   6.332   1.293   8.410
  973TIP3    H226899   6.410   1.309   8.537
  974TIP3   OH226900   6.232   0.882   8.591
  974TIP3    H126901   6.287   0.891   8.510
  974TIP3    H226902   6.273   0.948   8.651
  975TIP3   OH226903   6.876   1.439   8.662
  975TIP3    H126904   6.847   1.503   8.728
  975TIP3    H226905   6.850   1.354   8.703
  976TIP3   OH226906   6.329   1.325   9.060
  976TIP3    H126907   6.286   1.398   9.110
  976TIP3    H226908   6.262   1.304   8.990
  977TIP3   OH226909   6.933   0.854   7.798
  977TIP3    H126910   6.977   0.881   7.882
  977TIP3    H226911   6.961   0.916   7.730
  978TIP3   OH226912   6.023   0.940   8.973
  978TIP3    H126913   6.029   1.007   9.045
  978TIP3    H226914   5.928   0.946   8.954
  979TIP3   OH226915   6.703   1.536   8.140
  979TIP3    H126916   6.740   1.564   8.225
  979TIP3    H226917   6.641   1.608   8.121
  980TIP3   OH226918   6.152   1.528   9.136
  980TIP3    H126919   6.148   1.519   9.039
  980TIP3    H226920   6.059   1.513   9.160
  981TIP3   OH226921   7.303   0.047   7.805
  981TIP3    H126922   7.205   0.040   7.805
  981TIP3    H226923   7.316   0.112   7.735
  982TIP3   OH226924   6.094   0.910   7.990
  982TIP3    H126925   6.069   0.986   7.933
  982TIP3    H226926   6.032   0.843   7.962
  983TIP3   OH226927   5.706   1.153   8.877
  983TIP3    H126928   5.662   1.144   8.790
  983TIP3    H226929   5.715   1.058   8.898
  984TIP3   OH226930   5.682   1.425   8.553
  984TIP3    H126931   5.778   1.414   8.550
  984TIP3    H226932   5.674   1.508   8.603
  985TIP3   OH226933   7.506   1.497   9.122
  985TIP3    H126934   7.494   1.400   9.119
  985TIP3    H226935   7.419   1.521   9.161
  986TIP3   OH226936   6.602   1.450   9.008
  986TIP3    H126937   6.607   1.534   9.059
  986TIP3    H226938   6.514   1.414   9.033
  987TIP3   OH226939   6.650   1.824   7.985
  987TIP3    H126940   6.636   1.819   7.889
  987TIP3    H226941   6.646   1.919   8.006
  988TIP3   OH226942   6.010   1.713   8.172
  988TIP3    H126943   6.025   1.672   8.260
  988TIP3    H226944   5.926   1.671   8.147
  989TIP3   OH226945   6.922   1.739   7.961
  989TIP3    H126946   6.826   1.749   7.981
  989TIP3    H226947   6.943   1.668   8.023
  990TIP3   OH226948   7.219   0.645   9.170
  990TIP3    H126949   7.173   0.690   9.098
  990TIP3    H226950   7.220   0.552   9.140
  991TIP3   OH226951   5.935   1.284   8.970
  991TIP3    H126952   5.957   1.247   9.058
  991TIP3    H226953   5.848   1.244   8.948
  992TIP3   OH226954   6.204   0.143   8.555
  992TIP3    H126955   6.115   0.129   8.519
  992TIP3    H226956   6.186   0.215   8.616
  993TIP3   OH226957   6.674   0.112   8.915
  993TIP3    H126958   6.708   0.052   8.982
  993TIP3    H226959   6.578   0.089   8.913
  994TIP3   OH226960   6.989   0.474   8.981
  994TIP3    H126961   6.942   0.462   9.068
  994TIP3    H226962   6.985   0.571   8.969
  995TIP3   OH226963   6.214   0.630   8.692
  995TIP3    H126964   6.139   0.629   8.754
  995TIP3    H226965   6.208   0.720   8.653
  996TIP3   OH226966   6.210   0.638   8.176
  996TIP3    H126967   6.115   0.615   8.161
  996TIP3    H226968   6.248   0.611   8.090
  997TIP3   OH226969   6.761   0.691   8.052
  997TIP3    H126970   6.722   0.774   8.016
  997TIP3    H226971   6.829   0.671   7.986
  998TIP3   OH226972   6.666   0.712   9.196
  998TIP3    H126973   6.614   0.634   9.227
  998TIP3    H226974   6.750   0.701   9.244
  999TIP3   OH226975   6.866   0.639   8.339
  999TIP3    H126976   6.836   0.696   8.265
  999TIP3    H226977   6.874   0.555   8.289
 1000TIP3   OH226978   5.975   0.654   8.857
 1000TIP3    H126979   5.985   0.694   8.944
 1000TIP3    H226980   5.931   0.570   8.879
 1001TIP3   OH226981   6.309   0.393   7.539
 1001TIP3    H126982   6.270   0.351   7.618
 1001TIP3    H226983   6.238   0.436   7.493
 1002TIP3   OH226984   5.643   0.370   8.257
 1002TIP3    H126985   5.710   0.364   8.329
 1002TIP3    H226986   5.687   0.330   8.180
 1003TIP3   OH226987   6.785   0.797   8.792
 1003TIP3    H126988   6.822   0.729   8.733
 1003TIP3    H226989   6.736   0.746   8.859
 1004TIP3   OH226990   6.465   0.402   8.278
 1004TIP3    H126991   6.372   0.392   8.306
 1004TIP3    H226992   6.513   0.378   8.358
 1005TIP3   OH226993   5.944   0.551   8.163
 1005TIP3    H126994   5.856   0.563   8.122
 1005TIP3    H226995   5.974   0.466   8.126
 1006TIP3   OH226996   6.304   0.562   7.926
 1006TIP3    H126997   6.400   0.560   7.942
 1006TIP3    H226998   6.292   0.627   7.856
 1007TIP3   OH226999   6.900   0.321   8.590
 1007TIP3    H127000   6.823   0.329   8.650
 1007TIP3    H227001   6.854   0.290   8.509
 1008TIP3   OH227002   7.225   1.881   9.233
 1008TIP3    H127003   7.249   1.922   9.148
 1008TIP3    H227004   7.294   1.917   9.289
 1009TIP3   OH227005   5.993   1.129   9.190
 1009TIP3    H127006   6.066   1.153   9.250
 1009TIP3    H227007   5.916   1.135   9.250
 1010TIP3   OH227008   6.592   0.673   8.465
 1010TIP3    H127009   6.651   0.617   8.412
 1010TIP3    H227010   6.575   0.618   8.543
 1011TIP3   OH227011   6.091   0.288   8.104
 1011TIP3    H127012   6.063   0.196   8.109
 1011TIP3    H227013   6.172   0.277   8.053
 1012TIP3   OH227014   6.458   0.503   8.707
 1012TIP3    H127015   6.375   0.554   8.715
 1012TIP3    H227016   6.511   0.541   8.779
 1013TIP3   OH227017   6.513   1.130   7.877
 1013TIP3    H127018   6.437   1.078   7.844
 1013TIP3    H227019   6.491   1.141   7.971
 1014TIP3   OH227020   7.236   1.047   8.757
 1014TIP3    H127021   7.290   1.096   8.693
 1014TIP3    H227022   7.149   1.050   8.712
 1015TIP3   OH227023   6.665   1.154   9.002
 1015TIP3    H127024   6.630   1.111   9.080
 1015TIP3    H227025   6.638   1.246   9.013
 1016TIP3   OH227026   6.972   0.593   7.865
 1016TIP3    H127027   7.063   0.586   7.899
 1016TIP3    H227028   6.973   0.674   7.810
 1017TIP3   OH227029   6.027   1.067   8.457
 1017TIP3    H127030   6.093   1.058   8.386
 1017TIP3    H227031   6.032   0.981   8.503
 1018TIP3   OH227032   6.729   1.274   7.783
 1018TIP3    H127033   6.687   1.356   7.816
 1018TIP3    H227034   6.655   1.211   7.797
 1019TIP3   OH227035   5.725   0.906   8.983
 1019TIP3    H127036   5.742   0.861   9.069
 1019TIP3    H227037   5.663   0.845   8.939
 1020TIP3   OH227038   6.427   0.863   9.200
 1020TIP3    H127039   6.394   0.830   9.115
 1020TIP3    H227040   6.519   0.829   9.200
 1021TIP3   OH227041   6.896   1.396   8.997
 1021TIP3    H127042   6.804   1.414   8.973
 1021TIP3    H227043   6.892   1.426   9.090
 1022TIP3   OH227044   7.457   0.618   7.837
 1022TIP3    H127045   7.407   0.580   7.764
 1022TIP3    H227046   7.472   0.709   7.809
 1023TIP3   OH227047   7.461   1.200   9.116
 1023TIP3    H127048   7.371   1.222   9.080
 1023TIP3    H227049   7.514   1.194   9.034
 1024TIP3   OH227050   7.282   1.493   7.864
 1024TIP3    H127051   7.245   1.408   7.895
 1024TIP3    H227052   7.320   1.474   7.777
 1025TIP3   OH227053   7.012   0.978   8.586
 1025TIP3    H127054   6.918   0.958   8.574
 1025TIP3    H227055   7.055   0.903   8.541
 1026TIP3   OH227056   6.265   1.412   8.196
 1026TIP3    H127057   6.313   1.493   8.175
 1026TIP3    H227058   6.176   1.434   8.163
 1027TIP3   OH227059   5.837   0.891   7.666
 1027TIP3    H127060   5.902   0.960   7.687
 1027TIP3    H227061   5.755   0.937   7.671
 1028TIP3   OH227062   6.404   1.178   8.147
 1028TIP3    H127063   6.372   1.270   8.156
 1028TIP3    H227064   6.334   1.128   8.192
 1029TIP3   OH227065   6.450   1.597   8.790
 1029TIP3    H127066   6.497   1.676   8.760
 1029TIP3    H227067   6.513   1.561   8.855
 1030TIP3   OH227068   6.274   1.674   8.103
 1030TIP3    H127069   6.177   1.691   8.115
 1030TIP3    H227070   6.310   1.760   8.133
 1031TIP3   OH227071   6.801   1.195   8.750
 1031TIP3    H127072   6.770   1.176   8.841
 1031TIP3    H227073   6.866   1.125   8.733
 1032TIP3   OH227074   7.033   1.309   7.670
 1032TIP3    H127075   7.058   1.250   7.743
 1032TIP3    H227076   6.939   1.284   7.662
 1033TIP3   OH227077   7.085   1.654   8.999
 1033TIP3    H127078   7.015   1.606   8.951
 1033TIP3    H227079   7.104   1.725   8.934
 1034TIP3   OH227080   7.482   1.737   7.690
 1034TIP3    H127081   7.554   1.798   7.665
 1034TIP3    H227082   7.415   1.804   7.712
 1035TIP3   OH227083   5.891   0.379   8.939
 1035TIP3    H127084   5.800   0.414   8.935
 1035TIP3    H227085   5.877   0.293   8.983
 1036TIP3   OH227086   7.118   1.164   7.884
 1036TIP3    H127087   7.088   1.088   7.938
 1036TIP3    H227088   7.212   1.167   7.909
 1037TIP3   OH227089   5.851   1.557   8.781
 1037TIP3    H127090   5.883   1.466   8.781
 1037TIP3    H227091   5.878   1.587   8.868
 1038TIP3   OH227092   6.321   1.366   7.751
 1038TIP3    H127093   6.355   1.312   7.824
 1038TIP3    H227094   6.338   1.456   7.786
 1039TIP3   OH227095   5.984   1.089   7.804
 1039TIP3    H127096   5.910   1.128   7.855
 1039TIP3    H227097   6.030   1.169   7.774
 1040TIP3   OH227098   6.768   0.352   8.834
 1040TIP3    H127099   6.817   0.369   8.916
 1040TIP3    H227100   6.718   0.269   8.856
 1041TIP3   OH227101   6.849   0.309   7.941
 1041TIP3    H127102   6.856   0.365   7.863
 1041TIP3    H227103   6.895   0.362   8.008
 1042TIP3   OH227104   6.607   1.528   7.818
 1042TIP3    H127105   6.526   1.580   7.832
 1042TIP3    H227106   6.660   1.586   7.763
 1043TIP3   OH227107   6.557   0.492   8.026
 1043TIP3    H127108   6.638   0.547   8.029
 1043TIP3    H227109   6.533   0.477   8.120
 1044TIP3   OH227110   6.620   0.592   8.943
 1044TIP3    H127111   6.622   0.646   9.025
 1044TIP3    H227112   6.681   0.521   8.959
 1045TIP3   OH227113   6.651   0.196   8.119
 1045TIP3    H127114   6.613   0.264   8.177
 1045TIP3    H227115   6.715   0.250   8.068
 1046TIP3   OH227116   6.345   1.632   7.824
 1046TIP3    H127117   6.361   1.717   7.777
 1046TIP3    H227118   6.318   1.665   7.913
 1047TIP3   OH227119   6.213   0.307   7.783
 1047TIP3    H127120   6.206   0.396   7.822
 1047TIP3    H227121   6.305   0.283   7.807
 1048TIP3   OH227122   7.229   0.379   9.027
 1048TIP3    H127123   7.139   0.415   9.015
 1048TIP3    H227124   7.266   0.376   8.936
 1049TIP3   OH227125   7.096   0.758   8.428
 1049TIP3    H127126   7.014   0.713   8.401
 1049TIP3    H227127   7.145   0.690   8.479
 1050TIP3   OH227128   6.038   1.355   7.691
 1050TIP3    H127129   6.106   1.413   7.727
 1050TIP3    H227130   6.086   1.302   7.627
 1051TIP3   OH227131   7.201   1.683   8.595
 1051TIP3    H127132   7.193   1.753   8.528
 1051TIP3    H227133   7.297   1.689   8.615
 1052TIP3   OH227134   5.933   0.125   8.463
 1052TIP3    H127135   5.924   0.105   8.367
 1052TIP3    H227136   5.921   0.035   8.499
 1053TIP3   OH227137   5.845   1.488   8.093
 1053TIP3    H127138   5.760   1.532   8.088
 1053TIP3    H227139   5.892   1.533   8.022
 1054TIP3   OH227140   5.764   1.754   9.220
 1054TIP3    H127141   5.828   1.733   9.290
 1054TIP3    H227142   5.726   1.667   9.199
 1055TIP3   OH227143   6.234   1.643   9.381
 1055TIP3    H127144   6.313   1.596   9.413
 1055TIP3    H227145   6.233   1.616   9.287
 1056TIP3   OH227146   6.885   1.483   9.257
 1056TIP3    H127147   6.853   1.394   9.284
 1056TIP3    H227148   6.962   1.495   9.315
 1057TIP3   OH227149   5.757   1.132   9.322
 1057TIP3    H127150   5.775   1.041   9.293
 1057TIP3    H227151   5.684   1.155   9.261
 1058TIP3   OH227152   6.429   1.129   9.258
 1058TIP3    H127153   6.396   1.161   9.172
 1058TIP3    H227154   6.436   1.031   9.247
 1059TIP3   OH227155   6.737   1.267   7.506
 1059TIP3    H127156   6.711   1.283   7.598
 1059TIP3    H227157   6.713   1.176   7.488
 1060TIP3   OH227158   6.999   1.114   8.998
 1060TIP3    H127159   7.078   1.172   8.993
 1060TIP3    H227160   6.929   1.182   9.001
 1061TIP3   OH227161   5.851   0.853   9.258
 1061TIP3    H127162   5.891   0.765   9.249
 1061TIP3    H227163   5.827   0.853   9.352
 1062TIP3   OH227164   6.240   0.746   8.993
 1062TIP3    H127165   6.180   0.819   9.018
 1062TIP3    H227166   6.280   0.783   8.912
 1063TIP3   OH227167   6.748   1.004   9.328
 1063TIP3    H127168   6.843   1.001   9.313
 1063TIP3    H227169   6.731   0.927   9.384
 1064TIP3   OH227170   6.283   0.487   9.098
 1064TIP3    H127171   6.294   0.417   9.031
 1064TIP3    H227172   6.275   0.568   9.043
 1065TIP3   OH227173   6.321   0.328   8.856
 1065TIP3    H127174   6.373   0.368   8.782
 1065TIP3    H227175   6.233   0.314   8.814
 1066TIP3   OH227176   6.475   0.873   8.878
 1066TIP3    H127177   6.550   0.856   8.821
 1066TIP3    H227178   6.438   0.956   8.844
 1067TIP3   OH227179   6.914   0.646   9.373
 1067TIP3    H127180   6.940   0.553   9.366
 1067TIP3    H227181   7.000   0.692   9.378
 1068TIP3   OH227182   7.050   0.928   9.193
 1068TIP3    H127183   7.023   0.999   9.130
 1068TIP3    H227184   7.145   0.925   9.173
 1069TIP3   OH227185   6.128   0.609   9.290
 1069TIP3    H127186   6.050   0.552   9.274
 1069TIP3    H227187   6.193   0.572   9.229
 1070TIP3   OH227188   6.375   0.075   8.906
 1070TIP3    H127189   6.378   0.170   8.881
 1070TIP3    H227190   6.316   0.035   8.842
 1071TIP3   OH227191   6.527   0.499   9.256
 1071TIP3    H127192   6.496   0.474   9.345
 1071TIP3    H227193   6.449   0.478   9.202
 1072TIP3   OH227194   6.799   0.415   9.162
 1072TIP3    H127195   6.703   0.419   9.178
 1072TIP3    H227196   6.827   0.355   9.235
 1073TIP3   OH227197   6.955   0.285   9.351
 1073TIP3    H127198   6.955   0.186   9.353
 1073TIP3    H227199   6.932   0.304   9.444
 1074TIP3   OH227200   5.935   0.405   9.266
 1074TIP3    H127201   5.959   0.330   9.208
 1074TIP3    H227202   5.926   0.360   9.353
 1075TIP3   OH227203   6.435   8.142   9.143
 1075TIP3    H127204   6.499   8.070   9.146
 1075TIP3    H227205   6.406   8.128   9.050
 1076TIP3   OH227206   6.456   0.173   9.375
 1076TIP3    H127207   6.443   0.127   9.289
 1076TIP3    H227208   6.398   0.250   9.365
 1077TIP3   OH227209   6.403   1.853   7.683
 1077TIP3    H127210   6.496   1.874   7.701
 1077TIP3    H227211   6.381   1.925   7.622
 1078TIP3   OH227212   5.767   1.310   7.645
 1078TIP3    H127213   5.862   1.326   7.657
 1078TIP3    H227214   5.765   1.260   7.561
 1079TIP3   OH227215   5.636   1.853   8.137
 1079TIP3    H127216   5.566   1.804   8.087
 1079TIP3    H227217   5.665   1.788   8.203
 1080TIP3   OH227218   5.720   1.668   8.324
 1080TIP3    H127219   5.684   1.580   8.344
 1080TIP3    H227220   5.743   1.701   8.412
 1081TIP3   OH227221   7.467   1.750   8.615
 1081TIP3    H127222   7.476   1.761   8.711
 1081TIP3    H227223   7.542   1.802   8.585
 1082TIP3   OH227224   7.435   1.707   8.913
 1082TIP3    H127225   7.384   1.633   8.873
 1082TIP3    H227226   7.481   1.658   8.982
 1083TIP3   OH227227   7.276   1.279   9.379
 1083TIP3    H127228   7.185   1.277   9.414
 1083TIP3    H227229   7.313   1.360   9.419
 1084TIP3   OH227230   7.406   1.113   7.919
 1084TIP3    H127231   7.495   1.148   7.940
 1084TIP3    H227232   7.406   1.041   7.987
 1085TIP3   OH227233   7.441   0.922   8.106
 1085TIP3    H127234   7.367   0.872   8.147
 1085TIP3    H227235   7.502   0.932   8.182
 1086TIP3   OH227236   7.419   1.189   8.610
 1086TIP3    H127237   7.499   1.151   8.570
 1086TIP3    H227238   7.433   1.284   8.593
 1087TIP3   OH227239   7.275   1.481   8.834
 1087TIP3    H127240   7.206   1.514   8.893
 1087TIP3    H227241   7.221   1.440   8.764
 1088TIP3   OH227242   7.226   0.767   8.166
 1088TIP3    H127243   7.209   0.671   8.163
 1088TIP3    H227244   7.194   0.788   8.256
 1089TIP3   OH227245   5.726   0.976   8.573
 1089TIP3    H127246   5.743   0.968   8.477
 1089TIP3    H227247   5.816   0.957   8.608
 1090TIP3   OH227248   7.310   0.963   9.137
 1090TIP3    H127249   7.371   0.888   9.149
 1090TIP3    H227250   7.371   1.040   9.136
 1091TIP3   OH227251   7.463   0.750   9.199
 1091TIP3    H127252   7.373   0.713   9.187
 1091TIP3    H227253   7.519   0.672   9.195
 1092TIP3   OH227254   7.241   0.390   7.540
 1092TIP3    H127255   7.303   0.329   7.580
 1092TIP3    H227256   7.162   0.333   7.530
 1093TIP3   OH227257   7.193   0.529   8.010
 1093TIP3    H127258   7.219   0.435   8.025
 1093TIP3    H227259   7.275   0.566   7.977
 1094TIP3   OH227260   7.254   0.578   8.558
 1094TIP3    H127261   7.350   0.601   8.553
 1094TIP3    H227262   7.239   0.594   8.652
 1095TIP3   OH227263   7.260   0.653   8.832
 1095TIP3    H127264   7.174   0.684   8.867
 1095TIP3    H227265   7.307   0.737   8.812
 1096TIP3   OH227266   5.691   0.509   9.191
 1096TIP3    H127267   5.783   0.481   9.207
 1096TIP3    H227268   5.642   0.427   9.214
 1097TIP3   OH227269   7.502   0.067   9.385
 1097TIP3    H127270   7.514   0.001   9.315
 1097TIP3    H227271   7.494   0.143   9.325
 1098TIP3   OH227272   7.254   0.258   8.013
 1098TIP3    H127273   7.280   0.215   8.098
 1098TIP3    H227274   7.195   0.189   7.974
 1099TIP3   OH227275   5.801   0.344   8.475
 1099TIP3    H127276   5.847   0.259   8.495
 1099TIP3    H227277   5.863   0.407   8.512
 1100TIP3   OH227278   5.636   0.635   8.576
 1100TIP3    H127279   5.692   0.609   8.501
 1100TIP3    H227280   5.683   0.715   8.603
 1101TIP3   OH227281   7.446   0.276   9.200
 1101TIP3    H127282   7.350   0.293   9.202
 1101TIP3    H227283   7.445   0.209   9.130
 1102TIP3   OH227284   5.669   0.258   7.983
 1102TIP3    H127285   5.576   0.285   7.975
 1102TIP3    H227286   5.713   0.309   7.913
 1103TIP3   OH227287   7.146   1.752   8.180
 1103TIP3    H127288   7.215   1.732   8.116
 1103TIP3    H227289   7.192   1.810   8.244
 1104TIP3   OH227290   5.673   0.137   8.809
 1104TIP3    H127291   5.613   0.118   8.881
 1104TIP3    H227292   5.623   0.202   8.754
 1105TIP3   OH227293   5.892   1.451   9.232
 1105TIP3    H127294   5.809   1.466   9.183
 1105TIP3    H227295   5.861   1.431   9.320
 1106TIP3   OH227296   6.181   1.547   8.858
 1106TIP3    H127297   6.150   1.635   8.831
 1106TIP3    H227298   6.274   1.555   8.828
 1107TIP3   OH227299   6.613   1.689   9.147
 1107TIP3    H127300   6.626   1.654   9.238
 1107TIP3    H227301   6.704   1.720   9.124
 1108TIP3   OH227302   6.842   1.816   9.080
 1108TIP3    H127303   6.915   1.757   9.056
 1108TIP3    H227304   6.880   1.861   9.159
 1109TIP3   OH227305   7.333   0.099   8.990
 1109TIP3    H127306   7.245   0.116   8.955
 1109TIP3    H227307   7.342   0.005   8.973
 1110TIP3   OH227308   5.923   1.870   8.856
 1110TIP3    H127309   5.850   1.921   8.817
 1110TIP3    H227310   5.894   1.852   8.946
 1111TIP3   OH227311   6.170   1.828   8.764
 1111TIP3    H127312   6.081   1.844   8.803
 1111TIP3    H227313   6.165   1.887   8.687
 1112TIP3   OH227314   6.641   1.820   8.681
 1112TIP3    H127315   6.595   1.875   8.616
 1112TIP3    H227316   6.654   1.882   8.755
 1113TIP3   OH227317   6.869   1.699   8.786
 1113TIP3    H127318   6.785   1.728   8.747
 1113TIP3    H227319   6.919   1.781   8.777
 1114TIP3   OH227320   7.128   1.856   8.806
 1114TIP3    H127321   7.124   1.952   8.783
 1114TIP3    H227322   7.150   1.819   8.718
 1115TIP3   OH227323   5.871   1.735   8.551
 1115TIP3    H127324   5.862   1.689   8.637
 1115TIP3    H227325   5.952   1.696   8.513
 1116TIP3   OH227326   6.078   1.606   8.417
 1116TIP3    H127327   6.062   1.513   8.440
 1116TIP3    H227328   6.163   1.622   8.461
 1117TIP3   OH227329   6.339   1.655   8.505
 1117TIP3    H127330   6.353   1.562   8.479
 1117TIP3    H227331   6.342   1.650   8.601
 1118TIP3   OH227332   6.684   0.226   8.419
 1118TIP3    H127333   6.615   0.160   8.445
 1118TIP3    H227334   6.737   0.169   8.362
 1119TIP3   OH227335   7.199   0.061   8.444
 1119TIP3    H127336   7.260   0.088   8.372
 1119TIP3    H227337   7.112   0.055   8.398
 1120TIP3   OH227338   7.365   0.157   8.247
 1120TIP3    H127339   7.429   0.093   8.212
 1120TIP3    H227340   7.418   0.237   8.266
 1121TIP3   OH227341   5.915   0.081   8.201
 1121TIP3    H127342   5.837   0.063   8.148
 1121TIP3    H227343   5.965  -0.002   8.194
 1122TIP3   OH227344   5.825   0.110   7.791
 1122TIP3    H127345   5.837   0.148   7.702
 1122TIP3    H227346   5.735   0.134   7.818
 1123TIP3   OH227347   6.363   0.087   8.181
 1123TIP3    H127348   6.455   0.113   8.173
 1123TIP3    H227349   6.368   0.053   8.271
 1124TIP3   OH227350   6.940   0.079   8.346
 1124TIP3    H127351   6.934   0.086   8.250
 1124TIP3    H227352   6.904  -0.011   8.357
 1125TIP3   OH227353   7.052   0.097   7.888
 1125TIP3    H127354   6.973   0.153   7.889
 1125TIP3    H227355   7.022   0.012   7.921
 1126TIP3   OH227356   5.787   1.653   7.879
 1126TIP3    H127357   5.726   1.650   7.803
 1126TIP3    H227358   5.792   1.750   7.887
 1127TIP3   OH227359   6.469   0.282   7.871
 1127TIP3    H127360   6.508   0.222   7.935
 1127TIP3    H227361   6.492   0.368   7.912
 1128TIP3   OH227362   6.681   1.771   7.708
 1128TIP3    H127363   6.764   1.814   7.685
 1128TIP3    H227364   6.652   1.738   7.622
 1129TIP3   OH227365   7.344   1.725   7.980
 1129TIP3    H127366   7.319   1.661   7.910
 1129TIP3    H227367   7.343   1.806   7.924
 1130TIP3   OH227368   5.909   0.142   9.152
 1130TIP3    H127369   5.873   0.059   9.184
 1130TIP3    H227370   6.001   0.131   9.181
 1131TIP3   OH227371   6.111   0.083   9.325
 1131TIP3    H127372   6.194   0.050   9.286
 1131TIP3    H227373   6.066  -0.003   9.337
 1132TIP3   OH227374   6.961   8.106   9.331
 1132TIP3    H127375   6.957   8.039   9.401
 1132TIP3    H227376   7.045   8.083   9.290
 1133TIP3   OH227377   7.269   1.608   9.190
 1133TIP3    H127378   7.190   1.597   9.134
 1133TIP3    H227379   7.256   1.702   9.213
 1134TIP3   OH227380   7.832   0.891   8.698
 1134TIP3    H127381   7.848   0.819   8.761
 1134TIP3    H227382   7.912   0.944   8.712
 1135TIP3   OH227383   7.909   1.320   8.561
 1135TIP3    H127384   7.894   1.239   8.509
 1135TIP3    H227385   8.007   1.325   8.551
 1136TIP3   OH227386   7.590   0.691   8.087
 1136TIP3    H127387   7.546   0.778   8.090
 1136TIP3    H227388   7.528   0.637   8.039
 1137TIP3   OH227389   7.662   0.914   8.305
 1137TIP3    H127390   7.690   0.833   8.351
 1137TIP3    H227391   7.735   0.927   8.242
 1138TIP3   OH227392   7.723   0.657   8.412
 1138TIP3    H127393   7.792   0.605   8.459
 1138TIP3    H227394   7.742   0.627   8.321
 1139TIP3   OH227395   7.942   0.311   8.741
 1139TIP3    H127396   7.925   0.370   8.664
 1139TIP3    H227397   7.875   0.335   8.806
 1140TIP3   OH227398   7.897   0.484   8.540
 1140TIP3    H127399   7.956   0.555   8.577
 1140TIP3    H227400   7.956   0.450   8.470
 1141TIP3   OH227401   8.032   1.306   8.848
 1141TIP3    H127402   8.030   1.394   8.811
 1141TIP3    H227403   7.947   1.291   8.893
 1142TIP3   OH227404   7.651   1.235   7.927
 1142TIP3    H127405   7.640   1.271   7.839
 1142TIP3    H227406   7.672   1.314   7.981
 1143TIP3   OH227407   7.894   0.930   8.982
 1143TIP3    H127408   7.909   1.004   9.044
 1143TIP3    H227409   7.805   0.952   8.953
 1144TIP3   OH227410   8.036   1.528   9.139
 1144TIP3    H127411   8.038   1.517   9.043
 1144TIP3    H227412   7.941   1.514   9.159
 1145TIP3   OH227413   7.980   0.902   7.961
 1145TIP3    H127414   7.954   0.994   7.945
 1145TIP3    H227415   7.901   0.850   7.966
 1146TIP3   OH227416   7.589   1.152   8.877
 1146TIP3    H127417   7.547   1.144   8.789
 1146TIP3    H227418   7.602   1.057   8.897
 1147TIP3   OH227419   7.569   1.430   8.549
 1147TIP3    H127420   7.664   1.414   8.553
 1147TIP3    H227421   7.562   1.508   8.605
 1148TIP3   OH227422   7.884   1.703   8.173
 1148TIP3    H127423   7.903   1.666   8.262
 1148TIP3    H227424   7.799   1.664   8.151
 1149TIP3   OH227425   7.809   1.290   8.976
 1149TIP3    H127426   7.841   1.245   9.058
 1149TIP3    H227427   7.729   1.240   8.949
 1150TIP3   OH227428   7.867   0.653   8.862
 1150TIP3    H127429   7.860   0.707   8.942
 1150TIP3    H227430   7.813   0.573   8.867
 1151TIP3   OH227431   7.527   0.370   8.255
 1151TIP3    H127432   7.592   0.367   8.328
 1151TIP3    H227433   7.574   0.331   8.180
 1152TIP3   OH227434   7.655   0.443   7.798
 1152TIP3    H127435   7.701   0.498   7.735
 1152TIP3    H227436   7.582   0.503   7.823
 1153TIP3   OH227437   7.825   0.557   8.163
 1153TIP3    H127438   7.737   0.562   8.122
 1153TIP3    H227439   7.859   0.470   8.135
 1154TIP3   OH227440   7.876   1.139   9.188
 1154TIP3    H127441   7.946   1.155   9.251
 1154TIP3    H227442   7.798   1.140   9.248
 1155TIP3   OH227443   7.926   0.283   8.096
 1155TIP3    H127444   7.926   0.188   8.116
 1155TIP3    H227445   8.022   0.296   8.083
 1156TIP3   OH227446   7.907   1.066   8.453
 1156TIP3    H127447   7.981   1.062   8.390
 1156TIP3    H227448   7.920   0.983   8.502
 1157TIP3   OH227449   7.612   0.903   8.984
 1157TIP3    H127450   7.624   0.861   9.071
 1157TIP3    H227451   7.545   0.848   8.939
 1158TIP3   OH227452   7.768   0.376   8.945
 1158TIP3    H127453   7.678   0.401   8.918
 1158TIP3    H227454   7.757   0.283   8.975
 1159TIP3   OH227455   7.744   1.558   8.779
 1159TIP3    H127456   7.760   1.463   8.785
 1159TIP3    H227457   7.762   1.588   8.869
 1160TIP3   OH227458   7.857   1.092   7.788
 1160TIP3    H127459   7.801   1.122   7.862
 1160TIP3    H227460   7.917   1.169   7.785
 1161TIP3   OH227461   7.937   1.334   7.703
 1161TIP3    H127462   7.982   1.417   7.722
 1161TIP3    H227463   7.982   1.319   7.619
 1162TIP3   OH227464   7.813   0.124   8.463
 1162TIP3    H127465   7.814   0.105   8.367
 1162TIP3    H227466   7.803   0.034   8.499
 1163TIP3   OH227467   7.717   1.482   8.085
 1163TIP3    H127468   7.647   1.546   8.088
 1163TIP3    H227469   7.782   1.527   8.027
 1164TIP3   OH227470   7.651   1.756   9.217
 1164TIP3    H127471   7.710   1.734   9.292
 1164TIP3    H227472   7.611   1.669   9.201
 1165TIP3   OH227473   7.644   1.131   9.320
 1165TIP3    H127474   7.658   1.038   9.292
 1165TIP3    H227475   7.568   1.155   9.263
 1166TIP3   OH227476   7.737   0.851   9.258
 1166TIP3    H127477   7.779   0.766   9.254
 1166TIP3    H227478   7.716   0.856   9.353
 1167TIP3   OH227479   7.990   0.633   9.291
 1167TIP3    H127480   7.933   0.556   9.295
 1167TIP3    H227481   8.070   0.597   9.248
 1168TIP3   OH227482   7.822   0.401   9.262
 1168TIP3    H127483   7.839   0.319   9.211
 1168TIP3    H227484   7.816   0.363   9.353
 1169TIP3   OH227485   7.522   1.853   8.136
 1169TIP3    H127486   7.450   1.807   8.090
 1169TIP3    H227487   7.553   1.792   8.205
 1170TIP3   OH227488   7.601   1.665   8.323
 1170TIP3    H127489   7.573   1.577   8.351
 1170TIP3    H227490   7.632   1.701   8.408
 1171TIP3   OH227491   7.612   0.979   8.571
 1171TIP3    H127492   7.632   0.965   8.476
 1171TIP3    H227493   7.700   0.958   8.609
 1172TIP3   OH227494   7.582   0.505   9.181
 1172TIP3    H127495   7.664   0.474   9.221
 1172TIP3    H227496   7.523   0.431   9.211
 1173TIP3   OH227497   7.681   0.342   8.477
 1173TIP3    H127498   7.734   0.259   8.490
 1173TIP3    H227499   7.750   0.406   8.505
 1174TIP3   OH227500   7.519   0.634   8.577
 1174TIP3    H127501   7.578   0.609   8.503
 1174TIP3    H227502   7.565   0.716   8.602
 1175TIP3   OH227503   7.552   0.254   7.981
 1175TIP3    H127504   7.460   0.283   7.972
 1175TIP3    H227505   7.599   0.309   7.915
 1176TIP3   OH227506   7.560   0.140   8.813
 1176TIP3    H127507   7.496   0.116   8.880
 1176TIP3    H227508   7.510   0.199   8.752
 1177TIP3   OH227509   7.774   1.447   9.230
 1177TIP3    H127510   7.691   1.469   9.185
 1177TIP3    H227511   7.745   1.436   9.321
 1178TIP3   OH227512   7.812   1.879   8.864
 1178TIP3    H127513   7.736   1.918   8.816
 1178TIP3    H227514   7.773   1.847   8.946
 1179TIP3   OH227515   8.030   1.796   8.732
 1179TIP3    H127516   7.968   1.833   8.798
 1179TIP3    H227517   8.058   1.878   8.690
 1180TIP3   OH227518   7.742   1.735   8.552
 1180TIP3    H127519   7.746   1.691   8.639
 1180TIP3    H227520   7.826   1.702   8.513
 1181TIP3   OH227521   7.944   1.604   8.435
 1181TIP3    H127522   7.940   1.507   8.444
 1181TIP3    H227523   8.035   1.617   8.468
 1182TIP3   OH227524   7.792   0.073   8.205
 1182TIP3    H127525   7.718   0.057   8.146
 1182TIP3    H227526   7.852  -0.003   8.194
 1183TIP3   OH227527   7.710   0.106   7.788
 1183TIP3    H127528   7.725   0.154   7.705
 1183TIP3    H227529   7.621   0.132   7.820
 1184TIP3   OH227530   7.660   1.655   7.885
 1184TIP3    H127531   7.612   1.656   7.800
 1184TIP3    H227532   7.682   1.750   7.888
 1185TIP3   OH227533   7.802   0.144   9.150
 1185TIP3    H127534   7.762   0.063   9.183
 1185TIP3    H227535   7.893   0.127   9.178
 1186TIP3   OH227536   7.990   0.088   9.335
 1186TIP3    H127537   8.069   0.058   9.285
 1186TIP3    H227538   7.949  -0.000   9.345
 1187TIP3   OH227539   1.173   2.882   8.188
 1187TIP3    H127540   1.171   2.980   8.185
 1187TIP3    H227541   1.099   2.859   8.129
 1188TIP3   OH227542   1.058   2.807   8.538
 1188TIP3    H127543   1.057   2.743   8.610
 1188TIP3    H227544   1.019   2.756   8.465
 1189TIP3   OH227545   0.302   2.771   8.688
 1189TIP3    H127546   0.301   2.707   8.762
 1189TIP3    H227547   0.371   2.832   8.717
 1190TIP3   OH227548   1.421   3.105   8.366
 1190TIP3    H127549   1.385   3.031   8.415
 1190TIP3    H227550   1.430   3.172   8.437
 1191TIP3   OH227551   0.383   3.220   8.540
 1191TIP3    H127552   0.353   3.131   8.514
 1191TIP3    H227553   0.479   3.201   8.545
 1192TIP3   OH227554   0.056   2.576   8.088
 1192TIP3    H127555   0.011   2.663   8.089
 1192TIP3    H227556  -0.007   2.521   8.043
 1193TIP3   OH227557   0.121   2.796   8.308
 1193TIP3    H127558   0.147   2.713   8.352
 1193TIP3    H227559   0.191   2.804   8.241
 1194TIP3   OH227560   1.141   3.614   8.401
 1194TIP3    H127561   1.213   3.547   8.387
 1194TIP3    H227562   1.114   3.587   8.491
 1195TIP3   OH227563   0.893   3.048   8.589
 1195TIP3    H127564   0.927   2.986   8.522
 1195TIP3    H227565   0.976   3.063   8.638
 1196TIP3   OH227566   1.753   2.214   8.657
 1196TIP3    H127567   1.772   2.272   8.735
 1196TIP3    H227568   1.811   2.255   8.592
 1197TIP3   OH227569   1.212   2.494   8.618
 1197TIP3    H127570   1.229   2.398   8.619
 1197TIP3    H227571   1.201   2.508   8.522
 1198TIP3   OH227572   0.538   2.265   8.334
 1198TIP3    H127573   0.537   2.361   8.312
 1198TIP3    H227574   0.480   2.233   8.262
 1199TIP3   OH227575   1.298   2.307   8.173
 1199TIP3    H127576   1.361   2.279   8.244
 1199TIP3    H227577   1.354   2.370   8.124
 1200TIP3   OH227578   0.185   2.537   8.413
 1200TIP3    H127579   0.263   2.493   8.453
 1200TIP3    H227580   0.202   2.515   8.320
 1201TIP3   OH227581   0.726   2.710   8.333
 1201TIP3    H127582   0.770   2.643   8.387
 1201TIP3    H227583   0.652   2.651   8.306
 1202TIP3   OH227584   1.798   2.353   8.886
 1202TIP3    H127585   1.738   2.430   8.874
 1202TIP3    H227586   1.801   2.347   8.982
 1203TIP3   OH227587   0.417   2.189   8.743
 1203TIP3    H127588   0.391   2.250   8.669
 1203TIP3    H227589   0.349   2.214   8.810
 1204TIP3   OH227590   1.141   3.141   8.099
 1204TIP3    H127591   1.117   3.112   8.010
 1204TIP3    H227592   1.110   3.233   8.100
 1205TIP3   OH227593   0.668   2.959   8.767
 1205TIP3    H127594   0.596   3.022   8.789
 1205TIP3    H227595   0.737   3.019   8.736
 1206TIP3   OH227596   1.477   2.247   8.376
 1206TIP3    H127597   1.456   2.169   8.428
 1206TIP3    H227598   1.545   2.289   8.431
 1207TIP3   OH227599   0.375   2.368   8.555
 1207TIP3    H127600   0.430   2.449   8.573
 1207TIP3    H227601   0.422   2.342   8.472
 1208TIP3   OH227602   0.511   3.159   8.849
 1208TIP3    H127603   0.501   3.248   8.812
 1208TIP3    H227604   0.423   3.146   8.890
 1209TIP3   OH227605   0.120   3.124   7.929
 1209TIP3    H127606   0.090   3.150   7.841
 1209TIP3    H227607   0.125   3.207   7.979
 1210TIP3   OH227608   1.479   3.285   8.603
 1210TIP3    H127609   1.383   3.297   8.619
 1210TIP3    H227610   1.506   3.377   8.584
 1211TIP3   OH227611   1.511   2.114   8.742
 1211TIP3    H127612   1.439   2.178   8.732
 1211TIP3    H227613   1.583   2.156   8.690
 1212TIP3   OH227614   0.807   1.928   8.486
 1212TIP3    H127615   0.793   1.832   8.481
 1212TIP3    H227616   0.720   1.958   8.520
 1213TIP3   OH227617   1.313   3.464   8.264
 1213TIP3    H127618   1.355   3.387   8.217
 1213TIP3    H227619   1.374   3.535   8.231
 1214TIP3   OH227620   1.421   3.259   8.118
 1214TIP3    H127621   1.399   3.190   8.053
 1214TIP3    H227622   1.431   3.205   8.199
 1215TIP3   OH227623   1.586   3.118   8.964
 1215TIP3    H127624   1.602   3.051   8.893
 1215TIP3    H227625   1.608   3.201   8.918
 1216TIP3   OH227626   1.043   2.813   7.944
 1216TIP3    H127627   0.969   2.863   7.906
 1216TIP3    H227628   1.108   2.814   7.871
 1217TIP3   OH227629   1.048   2.657   7.647
 1217TIP3    H127630   1.119   2.661   7.712
 1217TIP3    H227631   1.076   2.585   7.590
 1218TIP3   OH227632   1.776   2.749   8.768
 1218TIP3    H127633   1.710   2.821   8.772
 1218TIP3    H227634   1.825   2.774   8.687
 1219TIP3   OH227635   1.385   2.829   8.034
 1219TIP3    H127636   1.309   2.850   8.093
 1219TIP3    H227637   1.431   2.760   8.084
 1220TIP3   OH227638   1.376   2.643   8.945
 1220TIP3    H127639   1.376   2.726   8.997
 1220TIP3    H227640   1.313   2.672   8.876
 1221TIP3   OH227641   0.547   2.895   8.223
 1221TIP3    H127642   0.511   2.855   8.139
 1221TIP3    H227643   0.603   2.821   8.257
 1222TIP3   OH227644   0.675   3.231   8.494
 1222TIP3    H127645   0.675   3.180   8.411
 1222TIP3    H227646   0.754   3.196   8.538
 1223TIP3   OH227647   0.580   2.769   8.594
 1223TIP3    H127648   0.630   2.776   8.511
 1223TIP3    H227649   0.617   2.837   8.653
 1224TIP3   OH227650   1.218   3.326   8.660
 1224TIP3    H127651   1.192   3.387   8.730
 1224TIP3    H227652   1.194   3.240   8.701
 1225TIP3   OH227653   0.673   3.216   9.057
 1225TIP3    H127654   0.628   3.283   9.111
 1225TIP3    H227655   0.605   3.188   8.991
 1226TIP3   OH227656   1.269   2.747   7.800
 1226TIP3    H127657   1.323   2.765   7.881
 1226TIP3    H227658   1.315   2.795   7.730
 1227TIP3   OH227659   0.365   2.823   8.977
 1227TIP3    H127660   0.371   2.895   9.042
 1227TIP3    H227661   0.270   2.835   8.953
 1228TIP3   OH227662   1.035   3.408   8.130
 1228TIP3    H127663   1.056   3.411   8.225
 1228TIP3    H227664   0.967   3.476   8.116
 1229TIP3   OH227665   0.496   3.423   9.129
 1229TIP3    H127666   0.486   3.394   9.037
 1229TIP3    H227667   0.407   3.400   9.164
 1230TIP3   OH227668   1.633   1.918   7.779
 1230TIP3    H127669   1.546   1.934   7.821
 1230TIP3    H227670   1.665   2.005   7.752
 1231TIP3   OH227671   0.444   2.806   7.983
 1231TIP3    H127672   0.408   2.876   7.925
 1231TIP3    H227673   0.384   2.732   7.966
 1232TIP3   OH227674   1.759   3.352   7.631
 1232TIP3    H127675   1.762   3.449   7.634
 1232TIP3    H227676   1.851   3.323   7.621
 1233TIP3   OH227677   0.103   2.995   8.852
 1233TIP3    H127678   0.026   3.030   8.803
 1233TIP3    H227679   0.057   2.925   8.903
 1234TIP3   OH227680   0.050   3.334   8.536
 1234TIP3    H127681   0.140   3.302   8.556
 1234TIP3    H227682   0.031   3.392   8.612
 1235TIP3   OH227683   1.849   3.382   9.123
 1235TIP3    H127684   1.837   3.286   9.119
 1235TIP3    H227685   1.762   3.407   9.160
 1236TIP3   OH227686   0.942   3.339   9.003
 1236TIP3    H127687   0.953   3.418   9.061
 1236TIP3    H227688   0.859   3.297   9.034
 1237TIP3   OH227689   0.992   3.710   7.989
 1237TIP3    H127690   0.981   3.706   7.891
 1237TIP3    H227691   0.990   3.807   8.006
 1238TIP3   OH227692   0.359   3.594   8.168
 1238TIP3    H127693   0.367   3.557   8.259
 1238TIP3    H227694   0.272   3.557   8.146
 1239TIP3   OH227695   1.258   3.635   7.985
 1239TIP3    H127696   1.163   3.629   7.966
 1239TIP3    H227697   1.292   3.545   8.003
 1240TIP3   OH227698   1.564   2.528   9.169
 1240TIP3    H127699   1.515   2.573   9.097
 1240TIP3    H227700   1.562   2.436   9.139
 1241TIP3   OH227701   0.279   3.179   8.973
 1241TIP3    H127702   0.293   3.132   9.058
 1241TIP3    H227703   0.198   3.132   8.943
 1242TIP3   OH227704   0.547   2.018   8.563
 1242TIP3    H127705   0.457   2.007   8.526
 1242TIP3    H227706   0.533   2.101   8.612
 1243TIP3   OH227707   1.012   1.985   8.901
 1243TIP3    H127708   1.049   1.940   8.979
 1243TIP3    H227709   0.915   1.973   8.914
 1244TIP3   OH227710   1.339   2.369   8.991
 1244TIP3    H127711   1.282   2.347   9.068
 1244TIP3    H227712   1.320   2.462   8.968
 1245TIP3   OH227713   0.975   2.238   7.642
 1245TIP3    H127714   0.934   2.234   7.731
 1245TIP3    H227715   0.939   2.158   7.602
 1246TIP3   OH227716   0.559   2.516   8.695
 1246TIP3    H127717   0.481   2.515   8.752
 1246TIP3    H227718   0.548   2.602   8.646
 1247TIP3   OH227719   0.533   2.549   8.070
 1247TIP3    H127720   0.475   2.534   8.147
 1247TIP3    H227721   0.603   2.485   8.085
 1248TIP3   OH227722   1.104   2.576   8.051
 1248TIP3    H127723   1.066   2.659   8.018
 1248TIP3    H227724   1.173   2.558   7.985
 1249TIP3   OH227725   1.009   2.597   9.196
 1249TIP3    H127726   0.958   2.519   9.227
 1249TIP3    H227727   1.093   2.586   9.244
 1250TIP3   OH227728   1.209   2.526   8.337
 1250TIP3    H127729   1.179   2.582   8.264
 1250TIP3    H227730   1.217   2.441   8.290
 1251TIP3   OH227731   0.317   2.542   8.860
 1251TIP3    H127732   0.321   2.581   8.948
 1251TIP3    H227733   0.273   2.457   8.876
 1252TIP3   OH227734   0.658   2.286   7.539
 1252TIP3    H127735   0.622   2.243   7.619
 1252TIP3    H227736   0.577   2.312   7.494
 1253TIP3   OH227737   0.008   2.277   8.267
 1253TIP3    H127738   0.065   2.247   8.341
 1253TIP3    H227739   0.030   2.216   8.198
 1254TIP3   OH227740   1.129   2.683   8.793
 1254TIP3    H127741   1.166   2.614   8.734
 1254TIP3    H227742   1.080   2.631   8.859
 1255TIP3   OH227743   0.808   2.282   8.276
 1255TIP3    H127744   0.713   2.281   8.305
 1255TIP3    H227745   0.854   2.264   8.359
 1256TIP3   OH227746   0.280   2.428   8.167
 1256TIP3    H127747   0.199   2.450   8.119
 1256TIP3    H227748   0.316   2.352   8.118
 1257TIP3   OH227749   0.672   2.419   7.888
 1257TIP3    H127750   0.746   2.449   7.941
 1257TIP3    H227751   0.624   2.502   7.866
 1258TIP3   OH227752   1.248   2.203   8.601
 1258TIP3    H127753   1.179   2.209   8.670
 1258TIP3    H227754   1.198   2.178   8.522
 1259TIP3   OH227755   0.524   2.555   7.688
 1259TIP3    H127756   0.470   2.520   7.617
 1259TIP3    H227757   0.604   2.583   7.642
 1260TIP3   OH227758   1.568   3.769   9.233
 1260TIP3    H127759   1.594   3.807   9.148
 1260TIP3    H227760   1.640   3.801   9.289
 1261TIP3   OH227761   0.340   3.014   9.192
 1261TIP3    H127762   0.413   3.039   9.252
 1261TIP3    H227763   0.263   3.022   9.251
 1262TIP3   OH227764   0.938   2.558   8.470
 1262TIP3    H127765   0.995   2.504   8.414
 1262TIP3    H227766   0.920   2.501   8.545
 1263TIP3   OH227767   0.437   2.170   8.106
 1263TIP3    H127768   0.406   2.079   8.109
 1263TIP3    H227769   0.518   2.164   8.054
 1264TIP3   OH227770   0.800   2.389   8.709
 1264TIP3    H127771   0.718   2.442   8.715
 1264TIP3    H227772   0.855   2.427   8.780
 1265TIP3   OH227773   0.856   3.017   7.877
 1265TIP3    H127774   0.781   2.965   7.845
 1265TIP3    H227775   0.837   3.024   7.973
 1266TIP3   OH227776   1.578   2.933   8.758
 1266TIP3    H127777   1.634   2.982   8.693
 1266TIP3    H227778   1.492   2.936   8.712
 1267TIP3   OH227779   1.008   3.041   9.002
 1267TIP3    H127780   0.973   2.996   9.080
 1267TIP3    H227781   0.981   3.132   9.013
 1268TIP3   OH227782   1.319   2.478   7.857
 1268TIP3    H127783   1.406   2.474   7.900
 1268TIP3    H227784   1.323   2.561   7.806
 1269TIP3   OH227785   0.371   2.953   8.458
 1269TIP3    H127786   0.435   2.943   8.385
 1269TIP3    H227787   0.376   2.865   8.499
 1270TIP3   OH227788   1.076   3.163   7.789
 1270TIP3    H127789   1.032   3.246   7.815
 1270TIP3    H227790   1.002   3.100   7.797
 1271TIP3   OH227791   0.079   2.775   8.980
 1271TIP3    H127792   0.087   2.742   9.070
 1271TIP3    H227793   0.002   2.729   8.943
 1272TIP3   OH227794   0.771   2.749   9.201
 1272TIP3    H127795   0.737   2.715   9.116
 1272TIP3    H227796   0.862   2.714   9.200
 1273TIP3   OH227797   1.239   3.282   8.997
 1273TIP3    H127798   1.147   3.299   8.973
 1273TIP3    H227799   1.235   3.311   9.090
 1274TIP3   OH227800   1.803   2.499   7.832
 1274TIP3    H127801   1.749   2.468   7.758
 1274TIP3    H227802   1.812   2.593   7.807
 1275TIP3   OH227803   1.804   3.085   9.115
 1275TIP3    H127804   1.715   3.107   9.080
 1275TIP3    H227805   1.858   3.080   9.033
 1276TIP3   OH227806   1.642   3.379   7.876
 1276TIP3    H127807   1.598   3.301   7.910
 1276TIP3    H227808   1.659   3.360   7.783
 1277TIP3   OH227809   1.355   2.864   8.586
 1277TIP3    H127810   1.261   2.844   8.574
 1277TIP3    H227811   1.398   2.789   8.541
 1278TIP3   OH227812   0.608   3.296   8.193
 1278TIP3    H127813   0.655   3.379   8.178
 1278TIP3    H227814   0.518   3.319   8.166
 1279TIP3   OH227815   0.746   3.065   8.144
 1279TIP3    H127816   0.714   3.156   8.158
 1279TIP3    H227817   0.678   3.011   8.191
 1280TIP3   OH227818   0.788   3.494   8.804
 1280TIP3    H127819   0.845   3.557   8.756
 1280TIP3    H227820   0.858   3.443   8.852
 1281TIP3   OH227821   0.622   3.560   8.105
 1281TIP3    H127822   0.525   3.574   8.116
 1281TIP3    H227823   0.653   3.648   8.134
 1282TIP3   OH227824   1.144   3.082   8.749
 1282TIP3    H127825   1.114   3.063   8.841
 1282TIP3    H227826   1.209   3.011   8.733
 1283TIP3   OH227827   1.375   3.172   7.658
 1283TIP3    H127828   1.403   3.140   7.745
 1283TIP3    H227829   1.279   3.179   7.673
 1284TIP3   OH227830   1.428   3.540   8.998
 1284TIP3    H127831   1.358   3.490   8.952
 1284TIP3    H227832   1.446   3.610   8.932
 1285TIP3   OH227833   0.233   2.264   8.936
 1285TIP3    H127834   0.142   2.299   8.940
 1285TIP3    H227835   0.220   2.180   8.982
 1286TIP3   OH227836   1.458   3.048   7.884
 1286TIP3    H127837   1.434   2.969   7.938
 1286TIP3    H227838   1.553   3.056   7.904
 1287TIP3   OH227839   0.203   3.443   8.775
 1287TIP3    H127840   0.224   3.348   8.781
 1287TIP3    H227841   0.214   3.470   8.867
 1288TIP3   OH227842   0.786   3.295   7.504
 1288TIP3    H127843   0.799   3.217   7.449
 1288TIP3    H227844   0.750   3.250   7.583
 1289TIP3   OH227845   0.668   3.255   7.756
 1289TIP3    H127846   0.696   3.190   7.823
 1289TIP3    H227847   0.688   3.336   7.799
 1290TIP3   OH227848   0.326   2.976   7.807
 1290TIP3    H127849   0.251   3.012   7.859
 1290TIP3    H227850   0.374   3.053   7.776
 1291TIP3   OH227851   1.108   2.243   8.835
 1291TIP3    H127852   1.179   2.249   8.900
 1291TIP3    H227853   1.069   2.156   8.856
 1292TIP3   OH227854   1.198   2.192   7.934
 1292TIP3    H127855   1.196   2.259   7.865
 1292TIP3    H227856   1.235   2.243   8.009
 1293TIP3   OH227857   0.945   3.416   7.820
 1293TIP3    H127858   0.874   3.477   7.835
 1293TIP3    H227859   1.008   3.466   7.765
 1294TIP3   OH227860   0.909   2.372   8.027
 1294TIP3    H127861   0.983   2.435   8.030
 1294TIP3    H227862   0.877   2.364   8.119
 1295TIP3   OH227863   0.960   2.478   8.945
 1295TIP3    H127864   0.967   2.532   9.026
 1295TIP3    H227865   1.026   2.408   8.954
 1296TIP3   OH227866   0.993   2.082   8.117
 1296TIP3    H127867   0.956   2.147   8.179
 1296TIP3    H227868   1.058   2.138   8.070
 1297TIP3   OH227869   1.577   2.264   9.029
 1297TIP3    H127870   1.484   2.296   9.016
 1297TIP3    H227871   1.607   2.262   8.937
 1298TIP3   OH227872   1.440   2.642   8.428
 1298TIP3    H127873   1.357   2.598   8.402
 1298TIP3    H227874   1.488   2.574   8.481
 1299TIP3   OH227875   0.381   3.238   7.688
 1299TIP3    H127876   0.450   3.292   7.725
 1299TIP3    H227877   0.428   3.186   7.621
 1300TIP3   OH227878   1.543   3.570   8.594
 1300TIP3    H127879   1.538   3.639   8.526
 1300TIP3    H227880   1.640   3.573   8.613
 1301TIP3   OH227881   0.290   1.986   8.472
 1301TIP3    H127882   0.272   1.982   8.375
 1301TIP3    H227883   0.257   1.897   8.502
 1302TIP3   OH227884   0.192   3.370   8.090
 1302TIP3    H127885   0.108   3.418   8.088
 1302TIP3    H227886   0.239   3.421   8.022
 1303TIP3   OH227887   0.116   3.635   9.218
 1303TIP3    H127888   0.170   3.610   9.295
 1303TIP3    H227889   0.068   3.552   9.198
 1304TIP3   OH227890   0.580   3.530   9.380
 1304TIP3    H127891   0.654   3.479   9.416
 1304TIP3    H227892   0.575   3.498   9.288
 1305TIP3   OH227893   1.228   3.369   9.257
 1305TIP3    H127894   1.196   3.280   9.284
 1305TIP3    H227895   1.305   3.381   9.315
 1306TIP3   OH227896   0.102   3.019   9.323
 1306TIP3    H127897   0.118   2.928   9.291
 1306TIP3    H227898   0.032   3.044   9.262
 1307TIP3   OH227899   0.773   3.015   9.258
 1307TIP3    H127900   0.740   3.046   9.172
 1307TIP3    H227901   0.779   2.916   9.247
 1308TIP3   OH227902   1.342   3.000   8.998
 1308TIP3    H127903   1.421   3.057   8.993
 1308TIP3    H227904   1.273   3.067   9.001
 1309TIP3   OH227905   0.178   2.737   9.259
 1309TIP3    H127906   0.236   2.659   9.250
 1309TIP3    H227907   0.166   2.739   9.355
 1310TIP3   OH227908   0.583   2.632   8.993
 1310TIP3    H127909   0.522   2.703   9.017
 1310TIP3    H227910   0.622   2.668   8.910
 1311TIP3   OH227911   1.091   2.890   9.328
 1311TIP3    H127912   1.186   2.887   9.313
 1311TIP3    H227913   1.074   2.813   9.384
 1312TIP3   OH227914   0.628   2.371   9.099
 1312TIP3    H127915   0.636   2.300   9.032
 1312TIP3    H227916   0.617   2.451   9.044
 1313TIP3   OH227917   0.664   2.209   8.852
 1313TIP3    H127918   0.715   2.257   8.782
 1313TIP3    H227919   0.574   2.202   8.812
 1314TIP3   OH227920   0.818   2.759   8.879
 1314TIP3    H127921   0.893   2.741   8.821
 1314TIP3    H227922   0.781   2.842   8.845
 1315TIP3   OH227923   1.257   2.532   9.374
 1315TIP3    H127924   1.281   2.438   9.365
 1315TIP3    H227925   1.343   2.577   9.378
 1316TIP3   OH227926   1.392   2.812   9.192
 1316TIP3    H127927   1.367   2.884   9.130
 1316TIP3    H227928   1.488   2.809   9.173
 1317TIP3   OH227929   0.470   2.496   9.290
 1317TIP3    H127930   0.394   2.437   9.275
 1317TIP3    H227931   0.535   2.458   9.228
 1318TIP3   OH227932   0.744   1.952   8.892
 1318TIP3    H127933   0.724   2.048   8.883
 1318TIP3    H227934   0.669   1.913   8.843
 1319TIP3   OH227935   0.871   2.385   9.257
 1319TIP3    H127936   0.838   2.361   9.346
 1319TIP3    H227937   0.793   2.365   9.202
 1320TIP3   OH227938   1.143   2.299   9.167
 1320TIP3    H127939   1.046   2.305   9.177
 1320TIP3    H227940   1.168   2.235   9.236
 1321TIP3   OH227941   1.301   2.162   9.353
 1321TIP3    H127942   1.296   2.064   9.357
 1321TIP3    H227943   1.277   2.192   9.443
 1322TIP3   OH227944   0.284   2.289   9.268
 1322TIP3    H127945   0.306   2.215   9.208
 1322TIP3    H227946   0.272   2.242   9.353
 1323TIP3   OH227947   0.765   1.892   9.164
 1323TIP3    H127948   0.831   1.820   9.163
 1323TIP3    H227949   0.753   1.904   9.067
 1324TIP3   OH227950   0.801   2.051   9.378
 1324TIP3    H127951   0.784   2.001   9.294
 1324TIP3    H227952   0.743   2.128   9.366
 1325TIP3   OH227953   0.105   3.204   7.634
 1325TIP3    H127954   0.199   3.212   7.659
 1325TIP3    H227955   0.111   3.131   7.568
 1326TIP3   OH227956  -0.005   3.754   8.129
 1326TIP3    H127957  -0.083   3.704   8.096
 1326TIP3    H227958   0.016   3.691   8.200
 1327TIP3   OH227959   0.084   3.558   8.316
 1327TIP3    H127960   0.037   3.474   8.332
 1327TIP3    H227961   0.095   3.593   8.406
 1328TIP3   OH227962   1.817   3.633   8.616
 1328TIP3    H127963   1.821   3.649   8.712
 1328TIP3    H227964   1.887   3.692   8.586
 1329TIP3   OH227965   1.774   3.593   8.911
 1329TIP3    H127966   1.727   3.516   8.872
 1329TIP3    H227967   1.822   3.548   8.982
 1330TIP3   OH227968   1.619   3.164   9.379
 1330TIP3    H127969   1.528   3.162   9.414
 1330TIP3    H227970   1.656   3.245   9.419
 1331TIP3   OH227971   1.753   2.996   7.918
 1331TIP3    H127972   1.837   3.038   7.943
 1331TIP3    H227973   1.749   2.927   7.988
 1332TIP3   OH227974   1.787   2.806   8.107
 1332TIP3    H127975   1.711   2.757   8.147
 1332TIP3    H227976   1.845   2.819   8.185
 1333TIP3   OH227977   1.761   3.074   8.608
 1333TIP3    H127978   1.842   3.036   8.570
 1333TIP3    H227979   1.777   3.170   8.592
 1334TIP3   OH227980   1.618   3.366   8.835
 1334TIP3    H127981   1.549   3.400   8.894
 1334TIP3    H227982   1.563   3.326   8.764
 1335TIP3   OH227983   1.823   2.794   7.746
 1335TIP3    H127984   1.754   2.814   7.682
 1335TIP3    H227985   1.806   2.860   7.816
 1336TIP3   OH227986   1.570   2.652   8.166
 1336TIP3    H127987   1.554   2.557   8.163
 1336TIP3    H227988   1.536   2.674   8.255
 1337TIP3   OH227989   0.069   2.861   8.572
 1337TIP3    H127990   0.089   2.850   8.477
 1337TIP3    H227991   0.157   2.845   8.610
 1338TIP3   OH227992   1.655   2.849   9.137
 1338TIP3    H127993   1.716   2.773   9.149
 1338TIP3    H227994   1.716   2.926   9.137
 1339TIP3   OH227995   1.805   2.637   9.201
 1339TIP3    H127996   1.716   2.597   9.186
 1339TIP3    H227997   1.862   2.558   9.194
 1340TIP3   OH227998   1.570   2.252   7.507
 1340TIP3    H127999   1.640   2.222   7.567
 1340TIP3    H228000   1.487   2.215   7.533
 1341TIP3   OH228001   1.534   2.409   8.013
 1341TIP3    H128002   1.565   2.317   8.025
 1341TIP3    H228003   1.614   2.450   7.975
 1342TIP3   OH228004   1.599   2.466   8.557
 1342TIP3    H128005   1.695   2.488   8.556
 1342TIP3    H228006   1.581   2.479   8.652
 1343TIP3   OH228007   1.607   2.537   8.836
 1343TIP3    H128008   1.518   2.566   8.866
 1343TIP3    H228009   1.650   2.623   8.813
 1344TIP3   OH228010   0.048   2.350   9.153
 1344TIP3    H128011   0.133   2.363   9.200
 1344TIP3    H228012  -0.007   2.307   9.218
 1345TIP3   OH228013   1.834   1.945   9.369
 1345TIP3    H128014   1.869   1.878   9.308
 1345TIP3    H228015   1.843   2.026   9.314
 1346TIP3   OH228016   1.601   2.137   8.016
 1346TIP3    H128017   1.625   2.097   8.103
 1346TIP3    H228018   1.542   2.072   7.977
 1347TIP3   OH228019   0.151   2.220   8.479
 1347TIP3    H128020   0.201   2.139   8.499
 1347TIP3    H228021   0.206   2.289   8.517
 1348TIP3   OH228022  -0.003   2.531   8.586
 1348TIP3    H128023   0.048   2.504   8.505
 1348TIP3    H228024   0.038   2.616   8.603
 1349TIP3   OH228025   1.785   2.154   9.204
 1349TIP3    H128026   1.691   2.182   9.199
 1349TIP3    H228027   1.787   2.099   9.125
 1350TIP3   OH228028   0.040   2.132   7.943
 1350TIP3    H128029  -0.055   2.150   7.951
 1350TIP3    H228030   0.074   2.206   7.893
 1351TIP3   OH228031   1.489   3.640   8.178
 1351TIP3    H128032   1.558   3.613   8.113
 1351TIP3    H228033   1.541   3.692   8.241
 1352TIP3   OH228034   0.030   2.025   8.827
 1352TIP3    H128035  -0.044   1.996   8.882
 1352TIP3    H228036  -0.025   2.086   8.771
 1353TIP3   OH228037   0.238   3.341   9.230
 1353TIP3    H128038   0.151   3.354   9.187
 1353TIP3    H228039   0.211   3.326   9.321
 1354TIP3   OH228040   0.526   3.437   8.863
 1354TIP3    H128041   0.480   3.508   8.815
 1354TIP3    H228042   0.614   3.431   8.818
 1355TIP3   OH228043   0.956   3.575   9.148
 1355TIP3    H128044   0.970   3.539   9.238
 1355TIP3    H228045   1.047   3.604   9.125
 1356TIP3   OH228046   1.183   3.701   9.079
 1356TIP3    H128047   1.257   3.643   9.055
 1356TIP3    H228048   1.221   3.746   9.158
 1357TIP3   OH228049   1.687   1.963   8.992
 1357TIP3    H128050   1.605   1.993   8.949
 1357TIP3    H228051   1.704   1.881   8.941
 1358TIP3   OH228052   0.266   3.756   8.859
 1358TIP3    H128053   0.192   3.806   8.819
 1358TIP3    H228054   0.230   3.743   8.948
 1359TIP3   OH228055   0.513   3.716   8.768
 1359TIP3    H128056   0.420   3.732   8.798
 1359TIP3    H228057   0.509   3.771   8.686
 1360TIP3   OH228058   0.980   3.702   8.683
 1360TIP3    H128059   0.938   3.762   8.618
 1360TIP3    H228060   1.001   3.767   8.754
 1361TIP3   OH228061   1.214   3.584   8.783
 1361TIP3    H128062   1.129   3.614   8.748
 1361TIP3    H228063   1.263   3.667   8.777
 1362TIP3   OH228064   1.471   3.742   8.806
 1362TIP3    H128065   1.467   3.838   8.783
 1362TIP3    H228066   1.493   3.704   8.718
 1363TIP3   OH228067   0.219   3.627   8.550
 1363TIP3    H128068   0.201   3.578   8.634
 1363TIP3    H228069   0.295   3.581   8.509
 1364TIP3   OH228070   0.418   3.491   8.422
 1364TIP3    H128071   0.405   3.396   8.440
 1364TIP3    H228072   0.507   3.507   8.458
 1365TIP3   OH228073   0.680   3.540   8.504
 1365TIP3    H128074   0.694   3.447   8.477
 1365TIP3    H228075   0.688   3.534   8.600
 1366TIP3   OH228076   1.027   2.106   8.418
 1366TIP3    H128077   0.959   2.043   8.447
 1366TIP3    H228078   1.080   2.053   8.359
 1367TIP3   OH228079   1.541   1.906   8.421
 1367TIP3    H128080   1.600   1.970   8.373
 1367TIP3    H228081   1.452   1.944   8.403
 1368TIP3   OH228082   1.707   2.034   8.252
 1368TIP3    H128083   1.776   1.979   8.209
 1368TIP3    H228084   1.756   2.119   8.264
 1369TIP3   OH228085   0.266   1.967   8.202
 1369TIP3    H128086   0.185   1.947   8.152
 1369TIP3    H228087   0.312   1.882   8.195
 1370TIP3   OH228088   0.708   1.963   8.182
 1370TIP3    H128089   0.800   1.992   8.172
 1370TIP3    H228090   0.706   1.939   8.275
 1371TIP3   OH228091   1.283   1.962   8.343
 1371TIP3    H128092   1.276   1.974   8.247
 1371TIP3    H228093   1.243   1.873   8.355
 1372TIP3   OH228094   1.399   1.962   7.893
 1372TIP3    H128095   1.329   2.028   7.913
 1372TIP3    H228096   1.367   1.881   7.941
 1373TIP3   OH228097   0.130   3.541   7.881
 1373TIP3    H128098   0.070   3.539   7.804
 1373TIP3    H228099   0.134   3.637   7.892
 1374TIP3   OH228100   0.833   2.161   7.867
 1374TIP3    H128101   0.846   2.105   7.944
 1374TIP3    H228102   0.826   2.249   7.910
 1375TIP3   OH228103   1.019   3.663   7.707
 1375TIP3    H128104   1.110   3.692   7.695
 1375TIP3    H228105   1.004   3.616   7.625
 1376TIP3   OH228106   1.687   3.621   7.982
 1376TIP3    H128107   1.668   3.541   7.927
 1376TIP3    H228108   1.678   3.693   7.916
 1377TIP3   OH228109   0.248   2.029   9.159
 1377TIP3    H128110   0.212   1.941   9.185
 1377TIP3    H228111   0.343   2.016   9.186
 1378TIP3   OH228112   0.455   1.962   9.316
 1378TIP3    H128113   0.542   1.926   9.291
 1378TIP3    H228114   0.413   1.880   9.350
 1379TIP3   OH228115   1.290   1.888   9.330
 1379TIP3    H128116   1.304   1.841   9.413
 1379TIP3    H228117   1.381   1.888   9.292
 1380TIP3   OH228118   1.613   3.494   9.190
 1380TIP3    H128119   1.533   3.481   9.135
 1380TIP3    H228120   1.601   3.589   9.212
 1381TIP3   OH228121   3.058   2.882   8.188
 1381TIP3    H128122   3.058   2.980   8.187
 1381TIP3    H228123   2.986   2.861   8.127
 1382TIP3   OH228124   2.942   2.806   8.538
 1382TIP3    H128125   2.942   2.742   8.611
 1382TIP3    H228126   2.907   2.755   8.463
 1383TIP3   OH228127   2.178   2.776   8.692
 1383TIP3    H128128   2.185   2.709   8.763
 1383TIP3    H228129   2.253   2.832   8.716
 1384TIP3   OH228130   2.270   3.220   8.543
 1384TIP3    H128131   2.240   3.133   8.512
 1384TIP3    H228132   2.366   3.202   8.547
 1385TIP3   OH228133   1.936   2.576   8.091
 1385TIP3    H128134   1.891   2.663   8.089
 1385TIP3    H228135   1.878   2.523   8.034
 1386TIP3   OH228136   2.007   2.798   8.307
 1386TIP3    H128137   2.035   2.716   8.351
 1386TIP3    H228138   2.075   2.810   8.240
 1387TIP3   OH228139   3.028   3.610   8.385
 1387TIP3    H128140   3.097   3.546   8.361
 1387TIP3    H228141   3.004   3.582   8.474
 1388TIP3   OH228142   2.780   3.046   8.587
 1388TIP3    H128143   2.814   2.984   8.521
 1388TIP3    H228144   2.862   3.063   8.637
 1389TIP3   OH228145   3.639   2.215   8.657
 1389TIP3    H128146   3.658   2.272   8.734
 1389TIP3    H228147   3.697   2.256   8.592
 1390TIP3   OH228148   3.096   2.493   8.619
 1390TIP3    H128149   3.114   2.398   8.619
 1390TIP3    H228150   3.087   2.508   8.522
 1391TIP3   OH228151   2.407   2.302   8.340
 1391TIP3    H128152   2.420   2.385   8.289
 1391TIP3    H228153   2.369   2.247   8.266
 1392TIP3   OH228154   3.181   2.312   8.179
 1392TIP3    H128155   3.248   2.279   8.243
 1392TIP3    H228156   3.237   2.368   8.122
 1393TIP3   OH228157   2.071   2.545   8.412
 1393TIP3    H128158   2.136   2.491   8.457
 1393TIP3    H228159   2.080   2.514   8.320
 1394TIP3   OH228160   2.583   2.698   8.349
 1394TIP3    H128161   2.656   2.643   8.382
 1394TIP3    H228162   2.535   2.634   8.293
 1395TIP3   OH228163   3.683   2.353   8.886
 1395TIP3    H128164   3.623   2.430   8.875
 1395TIP3    H228165   3.688   2.348   8.982
 1396TIP3   OH228166   2.302   2.196   8.740
 1396TIP3    H128167   2.259   2.253   8.672
 1396TIP3    H228168   2.236   2.212   8.814
 1397TIP3   OH228169   3.022   3.139   8.098
 1397TIP3    H128170   3.001   3.118   8.008
 1397TIP3    H228171   3.000   3.235   8.105
 1398TIP3   OH228172   2.550   2.957   8.765
 1398TIP3    H128173   2.480   3.022   8.789
 1398TIP3    H228174   2.621   3.017   8.737
 1399TIP3   OH228175   3.365   2.246   8.375
 1399TIP3    H128176   3.341   2.169   8.428
 1399TIP3    H228177   3.431   2.289   8.431
 1400TIP3   OH228178   2.264   2.372   8.549
 1400TIP3    H128179   2.314   2.453   8.575
 1400TIP3    H228180   2.298   2.350   8.458
 1401TIP3   OH228181   2.396   3.159   8.848
 1401TIP3    H128182   2.390   3.250   8.815
 1401TIP3    H228183   2.308   3.150   8.892
 1402TIP3   OH228184   2.000   3.119   7.923
 1402TIP3    H128185   1.975   3.155   7.837
 1402TIP3    H228186   2.009   3.200   7.979
 1403TIP3   OH228187   3.365   3.289   8.617
 1403TIP3    H128188   3.267   3.294   8.613
 1403TIP3    H228189   3.389   3.375   8.579
 1404TIP3   OH228190   3.396   2.114   8.742
 1404TIP3    H128191   3.324   2.178   8.732
 1404TIP3    H228192   3.468   2.156   8.691
 1405TIP3   OH228193   2.692   1.931   8.488
 1405TIP3    H128194   2.685   1.834   8.479
 1405TIP3    H228195   2.602   1.952   8.521
 1406TIP3   OH228196   3.478   3.116   8.964
 1406TIP3    H128197   3.491   3.050   8.892
 1406TIP3    H228198   3.494   3.201   8.918
 1407TIP3   OH228199   2.925   2.803   7.939
 1407TIP3    H128200   2.854   2.860   7.906
 1407TIP3    H228201   2.992   2.809   7.868
 1408TIP3   OH228202   2.932   2.660   7.646
 1408TIP3    H128203   3.003   2.650   7.709
 1408TIP3    H228204   2.951   2.591   7.580
 1409TIP3   OH228205   3.661   2.748   8.767
 1409TIP3    H128206   3.594   2.819   8.773
 1409TIP3    H228207   3.707   2.769   8.685
 1410TIP3   OH228208   3.265   2.819   8.029
 1410TIP3    H128209   3.198   2.853   8.093
 1410TIP3    H228210   3.319   2.764   8.088
 1411TIP3   OH228211   3.261   2.643   8.945
 1411TIP3    H128212   3.261   2.726   8.996
 1411TIP3    H228213   3.199   2.672   8.875
 1412TIP3   OH228214   2.429   2.892   8.224
 1412TIP3    H128215   2.396   2.852   8.140
 1412TIP3    H228216   2.491   2.823   8.258
 1413TIP3   OH228217   2.560   3.229   8.491
 1413TIP3    H128218   2.561   3.179   8.409
 1413TIP3    H228219   2.640   3.195   8.537
 1414TIP3   OH228220   2.463   2.763   8.592
 1414TIP3    H128221   2.515   2.777   8.510
 1414TIP3    H228222   2.500   2.832   8.651
 1415TIP3   OH228223   3.104   3.326   8.662
 1415TIP3    H128224   3.075   3.388   8.730
 1415TIP3    H228225   3.080   3.239   8.701
 1416TIP3   OH228226   2.557   3.211   9.060
 1416TIP3    H128227   2.515   3.284   9.109
 1416TIP3    H228228   2.491   3.190   8.990
 1417TIP3   OH228229   3.155   2.751   7.799
 1417TIP3    H128230   3.210   2.767   7.881
 1417TIP3    H228231   3.201   2.794   7.727
 1418TIP3   OH228232   2.252   2.826   8.973
 1418TIP3    H128233   2.258   2.893   9.045
 1418TIP3    H228234   2.157   2.834   8.954
 1419TIP3   OH228235   2.926   3.420   8.145
 1419TIP3    H128236   2.972   3.452   8.223
 1419TIP3    H228237   2.870   3.495   8.121
 1420TIP3   OH228238   2.382   3.413   9.134
 1420TIP3    H128239   2.375   3.404   9.038
 1420TIP3    H228240   2.290   3.399   9.162
 1421TIP3   OH228241   2.328   2.798   7.980
 1421TIP3    H128242   2.291   2.876   7.940
 1421TIP3    H228243   2.261   2.728   7.967
 1422TIP3   OH228244   1.935   3.038   8.877
 1422TIP3    H128245   1.891   3.030   8.790
 1422TIP3    H228246   1.944   2.943   8.898
 1423TIP3   OH228247   1.911   3.311   8.554
 1423TIP3    H128248   2.007   3.300   8.551
 1423TIP3    H228249   1.903   3.393   8.603
 1424TIP3   OH228250   3.734   3.382   9.124
 1424TIP3    H128251   3.725   3.286   9.117
 1424TIP3    H228252   3.646   3.406   9.160
 1425TIP3   OH228253   2.830   3.335   9.008
 1425TIP3    H128254   2.836   3.420   9.059
 1425TIP3    H228255   2.743   3.299   9.033
 1426TIP3   OH228256   2.871   3.710   7.988
 1426TIP3    H128257   2.866   3.701   7.891
 1426TIP3    H228258   2.877   3.806   8.004
 1427TIP3   OH228259   2.237   3.601   8.173
 1427TIP3    H128260   2.255   3.557   8.260
 1427TIP3    H228261   2.154   3.556   8.150
 1428TIP3   OH228262   3.145   3.628   7.969
 1428TIP3    H128263   3.050   3.628   7.989
 1428TIP3    H228264   3.178   3.555   8.024
 1429TIP3   OH228265   3.450   2.528   9.168
 1429TIP3    H128266   3.401   2.573   9.097
 1429TIP3    H228267   3.447   2.436   9.138
 1430TIP3   OH228268   2.164   3.169   8.969
 1430TIP3    H128269   2.186   3.133   9.058
 1430TIP3    H228270   2.077   3.130   8.948
 1431TIP3   OH228271   2.432   2.013   8.560
 1431TIP3    H128272   2.341   1.991   8.526
 1431TIP3    H228273   2.410   2.061   8.640
 1432TIP3   OH228274   2.898   1.982   8.900
 1432TIP3    H128275   2.937   1.940   8.979
 1432TIP3    H228276   2.801   1.971   8.916
 1433TIP3   OH228277   3.225   2.369   8.991
 1433TIP3    H128278   3.168   2.347   9.068
 1433TIP3    H228279   3.206   2.462   8.968
 1434TIP3   OH228280   2.441   2.512   8.689
 1434TIP3    H128281   2.370   2.517   8.756
 1434TIP3    H228282   2.440   2.605   8.654
 1435TIP3   OH228283   2.437   2.518   8.179
 1435TIP3    H128284   2.343   2.502   8.160
 1435TIP3    H228285   2.475   2.497   8.091
 1436TIP3   OH228286   2.986   2.573   8.050
 1436TIP3    H128287   2.950   2.658   8.018
 1436TIP3    H228288   3.059   2.558   7.987
 1437TIP3   OH228289   2.895   2.597   9.196
 1437TIP3    H128290   2.843   2.519   9.227
 1437TIP3    H228291   2.979   2.586   9.244
 1438TIP3   OH228292   3.093   2.525   8.338
 1438TIP3    H128293   3.065   2.582   8.264
 1438TIP3    H228294   3.103   2.440   8.291
 1439TIP3   OH228295   2.206   2.536   8.855
 1439TIP3    H128296   2.213   2.582   8.941
 1439TIP3    H228297   2.158   2.455   8.880
 1440TIP3   OH228298   1.867   2.249   8.254
 1440TIP3    H128299   1.934   2.246   8.326
 1440TIP3    H228300   1.915   2.212   8.178
 1441TIP3   OH228301   2.004   2.327   7.804
 1441TIP3    H128302   2.043   2.380   7.732
 1441TIP3    H228303   1.926   2.384   7.818
 1442TIP3   OH228304   3.011   2.683   8.793
 1442TIP3    H128305   3.052   2.615   8.734
 1442TIP3    H228306   2.965   2.630   8.860
 1443TIP3   OH228307   2.694   2.283   8.278
 1443TIP3    H128308   2.601   2.283   8.303
 1443TIP3    H228309   2.744   2.263   8.359
 1444TIP3   OH228310   2.173   2.431   8.170
 1444TIP3    H128311   2.088   2.452   8.124
 1444TIP3    H228312   2.204   2.354   8.120
 1445TIP3   OH228313   2.536   2.445   7.933
 1445TIP3    H128314   2.633   2.450   7.940
 1445TIP3    H228315   2.513   2.508   7.862
 1446TIP3   OH228316   3.134   2.205   8.600
 1446TIP3    H128317   3.066   2.209   8.671
 1446TIP3    H228318   3.083   2.179   8.522
 1447TIP3   OH228319   2.412   2.563   7.683
 1447TIP3    H128320   2.351   2.526   7.617
 1447TIP3    H228321   2.493   2.576   7.632
 1448TIP3   OH228322   3.454   3.769   9.232
 1448TIP3    H128323   3.481   3.805   9.146
 1448TIP3    H228324   3.526   3.801   9.289
 1449TIP3   OH228325   2.221   3.016   9.191
 1449TIP3    H128326   2.293   3.041   9.251
 1449TIP3    H228327   2.144   3.022   9.251
 1450TIP3   OH228328   2.816   2.554   8.464
 1450TIP3    H128329   2.883   2.506   8.413
 1450TIP3    H228330   2.811   2.503   8.545
 1451TIP3   OH228331   2.325   2.171   8.114
 1451TIP3    H128332   2.289   2.080   8.108
 1451TIP3    H228333   2.401   2.163   8.055
 1452TIP3   OH228334   2.679   2.384   8.710
 1452TIP3    H128335   2.605   2.447   8.719
 1452TIP3    H228336   2.742   2.423   8.775
 1453TIP3   OH228337   2.737   3.014   7.872
 1453TIP3    H128338   2.662   2.958   7.856
 1453TIP3    H228339   2.729   3.030   7.969
 1454TIP3   OH228340   3.464   2.933   8.756
 1454TIP3    H128341   3.515   2.984   8.692
 1454TIP3    H228342   3.376   2.934   8.713
 1455TIP3   OH228343   3.128   2.292   7.700
 1455TIP3    H128344   3.036   2.311   7.678
 1455TIP3    H228345   3.162   2.379   7.727
 1456TIP3   OH228346   2.893   3.040   9.002
 1456TIP3    H128347   2.858   2.996   9.080
 1456TIP3    H228348   2.867   3.132   9.013
 1457TIP3   OH228349   3.202   2.489   7.865
 1457TIP3    H128350   3.292   2.470   7.900
 1457TIP3    H228351   3.211   2.567   7.809
 1458TIP3   OH228352   2.256   2.952   8.457
 1458TIP3    H128353   2.322   2.944   8.386
 1458TIP3    H228354   2.261   2.866   8.503
 1459TIP3   OH228355   2.958   3.158   7.783
 1459TIP3    H128356   2.923   3.245   7.813
 1459TIP3    H228357   2.881   3.099   7.798
 1460TIP3   OH228358   1.954   2.791   8.983
 1460TIP3    H128359   1.970   2.747   9.069
 1460TIP3    H228360   1.892   2.731   8.939
 1461TIP3   OH228361   2.655   2.748   9.200
 1461TIP3    H128362   2.623   2.715   9.115
 1461TIP3    H228363   2.747   2.714   9.200
 1462TIP3   OH228364   3.125   3.282   8.997
 1462TIP3    H128365   3.032   3.299   8.973
 1462TIP3    H228366   3.121   3.311   9.091
 1463TIP3   OH228367   3.684   2.500   7.839
 1463TIP3    H128368   3.632   2.471   7.765
 1463TIP3    H228369   3.698   2.595   7.817
 1464TIP3   OH228370   3.689   3.084   9.118
 1464TIP3    H128371   3.601   3.106   9.080
 1464TIP3    H228372   3.744   3.081   9.037
 1465TIP3   OH228373   3.241   2.856   8.595
 1465TIP3    H128374   3.147   2.845   8.572
 1465TIP3    H228375   3.283   2.790   8.538
 1466TIP3   OH228376   2.491   3.295   8.195
 1466TIP3    H128377   2.542   3.376   8.176
 1466TIP3    H228378   2.404   3.321   8.162
 1467TIP3   OH228379   2.073   2.782   7.650
 1467TIP3    H128380   2.125   2.848   7.693
 1467TIP3    H228381   1.982   2.804   7.679
 1468TIP3   OH228382   2.632   3.064   8.144
 1468TIP3    H128383   2.603   3.157   8.158
 1468TIP3    H228384   2.563   3.015   8.193
 1469TIP3   OH228385   2.679   3.483   8.790
 1469TIP3    H128386   2.726   3.561   8.760
 1469TIP3    H228387   2.741   3.447   8.856
 1470TIP3   OH228388   2.502   3.559   8.105
 1470TIP3    H128389   2.406   3.574   8.120
 1470TIP3    H228390   2.538   3.645   8.132
 1471TIP3   OH228391   3.029   3.080   8.750
 1471TIP3    H128392   2.999   3.062   8.841
 1471TIP3    H228393   3.094   3.010   8.733
 1472TIP3   OH228394   3.314   3.539   8.999
 1472TIP3    H128395   3.244   3.491   8.952
 1472TIP3    H228396   3.331   3.610   8.933
 1473TIP3   OH228397   2.120   2.264   8.936
 1473TIP3    H128398   2.030   2.301   8.938
 1473TIP3    H228399   2.108   2.182   8.987
 1474TIP3   OH228400   2.080   3.443   8.780
 1474TIP3    H128401   2.112   3.351   8.781
 1474TIP3    H228402   2.107   3.473   8.868
 1475TIP3   OH228403   2.660   3.291   7.506
 1475TIP3    H128404   2.694   3.222   7.450
 1475TIP3    H228405   2.650   3.257   7.593
 1476TIP3   OH228406   2.993   2.242   8.836
 1476TIP3    H128407   3.065   2.250   8.900
 1476TIP3    H228408   2.957   2.154   8.858
 1477TIP3   OH228409   3.068   2.200   7.947
 1477TIP3    H128410   3.088   2.245   7.863
 1477TIP3    H228411   3.123   2.249   8.010
 1478TIP3   OH228412   2.838   3.413   7.823
 1478TIP3    H128413   2.754   3.462   7.833
 1478TIP3    H228414   2.887   3.468   7.761
 1479TIP3   OH228415   2.789   2.374   8.023
 1479TIP3    H128416   2.867   2.433   8.027
 1479TIP3    H228417   2.763   2.363   8.116
 1480TIP3   OH228418   2.846   2.477   8.945
 1480TIP3    H128419   2.853   2.532   9.025
 1480TIP3    H228420   2.912   2.408   8.954
 1481TIP3   OH228421   2.876   2.082   8.112
 1481TIP3    H128422   2.843   2.147   8.175
 1481TIP3    H228423   2.946   2.136   8.068
 1482TIP3   OH228424   2.576   3.518   7.829
 1482TIP3    H128425   2.586   3.598   7.774
 1482TIP3    H228426   2.547   3.553   7.915
 1483TIP3   OH228427   2.443   2.189   7.785
 1483TIP3    H128428   2.436   2.279   7.820
 1483TIP3    H228429   2.533   2.167   7.815
 1484TIP3   OH228430   3.462   2.263   9.029
 1484TIP3    H128431   3.370   2.296   9.016
 1484TIP3    H228432   3.493   2.262   8.937
 1485TIP3   OH228433   3.326   2.642   8.431
 1485TIP3    H128434   3.243   2.599   8.402
 1485TIP3    H228435   3.371   2.572   8.483
 1486TIP3   OH228436   2.099   2.499   7.604
 1486TIP3    H128437   2.098   2.596   7.618
 1486TIP3    H228438   2.012   2.477   7.566
 1487TIP3   OH228439   3.429   3.574   8.601
 1487TIP3    H128440   3.420   3.630   8.524
 1487TIP3    H228441   3.527   3.573   8.614
 1488TIP3   OH228442   2.181   1.981   8.479
 1488TIP3    H128443   2.161   1.983   8.382
 1488TIP3    H228444   2.139   1.896   8.503
 1489TIP3   OH228445   2.073   3.373   8.092
 1489TIP3    H128446   1.988   3.419   8.088
 1489TIP3    H228447   2.122   3.419   8.023
 1490TIP3   OH228448   1.995   3.638   9.220
 1490TIP3    H128449   2.056   3.619   9.294
 1490TIP3    H228450   1.956   3.551   9.202
 1491TIP3   OH228451   2.465   3.530   9.380
 1491TIP3    H128452   2.540   3.480   9.414
 1491TIP3    H228453   2.461   3.502   9.287
 1492TIP3   OH228454   3.113   3.369   9.257
 1492TIP3    H128455   3.082   3.280   9.284
 1492TIP3    H228456   3.191   3.381   9.315
 1493TIP3   OH228457   1.985   3.015   9.320
 1493TIP3    H128458   2.002   2.924   9.290
 1493TIP3    H228459   1.912   3.041   9.262
 1494TIP3   OH228460   2.658   3.015   9.258
 1494TIP3    H128461   2.625   3.046   9.172
 1494TIP3    H228462   2.664   2.917   9.247
 1495TIP3   OH228463   3.228   3.000   9.002
 1495TIP3    H128464   3.307   3.057   8.990
 1495TIP3    H228465   3.159   3.067   8.999
 1496TIP3   OH228466   2.079   2.738   9.258
 1496TIP3    H128467   2.122   2.652   9.249
 1496TIP3    H228468   2.056   2.739   9.353
 1497TIP3   OH228469   2.467   2.630   8.989
 1497TIP3    H128470   2.410   2.702   9.018
 1497TIP3    H228471   2.511   2.671   8.913
 1498TIP3   OH228472   2.977   2.890   9.328
 1498TIP3    H128473   3.072   2.887   9.313
 1498TIP3    H228474   2.959   2.813   9.384
 1499TIP3   OH228475   3.584   2.905   7.527
 1499TIP3    H128476   3.558   2.865   7.443
 1499TIP3    H228477   3.593   2.998   7.500
 1500TIP3   OH228478   2.509   2.370   9.097
 1500TIP3    H128479   2.523   2.299   9.032
 1500TIP3    H228480   2.505   2.452   9.045
 1501TIP3   OH228481   2.551   2.203   8.851
 1501TIP3    H128482   2.603   2.257   8.787
 1501TIP3    H228483   2.458   2.204   8.820
 1502TIP3   OH228484   2.703   2.758   8.879
 1502TIP3    H128485   2.779   2.741   8.822
 1502TIP3    H228486   2.667   2.841   8.844
 1503TIP3   OH228487   3.143   2.532   9.374
 1503TIP3    H128488   3.168   2.439   9.364
 1503TIP3    H228489   3.229   2.577   9.378
 1504TIP3   OH228490   3.278   2.812   9.193
 1504TIP3    H128491   3.252   2.884   9.130
 1504TIP3    H228492   3.373   2.809   9.172
 1505TIP3   OH228493   2.356   2.495   9.291
 1505TIP3    H128494   2.279   2.437   9.274
 1505TIP3    H228495   2.421   2.458   9.228
 1506TIP3   OH228496   2.630   1.952   8.890
 1506TIP3    H128497   2.610   2.048   8.884
 1506TIP3    H228498   2.554   1.912   8.844
 1507TIP3   OH228499   2.755   2.385   9.257
 1507TIP3    H128500   2.723   2.361   9.346
 1507TIP3    H228501   2.678   2.364   9.202
 1508TIP3   OH228502   3.028   2.300   9.167
 1508TIP3    H128503   2.932   2.305   9.177
 1508TIP3    H228504   3.054   2.235   9.236
 1509TIP3   OH228505   3.185   2.161   9.354
 1509TIP3    H128506   3.182   2.063   9.358
 1509TIP3    H228507   3.162   2.190   9.444
 1510TIP3   OH228508   2.163   2.290   9.267
 1510TIP3    H128509   2.187   2.215   9.209
 1510TIP3    H228510   2.153   2.245   9.354
 1511TIP3   OH228511   2.650   1.892   9.163
 1511TIP3    H128512   2.718   1.822   9.162
 1511TIP3    H228513   2.639   1.905   9.066
 1512TIP3   OH228514   2.686   2.052   9.376
 1512TIP3    H128515   2.669   2.001   9.293
 1512TIP3    H228516   2.627   2.129   9.366
 1513TIP3   OH228517   2.638   3.759   7.703
 1513TIP3    H128518   2.734   3.744   7.694
 1513TIP3    H228519   2.611   3.792   7.616
 1514TIP3   OH228520   1.993   3.200   7.639
 1514TIP3    H128521   2.087   3.216   7.659
 1514TIP3    H228522   1.999   3.141   7.562
 1515TIP3   OH228523   1.866   3.738   8.136
 1515TIP3    H128524   1.793   3.691   8.090
 1515TIP3    H228525   1.892   3.674   8.205
 1516TIP3   OH228526   1.947   3.553   8.325
 1516TIP3    H128527   1.911   3.466   8.345
 1516TIP3    H228528   1.972   3.586   8.413
 1517TIP3   OH228529   3.690   3.653   8.620
 1517TIP3    H128530   3.708   3.644   8.715
 1517TIP3    H228531   3.778   3.677   8.587
 1518TIP3   OH228532   3.657   3.593   8.909
 1518TIP3    H128533   3.614   3.514   8.873
 1518TIP3    H228534   3.708   3.550   8.980
 1519TIP3   OH228535   3.504   3.164   9.379
 1519TIP3    H128536   3.414   3.162   9.415
 1519TIP3    H228537   3.542   3.245   9.419
 1520TIP3   OH228538   3.640   2.989   7.918
 1520TIP3    H128539   3.721   3.034   7.945
 1520TIP3    H228540   3.636   2.924   7.992
 1521TIP3   OH228541   3.673   2.803   8.106
 1521TIP3    H128542   3.600   2.757   8.150
 1521TIP3    H228543   3.735   2.825   8.179
 1522TIP3   OH228544   3.655   3.072   8.612
 1522TIP3    H128545   3.732   3.041   8.564
 1522TIP3    H228546   3.654   3.168   8.594
 1523TIP3   OH228547   3.503   3.365   8.836
 1523TIP3    H128548   3.433   3.400   8.893
 1523TIP3    H228549   3.448   3.326   8.764
 1524TIP3   OH228550   3.703   2.784   7.747
 1524TIP3    H128551   3.650   2.827   7.676
 1524TIP3    H228552   3.695   2.853   7.816
 1525TIP3   OH228553   3.451   2.650   8.166
 1525TIP3    H128554   3.438   2.554   8.166
 1525TIP3    H228555   3.422   2.677   8.254
 1526TIP3   OH228556   1.955   2.862   8.573
 1526TIP3    H128557   1.972   2.853   8.477
 1526TIP3    H228558   2.044   2.843   8.608
 1527TIP3   OH228559   3.539   2.849   9.139
 1527TIP3    H128560   3.601   2.773   9.148
 1527TIP3    H228561   3.600   2.926   9.137
 1528TIP3   OH228562   3.690   2.636   9.204
 1528TIP3    H128563   3.602   2.597   9.185
 1528TIP3    H228564   3.748   2.559   9.193
 1529TIP3   OH228565   3.421   2.409   8.008
 1529TIP3    H128566   3.451   2.318   8.026
 1529TIP3    H228567   3.502   2.452   7.977
 1530TIP3   OH228568   3.485   2.465   8.557
 1530TIP3    H128569   3.581   2.486   8.555
 1530TIP3    H228570   3.467   2.480   8.651
 1531TIP3   OH228571   3.492   2.537   8.835
 1531TIP3    H128572   3.404   2.565   8.866
 1531TIP3    H228573   3.535   2.623   8.814
 1532TIP3   OH228574   1.917   2.392   9.190
 1532TIP3    H128575   2.010   2.370   9.208
 1532TIP3    H228576   1.871   2.309   9.215
 1533TIP3   OH228577   3.720   1.944   9.368
 1533TIP3    H128578   3.753   1.877   9.306
 1533TIP3    H228579   3.728   2.025   9.314
 1534TIP3   OH228580   3.492   2.136   8.011
 1534TIP3    H128581   3.508   2.100   8.101
 1534TIP3    H228582   3.424   2.074   7.975
 1535TIP3   OH228583   2.038   2.221   8.471
 1535TIP3    H128584   2.079   2.137   8.499
 1535TIP3    H228585   2.090   2.290   8.514
 1536TIP3   OH228586   1.864   2.521   8.577
 1536TIP3    H128587   1.919   2.496   8.500
 1536TIP3    H228588   1.912   2.601   8.604
 1537TIP3   OH228589   3.671   2.154   9.204
 1537TIP3    H128590   3.577   2.182   9.199
 1537TIP3    H228591   3.673   2.099   9.125
 1538TIP3   OH228592   1.899   2.145   7.982
 1538TIP3    H128593   1.806   2.169   7.975
 1538TIP3    H228594   1.942   2.198   7.913
 1539TIP3   OH228595   1.895   2.011   8.812
 1539TIP3    H128596   1.830   1.995   8.883
 1539TIP3    H228597   1.852   2.081   8.760
 1540TIP3   OH228598   2.121   3.330   9.229
 1540TIP3    H128599   2.037   3.354   9.186
 1540TIP3    H228600   2.094   3.323   9.321
 1541TIP3   OH228601   2.410   3.433   8.858
 1541TIP3    H128602   2.378   3.520   8.831
 1541TIP3    H228603   2.503   3.440   8.827
 1542TIP3   OH228604   2.842   3.575   9.147
 1542TIP3    H128605   2.855   3.539   9.238
 1542TIP3    H228606   2.933   3.605   9.124
 1543TIP3   OH228607   3.070   3.702   9.080
 1543TIP3    H128608   3.144   3.644   9.055
 1543TIP3    H228609   3.108   3.746   9.159
 1544TIP3   OH228610   3.573   1.963   8.991
 1544TIP3    H128611   3.490   1.993   8.949
 1544TIP3    H228612   3.589   1.880   8.939
 1545TIP3   OH228613   2.152   3.756   8.856
 1545TIP3    H128614   2.079   3.806   8.817
 1545TIP3    H228615   2.122   3.738   8.946
 1546TIP3   OH228616   2.399   3.713   8.764
 1546TIP3    H128617   2.310   3.730   8.803
 1546TIP3    H228618   2.394   3.773   8.687
 1547TIP3   OH228619   2.871   3.704   8.679
 1547TIP3    H128620   2.823   3.762   8.617
 1547TIP3    H228621   2.885   3.766   8.753
 1548TIP3   OH228622   3.097   3.586   8.787
 1548TIP3    H128623   3.012   3.614   8.749
 1548TIP3    H228624   3.148   3.668   8.776
 1549TIP3   OH228625   3.355   3.742   8.808
 1549TIP3    H128626   3.350   3.837   8.785
 1549TIP3    H228627   3.378   3.702   8.722
 1550TIP3   OH228628   2.099   3.621   8.551
 1550TIP3    H128629   2.090   3.574   8.637
 1550TIP3    H228630   2.181   3.582   8.513
 1551TIP3   OH228631   2.306   3.492   8.416
 1551TIP3    H128632   2.290   3.399   8.441
 1551TIP3    H228633   2.392   3.508   8.461
 1552TIP3   OH228634   2.566   3.540   8.504
 1552TIP3    H128635   2.582   3.447   8.478
 1552TIP3    H228636   2.571   3.535   8.601
 1553TIP3   OH228637   2.908   2.105   8.417
 1553TIP3    H128638   2.845   2.038   8.447
 1553TIP3    H228639   2.967   2.052   8.361
 1554TIP3   OH228640   3.425   1.909   8.423
 1554TIP3    H128641   3.486   1.969   8.374
 1554TIP3    H228642   3.337   1.945   8.401
 1555TIP3   OH228643   3.590   2.036   8.250
 1555TIP3    H128644   3.660   1.976   8.213
 1555TIP3    H228645   3.642   2.118   8.268
 1556TIP3   OH228646   2.146   1.967   8.210
 1556TIP3    H128647   2.070   1.952   8.151
 1556TIP3    H228648   2.195   1.883   8.194
 1557TIP3   OH228649   2.024   1.944   7.779
 1557TIP3    H128650   2.064   2.008   7.720
 1557TIP3    H228651   1.966   2.000   7.833
 1558TIP3   OH228652   2.593   1.965   8.185
 1558TIP3    H128653   2.686   1.994   8.170
 1558TIP3    H228654   2.596   1.936   8.276
 1559TIP3   OH228655   3.167   1.962   8.344
 1559TIP3    H128656   3.161   1.974   8.249
 1559TIP3    H228657   3.129   1.872   8.356
 1560TIP3   OH228658   3.295   1.966   7.908
 1560TIP3    H128659   3.220   2.026   7.898
 1560TIP3    H228660   3.252   1.881   7.933
 1561TIP3   OH228661   2.014   3.541   7.878
 1561TIP3    H128662   1.951   3.536   7.805
 1561TIP3    H228663   2.016   3.635   7.896
 1562TIP3   OH228664   2.705   2.164   7.863
 1562TIP3    H128665   2.735   2.107   7.936
 1562TIP3    H228666   2.719   2.250   7.910
 1563TIP3   OH228667   2.904   3.673   7.706
 1563TIP3    H128668   2.997   3.692   7.689
 1563TIP3    H228669   2.883   3.621   7.627
 1564TIP3   OH228670   3.575   3.621   7.976
 1564TIP3    H128671   3.554   3.546   7.920
 1564TIP3    H228672   3.576   3.695   7.914
 1565TIP3   OH228673   2.138   2.021   9.147
 1565TIP3    H128674   2.097   1.943   9.187
 1565TIP3    H228675   2.227   2.017   9.188
 1566TIP3   OH228676   2.337   1.961   9.314
 1566TIP3    H128677   2.426   1.927   9.292
 1566TIP3    H228678   2.300   1.880   9.353
 1567TIP3   OH228679   3.177   1.889   9.328
 1567TIP3    H128680   3.186   1.841   9.413
 1567TIP3    H228681   3.269   1.885   9.294
 1568TIP3   OH228682   3.498   3.494   9.192
 1568TIP3    H128683   3.419   3.481   9.135
 1568TIP3    H228684   3.487   3.589   9.212
 1569TIP3   OH228685   4.945   2.883   8.189
 1569TIP3    H128686   4.942   2.981   8.184
 1569TIP3    H228687   4.870   2.859   8.131
 1570TIP3   OH228688   4.830   2.806   8.538
 1570TIP3    H128689   4.827   2.742   8.611
 1570TIP3    H228690   4.793   2.755   8.464
 1571TIP3   OH228691   5.196   3.103   8.367
 1571TIP3    H128692   5.155   3.031   8.416
 1571TIP3    H228693   5.199   3.173   8.435
 1572TIP3   OH228694   3.822   2.573   8.086
 1572TIP3    H128695   3.782   2.663   8.089
 1572TIP3    H228696   3.758   2.524   8.036
 1573TIP3   OH228697   4.909   3.618   8.389
 1573TIP3    H128698   4.974   3.549   8.362
 1573TIP3    H228699   4.886   3.584   8.476
 1574TIP3   OH228700   4.667   3.049   8.584
 1574TIP3    H128701   4.700   2.985   8.520
 1574TIP3    H228702   4.748   3.064   8.637
 1575TIP3   OH228703   5.524   2.214   8.657
 1575TIP3    H128704   5.543   2.271   8.735
 1575TIP3    H228705   5.583   2.255   8.592
 1576TIP3   OH228706   4.983   2.494   8.618
 1576TIP3    H128707   5.000   2.398   8.619
 1576TIP3    H228708   4.972   2.508   8.522
 1577TIP3   OH228709   4.294   2.301   8.338
 1577TIP3    H128710   4.305   2.386   8.291
 1577TIP3    H228711   4.253   2.247   8.268
 1578TIP3   OH228712   5.066   2.312   8.177
 1578TIP3    H128713   5.132   2.279   8.242
 1578TIP3    H228714   5.123   2.368   8.122
 1579TIP3   OH228715   3.952   2.537   8.417
 1579TIP3    H128716   4.025   2.488   8.457
 1579TIP3    H228717   3.968   2.524   8.323
 1580TIP3   OH228718   4.478   2.696   8.345
 1580TIP3    H128719   4.543   2.636   8.385
 1580TIP3    H228720   4.421   2.634   8.294
 1581TIP3   OH228721   5.570   2.354   8.886
 1581TIP3    H128722   5.510   2.431   8.874
 1581TIP3    H228723   5.572   2.347   8.982
 1582TIP3   OH228724   4.186   2.194   8.743
 1582TIP3    H128725   4.157   2.251   8.668
 1582TIP3    H228726   4.118   2.216   8.811
 1583TIP3   OH228727   4.916   3.141   8.096
 1583TIP3    H128728   4.888   3.114   8.008
 1583TIP3    H228729   4.882   3.232   8.105
 1584TIP3   OH228730   5.250   2.246   8.375
 1584TIP3    H128731   5.227   2.169   8.428
 1584TIP3    H228732   5.317   2.289   8.431
 1585TIP3   OH228733   4.143   2.375   8.548
 1585TIP3    H128734   4.204   2.446   8.577
 1585TIP3    H228735   4.194   2.339   8.471
 1586TIP3   OH228736   5.250   3.286   8.604
 1586TIP3    H128737   5.153   3.298   8.616
 1586TIP3    H228738   5.276   3.378   8.583
 1587TIP3   OH228739   5.282   2.114   8.742
 1587TIP3    H128740   5.210   2.178   8.732
 1587TIP3    H228741   5.354   2.156   8.691
 1588TIP3   OH228742   4.577   1.927   8.489
 1588TIP3    H128743   4.563   1.831   8.481
 1588TIP3    H228744   4.490   1.957   8.520
 1589TIP3   OH228745   5.075   3.464   8.261
 1589TIP3    H128746   5.120   3.392   8.214
 1589TIP3    H228747   5.123   3.543   8.227
 1590TIP3   OH228748   5.197   3.257   8.112
 1590TIP3    H128749   5.168   3.185   8.055
 1590TIP3    H228750   5.202   3.209   8.197
 1591TIP3   OH228751   5.358   3.118   8.964
 1591TIP3    H128752   5.373   3.051   8.893
 1591TIP3    H228753   5.379   3.201   8.918
 1592TIP3   OH228754   4.807   2.805   7.938
 1592TIP3    H128755   4.744   2.870   7.901
 1592TIP3    H228756   4.881   2.813   7.873
 1593TIP3   OH228757   5.550   2.751   8.768
 1593TIP3    H128758   5.481   2.820   8.771
 1593TIP3    H228759   5.593   2.771   8.685
 1594TIP3   OH228760   5.156   2.828   8.035
 1594TIP3    H128761   5.080   2.851   8.094
 1594TIP3    H228762   5.202   2.760   8.086
 1595TIP3   OH228763   5.147   2.643   8.945
 1595TIP3    H128764   5.147   2.726   8.997
 1595TIP3    H228765   5.084   2.672   8.876
 1596TIP3   OH228766   4.333   2.892   8.217
 1596TIP3    H128767   4.278   2.853   8.148
 1596TIP3    H228768   4.378   2.817   8.258
 1597TIP3   OH228769   4.452   3.239   8.488
 1597TIP3    H128770   4.444   3.178   8.413
 1597TIP3    H228771   4.523   3.195   8.539
 1598TIP3   OH228772   4.358   2.758   8.593
 1598TIP3    H128773   4.401   2.777   8.507
 1598TIP3    H228774   4.384   2.834   8.646
 1599TIP3   OH228775   4.993   3.325   8.662
 1599TIP3    H128776   4.961   3.388   8.728
 1599TIP3    H228777   4.965   3.240   8.703
 1600TIP3   OH228778   4.441   3.210   9.056
 1600TIP3    H128779   4.400   3.284   9.108
 1600TIP3    H228780   4.371   3.194   8.990
 1601TIP3   OH228781   5.038   2.750   7.801
 1601TIP3    H128782   5.096   2.765   7.879
 1601TIP3    H228783   5.084   2.795   7.728
 1602TIP3   OH228784   4.821   3.424   8.137
 1602TIP3    H128785   4.853   3.446   8.227
 1602TIP3    H228786   4.755   3.493   8.124
 1603TIP3   OH228787   4.268   3.417   9.135
 1603TIP3    H128788   4.262   3.406   9.038
 1603TIP3    H228789   4.176   3.397   9.161
 1604TIP3   OH228790   3.817   3.039   8.876
 1604TIP3    H128791   3.774   3.030   8.790
 1604TIP3    H228792   3.832   2.945   8.899
 1605TIP3   OH228793   5.621   3.382   9.123
 1605TIP3    H128794   5.608   3.286   9.119
 1605TIP3    H228795   5.533   3.407   9.160
 1606TIP3   OH228796   4.716   3.334   9.009
 1606TIP3    H128797   4.722   3.419   9.059
 1606TIP3    H228798   4.628   3.301   9.032
 1607TIP3   OH228799   4.771   3.711   7.979
 1607TIP3    H128800   4.745   3.713   7.886
 1607TIP3    H228801   4.762   3.805   8.007
 1608TIP3   OH228802   5.058   3.613   7.686
 1608TIP3    H128803   5.118   3.554   7.642
 1608TIP3    H228804   5.093   3.626   7.776
 1609TIP3   OH228805   5.036   3.622   7.968
 1609TIP3    H128806   4.943   3.644   7.995
 1609TIP3    H228807   5.063   3.559   8.037
 1610TIP3   OH228808   5.335   2.528   9.169
 1610TIP3    H128809   5.287   2.573   9.097
 1610TIP3    H228810   5.333   2.436   9.139
 1611TIP3   OH228811   4.051   3.171   8.967
 1611TIP3    H128812   4.073   3.131   9.053
 1611TIP3    H228813   3.965   3.131   8.946
 1612TIP3   OH228814   4.318   2.017   8.564
 1612TIP3    H128815   4.228   2.004   8.528
 1612TIP3    H228816   4.303   2.100   8.614
 1613TIP3   OH228817   4.782   1.983   8.900
 1613TIP3    H128818   4.821   1.940   8.979
 1613TIP3    H228819   4.685   1.972   8.915
 1614TIP3   OH228820   5.110   2.369   8.990
 1614TIP3    H128821   5.053   2.347   9.068
 1614TIP3    H228822   5.092   2.462   8.968
 1615TIP3   OH228823   5.192   2.844   7.581
 1615TIP3    H128824   5.177   2.824   7.486
 1615TIP3    H228825   5.269   2.899   7.583
 1616TIP3   OH228826   4.745   2.240   7.639
 1616TIP3    H128827   4.715   2.233   7.731
 1616TIP3    H228828   4.714   2.155   7.604
 1617TIP3   OH228829   4.330   2.512   8.693
 1617TIP3    H128830   4.253   2.515   8.752
 1617TIP3    H228831   4.325   2.601   8.650
 1618TIP3   OH228832   4.324   2.523   8.179
 1618TIP3    H128833   4.229   2.506   8.165
 1618TIP3    H228834   4.361   2.495   8.094
 1619TIP3   OH228835   4.874   2.575   8.049
 1619TIP3    H128836   4.837   2.660   8.017
 1619TIP3    H228837   4.945   2.560   7.983
 1620TIP3   OH228838   4.780   2.597   9.196
 1620TIP3    H128839   4.729   2.519   9.228
 1620TIP3    H228840   4.864   2.586   9.244
 1621TIP3   OH228841   4.980   2.526   8.338
 1621TIP3    H128842   4.950   2.582   8.264
 1621TIP3    H228843   4.988   2.441   8.292
 1622TIP3   OH228844   4.092   2.539   8.856
 1622TIP3    H128845   4.096   2.580   8.943
 1622TIP3    H228846   4.046   2.457   8.876
 1623TIP3   OH228847   4.425   2.301   7.554
 1623TIP3    H128848   4.387   2.233   7.613
 1623TIP3    H228849   4.359   2.307   7.484
 1624TIP3   OH228850   3.755   2.248   8.256
 1624TIP3    H128851   3.822   2.246   8.327
 1624TIP3    H228852   3.803   2.213   8.179
 1625TIP3   OH228853   4.896   2.684   8.792
 1625TIP3    H128854   4.935   2.616   8.734
 1625TIP3    H228855   4.852   2.630   8.860
 1626TIP3   OH228856   4.580   2.282   8.276
 1626TIP3    H128857   4.487   2.281   8.305
 1626TIP3    H228858   4.627   2.263   8.359
 1627TIP3   OH228859   4.062   2.432   8.162
 1627TIP3    H128860   3.972   2.455   8.128
 1627TIP3    H228861   4.085   2.347   8.120
 1628TIP3   OH228862   4.422   2.439   7.920
 1628TIP3    H128863   4.517   2.448   7.948
 1628TIP3    H228864   4.404   2.515   7.865
 1629TIP3   OH228865   5.019   2.206   8.600
 1629TIP3    H128866   4.950   2.209   8.670
 1629TIP3    H228867   4.969   2.178   8.522
 1630TIP3   OH228868   5.339   3.769   9.233
 1630TIP3    H128869   5.366   3.807   9.148
 1630TIP3    H228870   5.411   3.801   9.289
 1631TIP3   OH228871   4.109   3.014   9.192
 1631TIP3    H128872   4.179   3.041   9.253
 1631TIP3    H228873   4.030   3.022   9.249
 1632TIP3   OH228874   4.706   2.557   8.467
 1632TIP3    H128875   4.768   2.505   8.414
 1632TIP3    H228876   4.692   2.501   8.544
 1633TIP3   OH228877   4.205   2.173   8.103
 1633TIP3    H128878   4.176   2.080   8.113
 1633TIP3    H228879   4.288   2.162   8.055
 1634TIP3   OH228880   4.573   2.390   8.707
 1634TIP3    H128881   4.490   2.441   8.715
 1634TIP3    H228882   4.628   2.424   8.780
 1635TIP3   OH228883   4.630   3.006   7.877
 1635TIP3    H128884   4.544   2.971   7.850
 1635TIP3    H228885   4.606   3.030   7.970
 1636TIP3   OH228886   5.349   2.932   8.758
 1636TIP3    H128887   5.403   2.982   8.694
 1636TIP3    H228888   5.262   2.936   8.712
 1637TIP3   OH228889   5.010   2.294   7.700
 1637TIP3    H128890   4.918   2.310   7.676
 1637TIP3    H228891   5.046   2.380   7.725
 1638TIP3   OH228892   4.775   3.040   9.001
 1638TIP3    H128893   4.746   2.997   9.082
 1638TIP3    H228894   4.752   3.132   9.014
 1639TIP3   OH228895   5.087   2.486   7.868
 1639TIP3    H128896   5.178   2.469   7.897
 1639TIP3    H228897   5.094   2.564   7.811
 1640TIP3   OH228898   4.842   3.162   7.788
 1640TIP3    H128899   4.797   3.242   7.818
 1640TIP3    H228900   4.770   3.096   7.798
 1641TIP3   OH228901   3.836   2.795   8.985
 1641TIP3    H128902   3.859   2.750   9.068
 1641TIP3    H228903   3.780   2.730   8.940
 1642TIP3   OH228904   4.541   2.749   9.199
 1642TIP3    H128905   4.508   2.714   9.115
 1642TIP3    H228906   4.633   2.715   9.200
 1643TIP3   OH228907   5.010   3.282   8.997
 1643TIP3    H128908   4.917   3.298   8.973
 1643TIP3    H228909   5.006   3.311   9.090
 1644TIP3   OH228910   5.576   2.500   7.836
 1644TIP3    H128911   5.518   2.469   7.763
 1644TIP3    H228912   5.584   2.594   7.812
 1645TIP3   OH228913   5.575   3.085   9.116
 1645TIP3    H128914   5.485   3.108   9.079
 1645TIP3    H228915   5.630   3.083   9.035
 1646TIP3   OH228916   5.391   3.383   7.870
 1646TIP3    H128917   5.374   3.297   7.910
 1646TIP3    H228918   5.441   3.363   7.790
 1647TIP3   OH228919   5.127   2.864   8.586
 1647TIP3    H128920   5.032   2.844   8.575
 1647TIP3    H228921   5.169   2.788   8.541
 1648TIP3   OH228922   4.378   3.296   8.197
 1648TIP3    H128923   4.427   3.377   8.174
 1648TIP3    H228924   4.291   3.316   8.161
 1649TIP3   OH228925   4.525   3.064   8.149
 1649TIP3    H128926   4.491   3.156   8.155
 1649TIP3    H228927   4.449   3.014   8.187
 1650TIP3   OH228928   4.563   3.481   8.789
 1650TIP3    H128929   4.610   3.560   8.758
 1650TIP3    H228930   4.625   3.447   8.855
 1651TIP3   OH228931   4.385   3.557   8.106
 1651TIP3    H128932   4.290   3.572   8.112
 1651TIP3    H228933   4.421   3.643   8.135
 1652TIP3   OH228934   4.917   3.081   8.750
 1652TIP3    H128935   4.885   3.062   8.841
 1652TIP3    H228936   4.981   3.010   8.733
 1653TIP3   OH228937   5.143   3.200   7.673
 1653TIP3    H128938   5.178   3.139   7.742
 1653TIP3    H228939   5.055   3.162   7.665
 1654TIP3   OH228940   5.200   3.539   8.999
 1654TIP3    H128941   5.130   3.491   8.952
 1654TIP3    H228942   5.217   3.610   8.932
 1655TIP3   OH228943   5.601   3.637   7.696
 1655TIP3    H128944   5.674   3.693   7.663
 1655TIP3    H228945   5.529   3.699   7.715
 1656TIP3   OH228946   4.006   2.268   8.940
 1656TIP3    H128947   3.914   2.299   8.937
 1656TIP3    H228948   3.996   2.181   8.983
 1657TIP3   OH228949   5.228   3.055   7.887
 1657TIP3    H128950   5.203   2.974   7.937
 1657TIP3    H228951   5.324   3.054   7.903
 1658TIP3   OH228952   3.966   3.443   8.779
 1658TIP3    H128953   3.997   3.352   8.780
 1658TIP3    H228954   3.993   3.471   8.867
 1659TIP3   OH228955   4.878   2.243   8.836
 1659TIP3    H128956   4.950   2.249   8.900
 1659TIP3    H228957   4.840   2.155   8.857
 1660TIP3   OH228958   4.950   2.202   7.945
 1660TIP3    H128959   4.977   2.246   7.862
 1660TIP3    H228960   5.011   2.243   8.009
 1661TIP3   OH228961   4.736   3.434   7.829
 1661TIP3    H128962   4.639   3.458   7.833
 1661TIP3    H228963   4.754   3.468   7.740
 1662TIP3   OH228964   4.670   2.380   8.023
 1662TIP3    H128965   4.754   2.432   8.030
 1662TIP3    H228966   4.648   2.361   8.117
 1663TIP3   OH228967   4.731   2.480   8.944
 1663TIP3    H128968   4.739   2.532   9.027
 1663TIP3    H228969   4.796   2.408   8.953
 1664TIP3   OH228970   4.763   2.082   8.117
 1664TIP3    H128971   4.728   2.147   8.180
 1664TIP3    H228972   4.831   2.136   8.070
 1665TIP3   OH228973   4.470   3.523   7.829
 1665TIP3    H128974   4.464   3.602   7.772
 1665TIP3    H228975   4.431   3.552   7.914
 1666TIP3   OH228976   4.327   2.193   7.784
 1666TIP3    H128977   4.323   2.279   7.829
 1666TIP3    H228978   4.417   2.165   7.811
 1667TIP3   OH228979   5.348   2.264   9.029
 1667TIP3    H128980   5.255   2.296   9.016
 1667TIP3    H228981   5.378   2.262   8.937
 1668TIP3   OH228982   5.211   2.643   8.431
 1668TIP3    H128983   5.129   2.598   8.403
 1668TIP3    H228984   5.259   2.574   8.481
 1669TIP3   OH228985   5.316   3.570   8.596
 1669TIP3    H128986   5.308   3.637   8.526
 1669TIP3    H228987   5.413   3.574   8.614
 1670TIP3   OH228988   4.065   1.981   8.478
 1670TIP3    H128989   4.047   1.982   8.382
 1670TIP3    H228990   4.025   1.895   8.503
 1671TIP3   OH228991   3.880   3.638   9.220
 1671TIP3    H128992   3.941   3.619   9.293
 1671TIP3    H228993   3.841   3.551   9.202
 1672TIP3   OH228994   4.350   3.530   9.381
 1672TIP3    H128995   4.425   3.480   9.414
 1672TIP3    H228996   4.347   3.502   9.287
 1673TIP3   OH228997   4.999   3.369   9.257
 1673TIP3    H128998   4.968   3.280   9.284
 1673TIP3    H228999   5.076   3.381   9.315
 1674TIP3   OH229000   3.870   3.014   9.322
 1674TIP3    H129001   3.890   2.924   9.288
 1674TIP3    H229002   3.799   3.041   9.261
 1675TIP3   OH229003   4.543   3.014   9.258
 1675TIP3    H129004   4.510   3.046   9.172
 1675TIP3    H229005   4.551   2.916   9.248
 1676TIP3   OH229006   5.112   2.999   8.997
 1676TIP3    H129007   5.191   3.057   8.993
 1676TIP3    H229008   5.043   3.067   9.000
 1677TIP3   OH229009   3.964   2.736   9.259
 1677TIP3    H129010   4.007   2.651   9.251
 1677TIP3    H229011   3.941   2.739   9.354
 1678TIP3   OH229012   4.354   2.633   8.994
 1678TIP3    H129013   4.297   2.705   9.019
 1678TIP3    H229014   4.394   2.667   8.912
 1679TIP3   OH229015   4.862   2.890   9.328
 1679TIP3    H129016   4.958   2.887   9.313
 1679TIP3    H229017   4.845   2.813   9.384
 1680TIP3   OH229018   4.395   2.369   9.098
 1680TIP3    H129019   4.407   2.298   9.032
 1680TIP3    H229020   4.390   2.450   9.044
 1681TIP3   OH229021   4.436   2.209   8.854
 1681TIP3    H129022   4.486   2.255   8.783
 1681TIP3    H229023   4.346   2.203   8.814
 1682TIP3   OH229024   4.586   2.760   8.877
 1682TIP3    H129025   4.664   2.738   8.824
 1682TIP3    H229026   4.562   2.846   8.845
 1683TIP3   OH229027   5.028   2.532   9.374
 1683TIP3    H129028   5.052   2.438   9.365
 1683TIP3    H229029   5.115   2.576   9.378
 1684TIP3   OH229030   5.165   2.812   9.192
 1684TIP3    H129031   5.138   2.884   9.130
 1684TIP3    H229032   5.260   2.809   9.173
 1685TIP3   OH229033   4.242   2.495   9.291
 1685TIP3    H129034   4.165   2.438   9.274
 1685TIP3    H229035   4.306   2.458   9.228
 1686TIP3   OH229036   4.514   1.952   8.892
 1686TIP3    H129037   4.494   2.048   8.883
 1686TIP3    H229038   4.439   1.915   8.842
 1687TIP3   OH229039   4.641   2.386   9.258
 1687TIP3    H129040   4.608   2.361   9.347
 1687TIP3    H229041   4.564   2.364   9.202
 1688TIP3   OH229042   4.914   2.299   9.167
 1688TIP3    H129043   4.817   2.305   9.177
 1688TIP3    H229044   4.939   2.235   9.236
 1689TIP3   OH229045   5.070   2.161   9.355
 1689TIP3    H129046   5.067   2.063   9.358
 1689TIP3    H229047   5.048   2.189   9.446
 1690TIP3   OH229048   4.049   2.290   9.267
 1690TIP3    H129049   4.073   2.216   9.209
 1690TIP3    H229050   4.039   2.245   9.354
 1691TIP3   OH229051   4.536   1.892   9.163
 1691TIP3    H129052   4.603   1.821   9.162
 1691TIP3    H229053   4.524   1.905   9.067
 1692TIP3   OH229054   4.572   2.052   9.376
 1692TIP3    H129055   4.555   2.001   9.293
 1692TIP3    H229056   4.512   2.129   9.365
 1693TIP3   OH229057   5.589   3.633   8.616
 1693TIP3    H129058   5.592   3.649   8.712
 1693TIP3    H229059   5.659   3.692   8.586
 1694TIP3   OH229060   5.545   3.593   8.911
 1694TIP3    H129061   5.499   3.516   8.872
 1694TIP3    H229062   5.593   3.548   8.983
 1695TIP3   OH229063   5.390   3.164   9.379
 1695TIP3    H129064   5.299   3.162   9.414
 1695TIP3    H229065   5.427   3.245   9.419
 1696TIP3   OH229066   5.523   2.996   7.919
 1696TIP3    H129067   5.609   3.037   7.939
 1696TIP3    H229068   5.520   2.926   7.989
 1697TIP3   OH229069   5.557   2.805   8.106
 1697TIP3    H129070   5.481   2.755   8.144
 1697TIP3    H229071   5.615   2.819   8.184
 1698TIP3   OH229072   5.536   3.074   8.612
 1698TIP3    H129073   5.613   3.037   8.567
 1698TIP3    H229074   5.546   3.169   8.591
 1699TIP3   OH229075   5.389   3.366   8.835
 1699TIP3    H129076   5.320   3.400   8.893
 1699TIP3    H229077   5.335   3.326   8.764
 1700TIP3   OH229078   5.584   2.785   7.750
 1700TIP3    H129079   5.527   2.825   7.685
 1700TIP3    H229080   5.585   2.857   7.816
 1701TIP3   OH229081   5.409   2.509   7.603
 1701TIP3    H129082   5.428   2.573   7.535
 1701TIP3    H229083   5.412   2.425   7.553
 1702TIP3   OH229084   5.341   2.653   8.169
 1702TIP3    H129085   5.325   2.558   8.162
 1702TIP3    H229086   5.308   2.673   8.258
 1703TIP3   OH229087   5.426   2.849   9.136
 1703TIP3    H129088   5.487   2.773   9.149
 1703TIP3    H229089   5.487   2.926   9.137
 1704TIP3   OH229090   5.576   2.637   9.201
 1704TIP3    H129091   5.488   2.597   9.186
 1704TIP3    H229092   5.633   2.558   9.194
 1705TIP3   OH229093   5.308   2.412   8.014
 1705TIP3    H129094   5.336   2.318   8.024
 1705TIP3    H229095   5.386   2.451   7.973
 1706TIP3   OH229096   5.370   2.466   8.558
 1706TIP3    H129097   5.466   2.488   8.556
 1706TIP3    H229098   5.352   2.479   8.652
 1707TIP3   OH229099   5.378   2.538   8.835
 1707TIP3    H129100   5.289   2.566   8.866
 1707TIP3    H229101   5.421   2.624   8.813
 1708TIP3   OH229102   3.803   2.392   9.191
 1708TIP3    H129103   3.897   2.369   9.207
 1708TIP3    H229104   3.757   2.309   9.215
 1709TIP3   OH229105   5.610   1.944   9.370
 1709TIP3    H129106   5.639   1.879   9.303
 1709TIP3    H229107   5.612   2.026   9.315
 1710TIP3   OH229108   5.373   2.141   8.019
 1710TIP3    H129109   5.396   2.094   8.101
 1710TIP3    H229110   5.313   2.077   7.973
 1711TIP3   OH229111   3.922   2.218   8.473
 1711TIP3    H129112   3.969   2.136   8.499
 1711TIP3    H229113   3.978   2.288   8.510
 1712TIP3   OH229114   3.747   2.521   8.575
 1712TIP3    H129115   3.806   2.495   8.501
 1712TIP3    H229116   3.798   2.598   8.601
 1713TIP3   OH229117   5.556   2.154   9.205
 1713TIP3    H129118   5.463   2.182   9.200
 1713TIP3    H229119   5.559   2.099   9.125
 1714TIP3   OH229120   5.567   2.143   7.681
 1714TIP3    H129121   5.597   2.077   7.617
 1714TIP3    H229122   5.628   2.216   7.671
 1715TIP3   OH229123   3.783   2.141   7.971
 1715TIP3    H129124   3.690   2.169   7.975
 1715TIP3    H229125   3.828   2.204   7.915
 1716TIP3   OH229126   5.259   3.640   8.178
 1716TIP3    H129127   5.331   3.612   8.118
 1716TIP3    H229128   5.310   3.691   8.245
 1717TIP3   OH229129   3.781   2.012   8.813
 1717TIP3    H129130   3.715   1.992   8.882
 1717TIP3    H229131   3.736   2.079   8.759
 1718TIP3   OH229132   4.008   3.331   9.230
 1718TIP3    H129133   3.924   3.349   9.183
 1718TIP3    H229134   3.979   3.323   9.321
 1719TIP3   OH229135   4.297   3.433   8.860
 1719TIP3    H129136   4.264   3.519   8.830
 1719TIP3    H229137   4.388   3.439   8.825
 1720TIP3   OH229138   4.728   3.574   9.147
 1720TIP3    H129139   4.740   3.539   9.238
 1720TIP3    H229140   4.818   3.605   9.124
 1721TIP3   OH229141   4.956   3.702   9.079
 1721TIP3    H129142   5.029   3.643   9.056
 1721TIP3    H229143   4.993   3.746   9.159
 1722TIP3   OH229144   5.459   1.963   8.991
 1722TIP3    H129145   5.376   1.993   8.949
 1722TIP3    H229146   5.475   1.880   8.939
 1723TIP3   OH229147   4.038   3.760   8.856
 1723TIP3    H129148   3.963   3.807   8.817
 1723TIP3    H229149   4.006   3.736   8.944
 1724TIP3   OH229150   4.285   3.712   8.767
 1724TIP3    H129151   4.194   3.726   8.802
 1724TIP3    H229152   4.283   3.772   8.690
 1725TIP3   OH229153   4.756   3.705   8.681
 1725TIP3    H129154   4.709   3.759   8.616
 1725TIP3    H229155   4.769   3.768   8.755
 1726TIP3   OH229156   4.983   3.584   8.786
 1726TIP3    H129157   4.899   3.613   8.747
 1726TIP3    H229158   5.033   3.667   8.777
 1727TIP3   OH229159   5.242   3.742   8.806
 1727TIP3    H129160   5.238   3.838   8.783
 1727TIP3    H229161   5.263   3.705   8.718
 1728TIP3   OH229162   3.987   3.627   8.556
 1728TIP3    H129163   3.974   3.575   8.638
 1728TIP3    H229164   4.062   3.582   8.512
 1729TIP3   OH229165   4.191   3.491   8.417
 1729TIP3    H129166   4.177   3.398   8.437
 1729TIP3    H229167   4.277   3.509   8.459
 1730TIP3   OH229168   4.455   3.542   8.506
 1730TIP3    H129169   4.467   3.449   8.478
 1730TIP3    H229170   4.454   3.531   8.602
 1731TIP3   OH229171   4.797   2.106   8.418
 1731TIP3    H129172   4.730   2.042   8.447
 1731TIP3    H229173   4.852   2.052   8.360
 1732TIP3   OH229174   5.311   1.909   8.423
 1732TIP3    H129175   5.372   1.969   8.374
 1732TIP3    H229176   5.222   1.946   8.400
 1733TIP3   OH229177   5.478   2.035   8.253
 1733TIP3    H129178   5.545   1.977   8.210
 1733TIP3    H229179   5.529   2.119   8.263
 1734TIP3   OH229180   4.035   1.969   8.204
 1734TIP3    H129181   3.955   1.949   8.152
 1734TIP3    H229182   4.080   1.882   8.198
 1735TIP3   OH229183   3.904   1.948   7.765
 1735TIP3    H129184   3.962   2.012   7.721
 1735TIP3    H229185   3.861   1.998   7.837
 1736TIP3   OH229186   4.481   1.958   8.181
 1736TIP3    H129187   4.570   1.996   8.173
 1736TIP3    H229188   4.478   1.939   8.275
 1737TIP3   OH229189   5.053   1.962   8.344
 1737TIP3    H129190   5.046   1.974   8.248
 1737TIP3    H229191   5.014   1.872   8.357
 1738TIP3   OH229192   5.180   1.967   7.915
 1738TIP3    H129193   5.106   2.024   7.892
 1738TIP3    H229194   5.137   1.880   7.932
 1739TIP3   OH229195   4.096   2.134   7.633
 1739TIP3    H129196   4.146   2.081   7.569
 1739TIP3    H229197   4.167   2.170   7.689
 1740TIP3   OH229198   4.590   2.164   7.868
 1740TIP3    H129199   4.623   2.106   7.938
 1740TIP3    H229200   4.604   2.250   7.915
 1741TIP3   OH229201   5.454   3.621   7.983
 1741TIP3    H129202   5.440   3.543   7.925
 1741TIP3    H229203   5.453   3.694   7.917
 1742TIP3   OH229204   4.022   2.023   9.148
 1742TIP3    H129205   3.983   1.943   9.187
 1742TIP3    H229206   4.113   2.017   9.187
 1743TIP3   OH229207   4.222   1.961   9.314
 1743TIP3    H129208   4.311   1.927   9.292
 1743TIP3    H229209   4.185   1.880   9.353
 1744TIP3   OH229210   5.063   1.888   9.328
 1744TIP3    H129211   5.073   1.841   9.414
 1744TIP3    H229212   5.154   1.887   9.292
 1745TIP3   OH229213   5.384   3.494   9.190
 1745TIP3    H129214   5.304   3.481   9.135
 1745TIP3    H229215   5.372   3.589   9.212
 1746TIP3   OH229216   6.830   2.883   8.187
 1746TIP3    H129217   6.827   2.981   8.186
 1746TIP3    H229218   6.756   2.859   8.129
 1747TIP3   OH229219   6.715   2.807   8.539
 1747TIP3    H129220   6.714   2.742   8.611
 1747TIP3    H229221   6.677   2.757   8.465
 1748TIP3   OH229222   5.951   2.758   8.700
 1748TIP3    H129223   5.955   2.687   8.770
 1748TIP3    H229224   6.035   2.798   8.724
 1749TIP3   OH229225   7.081   3.103   8.368
 1749TIP3    H129226   7.041   3.030   8.416
 1749TIP3    H229227   7.084   3.173   8.436
 1750TIP3   OH229228   6.040   3.210   8.555
 1750TIP3    H129229   6.016   3.137   8.496
 1750TIP3    H229230   6.138   3.207   8.546
 1751TIP3   OH229231   5.705   2.574   8.094
 1751TIP3    H129232   5.664   2.662   8.087
 1751TIP3    H229233   5.648   2.521   8.036
 1752TIP3   OH229234   5.782   2.800   8.314
 1752TIP3    H129235   5.805   2.712   8.350
 1752TIP3    H229236   5.842   2.808   8.239
 1753TIP3   OH229237   6.796   3.619   8.392
 1753TIP3    H129238   6.860   3.550   8.362
 1753TIP3    H229239   6.774   3.583   8.479
 1754TIP3   OH229240   6.552   3.047   8.587
 1754TIP3    H129241   6.586   2.985   8.521
 1754TIP3    H229242   6.634   3.063   8.638
 1755TIP3   OH229243   7.413   2.213   8.659
 1755TIP3    H129244   7.428   2.274   8.734
 1755TIP3    H229245   7.470   2.254   8.593
 1756TIP3   OH229246   6.868   2.494   8.618
 1756TIP3    H129247   6.886   2.398   8.619
 1756TIP3    H229248   6.858   2.508   8.522
 1757TIP3   OH229249   6.178   2.303   8.339
 1757TIP3    H129250   6.190   2.387   8.290
 1757TIP3    H229251   6.140   2.246   8.268
 1758TIP3   OH229252   6.959   2.304   8.168
 1758TIP3    H129253   7.016   2.280   8.245
 1758TIP3    H229254   7.010   2.376   8.129
 1759TIP3   OH229255   5.844   2.549   8.412
 1759TIP3    H129256   5.907   2.490   8.458
 1759TIP3    H229257   5.852   2.513   8.322
 1760TIP3   OH229258   6.354   2.700   8.349
 1760TIP3    H129259   6.424   2.643   8.383
 1760TIP3    H229260   6.307   2.636   8.292
 1761TIP3   OH229261   7.455   2.354   8.886
 1761TIP3    H129262   7.395   2.431   8.871
 1761TIP3    H229263   7.457   2.350   8.982
 1762TIP3   OH229264   6.071   2.193   8.742
 1762TIP3    H129265   6.042   2.250   8.668
 1762TIP3    H229266   6.004   2.215   8.811
 1763TIP3   OH229267   6.798   3.141   8.097
 1763TIP3    H129268   6.770   3.115   8.008
 1763TIP3    H229269   6.768   3.235   8.102
 1764TIP3   OH229270   6.319   2.959   8.761
 1764TIP3    H129271   6.254   3.026   8.792
 1764TIP3    H229272   6.395   3.015   8.739
 1765TIP3   OH229273   7.136   2.247   8.374
 1765TIP3    H129274   7.112   2.170   8.428
 1765TIP3    H229275   7.201   2.289   8.432
 1766TIP3   OH229276   6.028   2.379   8.546
 1766TIP3    H129277   6.092   2.446   8.577
 1766TIP3    H229278   6.079   2.339   8.471
 1767TIP3   OH229279   6.164   3.155   8.843
 1767TIP3    H129280   6.164   3.250   8.817
 1767TIP3    H229281   6.081   3.152   8.898
 1768TIP3   OH229282   5.770   3.116   7.929
 1768TIP3    H129283   5.752   3.151   7.840
 1768TIP3    H229284   5.782   3.200   7.979
 1769TIP3   OH229285   7.134   3.285   8.598
 1769TIP3    H129286   7.038   3.298   8.618
 1769TIP3    H229287   7.162   3.378   8.585
 1770TIP3   OH229288   7.166   2.115   8.742
 1770TIP3    H129289   7.094   2.179   8.732
 1770TIP3    H229290   7.238   2.156   8.690
 1771TIP3   OH229291   6.463   1.927   8.489
 1771TIP3    H129292   6.448   1.830   8.481
 1771TIP3    H229293   6.375   1.957   8.520
 1772TIP3   OH229294   6.962   3.464   8.263
 1772TIP3    H129295   7.004   3.393   8.212
 1772TIP3    H229296   7.006   3.543   8.224
 1773TIP3   OH229297   7.088   3.257   8.110
 1773TIP3    H129298   7.051   3.188   8.052
 1773TIP3    H229299   7.086   3.209   8.196
 1774TIP3   OH229300   7.260   3.105   8.960
 1774TIP3    H129301   7.258   3.049   8.882
 1774TIP3    H229302   7.257   3.197   8.926
 1775TIP3   OH229303   6.694   2.803   7.939
 1775TIP3    H129304   6.624   2.863   7.905
 1775TIP3    H229305   6.764   2.816   7.873
 1776TIP3   OH229306   6.702   2.659   7.645
 1776TIP3    H129307   6.777   2.664   7.707
 1776TIP3    H229308   6.728   2.590   7.584
 1777TIP3   OH229309   7.434   2.749   8.768
 1777TIP3    H129310   7.367   2.820   8.771
 1777TIP3    H229311   7.482   2.774   8.687
 1778TIP3   OH229312   7.038   2.819   8.033
 1778TIP3    H129313   6.966   2.850   8.093
 1778TIP3    H229314   7.089   2.761   8.091
 1779TIP3   OH229315   7.033   2.643   8.946
 1779TIP3    H129316   7.033   2.726   8.996
 1779TIP3    H229317   6.970   2.671   8.876
 1780TIP3   OH229318   6.196   2.892   8.226
 1780TIP3    H129319   6.169   2.856   8.138
 1780TIP3    H229320   6.263   2.824   8.255
 1781TIP3   OH229321   6.328   3.226   8.494
 1781TIP3    H129322   6.335   3.181   8.408
 1781TIP3    H229323   6.411   3.197   8.536
 1782TIP3   OH229324   6.228   2.773   8.591
 1782TIP3    H129325   6.286   2.773   8.512
 1782TIP3    H229326   6.278   2.833   8.652
 1783TIP3   OH229327   6.874   3.325   8.662
 1783TIP3    H129328   6.848   3.388   8.730
 1783TIP3    H229329   6.853   3.240   8.706
 1784TIP3   OH229330   6.329   3.211   9.060
 1784TIP3    H129331   6.287   3.285   9.110
 1784TIP3    H229332   6.264   3.193   8.990
 1785TIP3   OH229333   6.931   2.740   7.798
 1785TIP3    H129334   6.980   2.769   7.879
 1785TIP3    H229335   6.966   2.798   7.728
 1786TIP3   OH229336   6.021   2.836   8.965
 1786TIP3    H129337   6.030   2.892   9.045
 1786TIP3    H229338   5.925   2.831   8.960
 1787TIP3   OH229339   6.699   3.418   8.147
 1787TIP3    H129340   6.741   3.450   8.227
 1787TIP3    H229341   6.643   3.492   8.122
 1788TIP3   OH229342   6.154   3.413   9.134
 1788TIP3    H129343   6.146   3.404   9.037
 1788TIP3    H229344   6.061   3.399   9.161
 1789TIP3   OH229345   7.296   1.916   7.789
 1789TIP3    H129346   7.201   1.931   7.812
 1789TIP3    H229347   7.320   1.999   7.745
 1790TIP3   OH229348   6.097   2.795   7.987
 1790TIP3    H129349   6.069   2.873   7.933
 1790TIP3    H229350   6.032   2.730   7.961
 1791TIP3   OH229351   5.714   3.036   8.871
 1791TIP3    H129352   5.657   3.031   8.792
 1791TIP3    H229353   5.711   2.942   8.900
 1792TIP3   OH229354   5.685   3.309   8.555
 1792TIP3    H129355   5.781   3.305   8.548
 1792TIP3    H229356   5.672   3.393   8.601
 1793TIP3   OH229357   7.510   3.381   9.124
 1793TIP3    H129358   7.491   3.286   9.118
 1793TIP3    H229359   7.421   3.408   9.159
 1794TIP3   OH229360   6.595   3.341   9.004
 1794TIP3    H129361   6.607   3.420   9.062
 1794TIP3    H229362   6.513   3.299   9.036
 1795TIP3   OH229363   6.644   3.711   7.989
 1795TIP3    H129364   6.637   3.702   7.891
 1795TIP3    H229365   6.650   3.807   8.004
 1796TIP3   OH229366   6.009   3.600   8.171
 1796TIP3    H129367   6.025   3.557   8.258
 1796TIP3    H229368   5.926   3.556   8.145
 1797TIP3   OH229369   6.963   3.636   7.688
 1797TIP3    H129370   6.985   3.556   7.637
 1797TIP3    H229371   6.953   3.604   7.779
 1798TIP3   OH229372   6.921   3.628   7.971
 1798TIP3    H129373   6.823   3.631   7.979
 1798TIP3    H229374   6.943   3.549   8.022
 1799TIP3   OH229375   7.224   2.526   9.168
 1799TIP3    H129376   7.174   2.573   9.099
 1799TIP3    H229377   7.215   2.435   9.137
 1800TIP3   OH229378   5.936   3.165   8.965
 1800TIP3    H129379   5.956   3.135   9.057
 1800TIP3    H229380   5.846   3.131   8.951
 1801TIP3   OH229381   6.204   2.017   8.564
 1801TIP3    H129382   6.113   2.004   8.527
 1801TIP3    H229383   6.189   2.099   8.614
 1802TIP3   OH229384   6.668   1.983   8.900
 1802TIP3    H129385   6.707   1.940   8.979
 1802TIP3    H229386   6.571   1.972   8.915
 1803TIP3   OH229387   6.996   2.368   8.991
 1803TIP3    H129388   6.939   2.346   9.068
 1803TIP3    H229389   6.978   2.461   8.969
 1804TIP3   OH229390   6.214   2.516   8.692
 1804TIP3    H129391   6.139   2.513   8.755
 1804TIP3    H229392   6.208   2.605   8.653
 1805TIP3   OH229393   6.210   2.524   8.175
 1805TIP3    H129394   6.115   2.501   8.162
 1805TIP3    H229395   6.246   2.496   8.088
 1806TIP3   OH229396   6.763   2.574   8.051
 1806TIP3    H129397   6.721   2.658   8.019
 1806TIP3    H229398   6.829   2.559   7.983
 1807TIP3   OH229399   6.666   2.597   9.196
 1807TIP3    H129400   6.614   2.519   9.227
 1807TIP3    H229401   6.750   2.586   9.244
 1808TIP3   OH229402   6.868   2.526   8.337
 1808TIP3    H129403   6.835   2.583   8.266
 1808TIP3    H229404   6.872   2.440   8.292
 1809TIP3   OH229405   5.974   2.539   8.859
 1809TIP3    H129406   5.986   2.575   8.948
 1809TIP3    H229407   5.932   2.453   8.879
 1810TIP3   OH229408   5.641   2.249   8.259
 1810TIP3    H129409   5.711   2.245   8.328
 1810TIP3    H229410   5.685   2.214   8.179
 1811TIP3   OH229411   5.772   2.328   7.800
 1811TIP3    H129412   5.815   2.380   7.731
 1811TIP3    H229413   5.698   2.387   7.823
 1812TIP3   OH229414   6.784   2.683   8.792
 1812TIP3    H129415   6.822   2.614   8.734
 1812TIP3    H229416   6.737   2.631   8.859
 1813TIP3   OH229417   6.463   2.283   8.278
 1813TIP3    H129418   6.369   2.282   8.308
 1813TIP3    H229419   6.512   2.263   8.359
 1814TIP3   OH229420   5.945   2.436   8.164
 1814TIP3    H129421   5.857   2.451   8.123
 1814TIP3    H229422   5.975   2.353   8.122
 1815TIP3   OH229423   6.307   2.447   7.932
 1815TIP3    H129424   6.404   2.447   7.939
 1815TIP3    H229425   6.288   2.505   7.856
 1816TIP3   OH229426   6.906   2.205   8.599
 1816TIP3    H129427   6.837   2.209   8.669
 1816TIP3    H229428   6.855   2.178   8.522
 1817TIP3   OH229429   6.171   2.572   7.677
 1817TIP3    H129430   6.126   2.514   7.615
 1817TIP3    H229431   6.262   2.571   7.643
 1818TIP3   OH229432   7.224   3.776   9.236
 1818TIP3    H129433   7.252   3.804   9.147
 1818TIP3    H229434   7.301   3.802   9.289
 1819TIP3   OH229435   5.992   3.017   9.188
 1819TIP3    H129436   6.065   3.040   9.248
 1819TIP3    H229437   5.916   3.022   9.251
 1820TIP3   OH229438   6.592   2.557   8.466
 1820TIP3    H129439   6.652   2.504   8.413
 1820TIP3    H229440   6.577   2.502   8.544
 1821TIP3   OH229441   6.095   2.170   8.111
 1821TIP3    H129442   6.064   2.078   8.107
 1821TIP3    H229443   6.171   2.166   8.052
 1822TIP3   OH229444   6.456   2.390   8.707
 1822TIP3    H129445   6.374   2.443   8.716
 1822TIP3    H229446   6.512   2.425   8.779
 1823TIP3   OH229447   6.518   3.005   7.878
 1823TIP3    H129448   6.433   2.968   7.843
 1823TIP3    H229449   6.491   3.030   7.968
 1824TIP3   OH229450   7.236   2.929   8.755
 1824TIP3    H129451   7.289   2.983   8.694
 1824TIP3    H229452   7.148   2.938   8.713
 1825TIP3   OH229453   6.904   2.297   7.698
 1825TIP3    H129454   6.810   2.306   7.674
 1825TIP3    H229455   6.925   2.390   7.719
 1826TIP3   OH229456   6.657   3.037   8.999
 1826TIP3    H129457   6.632   2.998   9.083
 1826TIP3    H229458   6.646   3.131   9.013
 1827TIP3   OH229459   6.978   2.483   7.865
 1827TIP3    H129460   7.065   2.493   7.907
 1827TIP3    H229461   6.972   2.566   7.812
 1828TIP3   OH229462   6.032   2.948   8.453
 1828TIP3    H129463   6.096   2.946   8.377
 1828TIP3    H229464   6.042   2.855   8.482
 1829TIP3   OH229465   6.733   3.154   7.794
 1829TIP3    H129466   6.692   3.243   7.808
 1829TIP3    H229467   6.653   3.097   7.797
 1830TIP3   OH229468   5.727   2.791   8.982
 1830TIP3    H129469   5.740   2.748   9.069
 1830TIP3    H229470   5.662   2.731   8.940
 1831TIP3   OH229471   6.427   2.749   9.199
 1831TIP3    H129472   6.394   2.715   9.115
 1831TIP3    H229473   6.518   2.715   9.200
 1832TIP3   OH229474   6.852   3.259   8.975
 1832TIP3    H129475   6.773   3.314   8.972
 1832TIP3    H229476   6.893   3.290   9.059
 1833TIP3   OH229477   7.450   2.500   7.841
 1833TIP3    H129478   7.414   2.466   7.757
 1833TIP3    H229479   7.473   2.590   7.809
 1834TIP3   OH229480   7.463   3.085   9.118
 1834TIP3    H129481   7.373   3.108   9.082
 1834TIP3    H229482   7.514   3.084   9.034
 1835TIP3   OH229483   7.300   3.380   7.870
 1835TIP3    H129484   7.253   3.305   7.914
 1835TIP3    H229485   7.311   3.352   7.781
 1836TIP3   OH229486   7.013   2.864   8.585
 1836TIP3    H129487   6.918   2.844   8.576
 1836TIP3    H229488   7.055   2.788   8.541
 1837TIP3   OH229489   6.263   3.298   8.199
 1837TIP3    H129490   6.313   3.378   8.175
 1837TIP3    H229491   6.176   3.320   8.162
 1838TIP3   OH229492   6.406   3.063   8.149
 1838TIP3    H129493   6.373   3.155   8.156
 1838TIP3    H229494   6.333   3.014   8.191
 1839TIP3   OH229495   6.450   3.483   8.790
 1839TIP3    H129496   6.497   3.562   8.760
 1839TIP3    H229497   6.512   3.447   8.856
 1840TIP3   OH229498   6.272   3.560   8.108
 1840TIP3    H129499   6.176   3.577   8.116
 1840TIP3    H229500   6.310   3.646   8.135
 1841TIP3   OH229501   6.798   3.079   8.747
 1841TIP3    H129502   6.772   3.066   8.841
 1841TIP3    H229503   6.868   3.013   8.735
 1842TIP3   OH229504   7.042   3.194   7.670
 1842TIP3    H129505   7.059   3.134   7.745
 1842TIP3    H229506   6.945   3.175   7.661
 1843TIP3   OH229507   7.074   3.568   8.998
 1843TIP3    H129508   7.024   3.496   8.957
 1843TIP3    H229509   7.103   3.618   8.919
 1844TIP3   OH229510   5.891   2.265   8.938
 1844TIP3    H129511   5.800   2.300   8.937
 1844TIP3    H229512   5.880   2.181   8.985
 1845TIP3   OH229513   7.115   3.052   7.886
 1845TIP3    H129514   7.088   2.972   7.936
 1845TIP3    H229515   7.210   3.055   7.906
 1846TIP3   OH229516   5.851   3.442   8.780
 1846TIP3    H129517   5.885   3.352   8.783
 1846TIP3    H229518   5.877   3.475   8.868
 1847TIP3   OH229519   5.982   2.972   7.813
 1847TIP3    H129520   5.907   3.014   7.858
 1847TIP3    H229521   6.027   3.050   7.775
 1848TIP3   OH229522   6.764   2.243   8.836
 1848TIP3    H129523   6.836   2.249   8.899
 1848TIP3    H229524   6.726   2.155   8.857
 1849TIP3   OH229525   6.862   2.191   7.942
 1849TIP3    H129526   6.848   2.250   7.866
 1849TIP3    H229527   6.885   2.251   8.016
 1850TIP3   OH229528   6.611   3.417   7.826
 1850TIP3    H129529   6.523   3.461   7.828
 1850TIP3    H229530   6.657   3.468   7.758
 1851TIP3   OH229531   6.565   2.371   8.023
 1851TIP3    H129532   6.637   2.436   8.030
 1851TIP3    H229533   6.533   2.360   8.115
 1852TIP3   OH229534   6.616   2.479   8.943
 1852TIP3    H129535   6.623   2.533   9.025
 1852TIP3    H229536   6.682   2.409   8.953
 1853TIP3   OH229537   6.648   2.081   8.116
 1853TIP3    H129538   6.612   2.145   8.180
 1853TIP3    H229539   6.714   2.136   8.070
 1854TIP3   OH229540   6.346   3.525   7.832
 1854TIP3    H129541   6.357   3.600   7.772
 1854TIP3    H229542   6.318   3.559   7.919
 1855TIP3   OH229543   6.208   2.185   7.799
 1855TIP3    H129544   6.207   2.280   7.815
 1855TIP3    H229545   6.303   2.166   7.804
 1856TIP3   OH229546   7.235   2.264   9.028
 1856TIP3    H129547   7.141   2.296   9.016
 1856TIP3    H229548   7.262   2.262   8.934
 1857TIP3   OH229549   7.096   2.643   8.431
 1857TIP3    H129550   7.014   2.598   8.402
 1857TIP3    H229551   7.145   2.574   8.481
 1858TIP3   OH229552   6.044   3.228   7.701
 1858TIP3    H129553   6.103   3.303   7.719
 1858TIP3    H229554   6.083   3.197   7.618
 1859TIP3   OH229555   7.200   3.569   8.596
 1859TIP3    H129556   7.194   3.637   8.526
 1859TIP3    H229557   7.297   3.574   8.614
 1860TIP3   OH229558   5.951   1.981   8.479
 1860TIP3    H129559   5.933   1.982   8.382
 1860TIP3    H229560   5.910   1.895   8.503
 1861TIP3   OH229561   5.844   3.374   8.093
 1861TIP3    H129562   5.759   3.420   8.087
 1861TIP3    H229563   5.892   3.418   8.022
 1862TIP3   OH229564   5.765   3.637   9.219
 1862TIP3    H129565   5.827   3.619   9.293
 1862TIP3    H229566   5.727   3.550   9.202
 1863TIP3   OH229567   6.236   3.530   9.381
 1863TIP3    H129568   6.313   3.480   9.413
 1863TIP3    H229569   6.233   3.502   9.287
 1864TIP3   OH229570   6.861   3.377   9.280
 1864TIP3    H129571   6.852   3.280   9.280
 1864TIP3    H229572   6.956   3.382   9.303
 1865TIP3   OH229573   7.110   3.463   7.545
 1865TIP3    H129574   7.119   3.375   7.586
 1865TIP3    H229575   7.177   3.487   7.481
 1866TIP3   OH229576   5.757   3.015   9.320
 1866TIP3    H129577   5.774   2.924   9.290
 1866TIP3    H229578   5.684   3.041   9.262
 1867TIP3   OH229579   6.430   3.015   9.258
 1867TIP3    H129580   6.396   3.047   9.172
 1867TIP3    H229581   6.436   2.917   9.247
 1868TIP3   OH229582   7.000   3.001   8.994
 1868TIP3    H129583   7.078   3.061   8.998
 1868TIP3    H229584   6.931   3.069   9.001
 1869TIP3   OH229585   5.851   2.738   9.258
 1869TIP3    H129586   5.892   2.652   9.249
 1869TIP3    H229587   5.828   2.739   9.353
 1870TIP3   OH229588   6.317   2.853   7.764
 1870TIP3    H129589   6.264   2.802   7.827
 1870TIP3    H229590   6.345   2.782   7.702
 1871TIP3   OH229591   6.237   2.631   8.991
 1871TIP3    H129592   6.182   2.705   9.020
 1871TIP3    H229593   6.283   2.669   8.914
 1872TIP3   OH229594   6.419   2.682   7.578
 1872TIP3    H129595   6.414   2.646   7.490
 1872TIP3    H229596   6.516   2.678   7.597
 1873TIP3   OH229597   6.748   2.888   9.328
 1873TIP3    H129598   6.844   2.887   9.316
 1873TIP3    H229599   6.731   2.812   9.385
 1874TIP3   OH229600   6.281   2.370   9.098
 1874TIP3    H129601   6.293   2.298   9.032
 1874TIP3    H229602   6.276   2.451   9.043
 1875TIP3   OH229603   6.321   2.208   8.854
 1875TIP3    H129604   6.372   2.255   8.784
 1875TIP3    H229605   6.232   2.201   8.815
 1876TIP3   OH229606   6.474   2.758   8.878
 1876TIP3    H129607   6.550   2.741   8.822
 1876TIP3    H229608   6.440   2.842   8.845
 1877TIP3   OH229609   6.915   2.531   9.373
 1877TIP3    H129610   6.942   2.439   9.363
 1877TIP3    H229611   7.000   2.578   9.378
 1878TIP3   OH229612   7.049   2.812   9.192
 1878TIP3    H129613   7.023   2.886   9.132
 1878TIP3    H229614   7.144   2.813   9.174
 1879TIP3   OH229615   6.127   2.495   9.291
 1879TIP3    H129616   6.050   2.437   9.275
 1879TIP3    H229617   6.192   2.458   9.228
 1880TIP3   OH229618   6.399   1.951   8.894
 1880TIP3    H129619   6.381   2.048   8.883
 1880TIP3    H229620   6.325   1.914   8.842
 1881TIP3   OH229621   6.527   2.385   9.257
 1881TIP3    H129622   6.495   2.361   9.346
 1881TIP3    H229623   6.449   2.364   9.202
 1882TIP3   OH229624   6.800   2.299   9.167
 1882TIP3    H129625   6.704   2.305   9.177
 1882TIP3    H229626   6.827   2.235   9.235
 1883TIP3   OH229627   6.958   2.161   9.355
 1883TIP3    H129628   6.953   2.063   9.358
 1883TIP3    H229629   6.932   2.190   9.444
 1884TIP3   OH229630   5.935   2.289   9.267
 1884TIP3    H129631   5.959   2.215   9.209
 1884TIP3    H229632   5.924   2.245   9.353
 1885TIP3   OH229633   6.421   1.892   9.163
 1885TIP3    H129634   6.489   1.822   9.162
 1885TIP3    H229635   6.410   1.905   9.067
 1886TIP3   OH229636   6.456   2.052   9.377
 1886TIP3    H129637   6.441   2.002   9.292
 1886TIP3    H229638   6.399   2.130   9.365
 1887TIP3   OH229639   5.637   3.738   8.138
 1887TIP3    H129640   5.566   3.690   8.090
 1887TIP3    H229641   5.666   3.673   8.204
 1888TIP3   OH229642   5.720   3.553   8.324
 1888TIP3    H129643   5.684   3.466   8.344
 1888TIP3    H229644   5.743   3.587   8.412
 1889TIP3   OH229645   7.467   3.636   8.617
 1889TIP3    H129646   7.478   3.647   8.713
 1889TIP3    H229647   7.542   3.688   8.586
 1890TIP3   OH229648   7.437   3.592   8.908
 1890TIP3    H129649   7.383   3.517   8.874
 1890TIP3    H229650   7.477   3.548   8.984
 1891TIP3   OH229651   7.279   3.159   9.389
 1891TIP3    H129652   7.183   3.165   9.408
 1891TIP3    H229653   7.312   3.246   9.417
 1892TIP3   OH229654   7.410   2.996   7.917
 1892TIP3    H129655   7.495   3.034   7.942
 1892TIP3    H229656   7.404   2.927   7.987
 1893TIP3   OH229657   7.441   2.806   8.107
 1893TIP3    H129658   7.367   2.756   8.146
 1893TIP3    H229659   7.501   2.817   8.183
 1894TIP3   OH229660   7.417   3.073   8.608
 1894TIP3    H129661   7.498   3.035   8.570
 1894TIP3    H229662   7.433   3.168   8.592
 1895TIP3   OH229663   7.274   3.366   8.835
 1895TIP3    H129664   7.207   3.393   8.900
 1895TIP3    H229665   7.220   3.325   8.765
 1896TIP3   OH229666   7.477   2.793   7.740
 1896TIP3    H129667   7.407   2.818   7.679
 1896TIP3    H229668   7.465   2.855   7.815
 1897TIP3   OH229669   7.225   2.651   8.165
 1897TIP3    H129670   7.211   2.556   8.169
 1897TIP3    H229671   7.196   2.675   8.255
 1898TIP3   OH229672   5.734   2.873   8.573
 1898TIP3    H129673   5.738   2.851   8.476
 1898TIP3    H229674   5.808   2.820   8.606
 1899TIP3   OH229675   7.312   2.848   9.137
 1899TIP3    H129676   7.375   2.775   9.149
 1899TIP3    H229677   7.369   2.928   9.136
 1900TIP3   OH229678   7.463   2.636   9.201
 1900TIP3    H129679   7.373   2.598   9.185
 1900TIP3    H229680   7.520   2.559   9.191
 1901TIP3   OH229681   7.192   2.407   8.002
 1901TIP3    H129682   7.230   2.323   8.037
 1901TIP3    H229683   7.275   2.455   7.980
 1902TIP3   OH229684   7.256   2.465   8.557
 1902TIP3    H129685   7.352   2.488   8.556
 1902TIP3    H229686   7.238   2.479   8.652
 1903TIP3   OH229687   7.262   2.538   8.835
 1903TIP3    H129688   7.173   2.566   8.866
 1903TIP3    H229689   7.306   2.623   8.813
 1904TIP3   OH229690   5.688   2.392   9.190
 1904TIP3    H129691   5.782   2.369   9.208
 1904TIP3    H229692   5.642   2.309   9.215
 1905TIP3   OH229693   7.503   1.945   9.374
 1905TIP3    H129694   7.522   1.873   9.309
 1905TIP3    H229695   7.479   2.019   9.317
 1906TIP3   OH229696   7.247   2.143   8.016
 1906TIP3    H129697   7.283   2.101   8.099
 1906TIP3    H229698   7.202   2.067   7.975
 1907TIP3   OH229699   5.808   2.219   8.473
 1907TIP3    H129700   5.853   2.136   8.498
 1907TIP3    H229701   5.864   2.287   8.511
 1908TIP3   OH229702   5.636   2.520   8.575
 1908TIP3    H129703   5.692   2.493   8.500
 1908TIP3    H229704   5.683   2.599   8.603
 1909TIP3   OH229705   7.391   2.133   9.204
 1909TIP3    H129706   7.314   2.191   9.182
 1909TIP3    H229707   7.402   2.098   9.114
 1910TIP3   OH229708   5.669   2.154   7.987
 1910TIP3    H129709   5.575   2.164   7.967
 1910TIP3    H229710   5.713   2.194   7.909
 1911TIP3   OH229711   7.145   3.641   8.179
 1911TIP3    H129712   7.214   3.612   8.118
 1911TIP3    H229713   7.196   3.691   8.245
 1912TIP3   OH229714   5.667   2.011   8.813
 1912TIP3    H129715   5.600   1.992   8.882
 1912TIP3    H229716   5.621   2.079   8.759
 1913TIP3   OH229717   5.892   3.330   9.229
 1913TIP3    H129718   5.808   3.354   9.186
 1913TIP3    H229719   5.865   3.323   9.321
 1914TIP3   OH229720   6.179   3.429   8.854
 1914TIP3    H129721   6.149   3.519   8.831
 1914TIP3    H229722   6.274   3.440   8.828
 1915TIP3   OH229723   6.612   3.576   9.149
 1915TIP3    H129724   6.629   3.538   9.239
 1915TIP3    H229725   6.703   3.604   9.123
 1916TIP3   OH229726   6.841   3.703   9.079
 1916TIP3    H129727   6.915   3.644   9.055
 1916TIP3    H229728   6.879   3.744   9.159
 1917TIP3   OH229729   7.347   1.964   8.989
 1917TIP3    H129730   7.262   1.991   8.949
 1917TIP3    H229731   7.360   1.880   8.939
 1918TIP3   OH229732   5.923   3.755   8.856
 1918TIP3    H129733   5.850   3.806   8.817
 1918TIP3    H229734   5.893   3.738   8.947
 1919TIP3   OH229735   6.170   3.714   8.764
 1919TIP3    H129736   6.081   3.731   8.803
 1919TIP3    H229737   6.166   3.774   8.687
 1920TIP3   OH229738   6.639   3.704   8.681
 1920TIP3    H129739   6.595   3.761   8.616
 1920TIP3    H229740   6.654   3.767   8.755
 1921TIP3   OH229741   6.869   3.584   8.781
 1921TIP3    H129742   6.784   3.615   8.747
 1921TIP3    H229743   6.919   3.667   8.778
 1922TIP3   OH229744   7.129   3.744   8.802
 1922TIP3    H129745   7.124   3.840   8.780
 1922TIP3    H229746   7.150   3.704   8.716
 1923TIP3   OH229747   5.871   3.621   8.552
 1923TIP3    H129748   5.862   3.574   8.637
 1923TIP3    H229749   5.952   3.582   8.513
 1924TIP3   OH229750   6.077   3.492   8.417
 1924TIP3    H129751   6.062   3.399   8.439
 1924TIP3    H229752   6.163   3.509   8.461
 1925TIP3   OH229753   6.337   3.541   8.504
 1925TIP3    H129754   6.353   3.449   8.478
 1925TIP3    H229755   6.342   3.535   8.601
 1926TIP3   OH229756   6.683   2.105   8.418
 1926TIP3    H129757   6.616   2.042   8.447
 1926TIP3    H229758   6.738   2.051   8.360
 1927TIP3   OH229759   7.197   1.906   8.418
 1927TIP3    H129760   7.257   1.971   8.374
 1927TIP3    H229761   7.109   1.945   8.400
 1928TIP3   OH229762   7.362   2.037   8.244
 1928TIP3    H129763   7.434   1.978   8.213
 1928TIP3    H229764   7.414   2.117   8.267
 1929TIP3   OH229765   5.919   1.967   8.207
 1929TIP3    H129766   5.842   1.950   8.151
 1929TIP3    H229767   5.966   1.882   8.195
 1930TIP3   OH229768   5.797   1.943   7.785
 1930TIP3    H129769   5.840   1.998   7.717
 1930TIP3    H229770   5.738   2.006   7.829
 1931TIP3   OH229771   6.365   1.959   8.183
 1931TIP3    H129772   6.455   1.996   8.173
 1931TIP3    H229773   6.364   1.938   8.276
 1932TIP3   OH229774   6.940   1.963   8.341
 1932TIP3    H129775   6.932   1.973   8.246
 1932TIP3    H229776   6.901   1.874   8.356
 1933TIP3   OH229777   7.063   1.965   7.906
 1933TIP3    H129778   6.986   2.023   7.899
 1933TIP3    H229779   7.021   1.881   7.936
 1934TIP3   OH229780   5.786   3.540   7.878
 1934TIP3    H129781   5.724   3.539   7.802
 1934TIP3    H229782   5.792   3.636   7.888
 1935TIP3   OH229783   6.477   2.158   7.870
 1935TIP3    H129784   6.507   2.103   7.944
 1935TIP3    H229785   6.489   2.247   7.908
 1936TIP3   OH229786   6.677   3.663   7.709
 1936TIP3    H129787   6.766   3.693   7.687
 1936TIP3    H229788   6.653   3.621   7.625
 1937TIP3   OH229789   7.354   3.619   7.975
 1937TIP3    H129790   7.317   3.541   7.928
 1937TIP3    H229791   7.330   3.696   7.920
 1938TIP3   OH229792   5.909   2.023   9.147
 1938TIP3    H129793   5.867   1.944   9.186
 1938TIP3    H229794   5.999   2.018   9.187
 1939TIP3   OH229795   6.107   1.961   9.315
 1939TIP3    H129796   6.197   1.930   9.290
 1939TIP3    H229797   6.072   1.879   9.351
 1940TIP3   OH229798   5.972   3.630   7.578
 1940TIP3    H129799   5.946   3.662   7.664
 1940TIP3    H229800   6.052   3.579   7.591
 1941TIP3   OH229801   6.948   1.889   9.328
 1941TIP3    H129802   6.959   1.842   9.413
 1941TIP3    H229803   7.039   1.887   9.293
 1942TIP3   OH229804   7.286   3.510   9.186
 1942TIP3    H129805   7.203   3.471   9.147
 1942TIP3    H229806   7.251   3.597   9.212
 1943TIP3   OH229807   7.832   2.777   8.696
 1943TIP3    H129808   7.846   2.705   8.761
 1943TIP3    H229809   7.912   2.829   8.714
 1944TIP3   OH229810   7.909   3.206   8.559
 1944TIP3    H129811   7.892   3.123   8.511
 1944TIP3    H229812   8.007   3.209   8.551
 1945TIP3   OH229813   7.588   2.575   8.095
 1945TIP3    H129814   7.548   2.664   8.087
 1945TIP3    H229815   7.534   2.523   8.034
 1946TIP3   OH229816   7.663   2.799   8.307
 1946TIP3    H129817   7.690   2.716   8.352
 1946TIP3    H229818   7.733   2.809   8.241
 1947TIP3   OH229819   7.723   2.541   8.413
 1947TIP3    H129820   7.794   2.491   8.458
 1947TIP3    H229821   7.742   2.513   8.322
 1948TIP3   OH229822   7.935   2.190   8.740
 1948TIP3    H129823   7.925   2.254   8.666
 1948TIP3    H229824   7.878   2.227   8.809
 1949TIP3   OH229825   7.900   2.363   8.537
 1949TIP3    H129826   7.954   2.436   8.577
 1949TIP3    H229827   7.960   2.335   8.465
 1950TIP3   OH229828   8.033   3.194   8.849
 1950TIP3    H129829   8.024   3.279   8.808
 1950TIP3    H229830   7.947   3.174   8.892
 1951TIP3   OH229831   7.660   3.120   7.928
 1951TIP3    H129832   7.641   3.153   7.840
 1951TIP3    H229833   7.666   3.202   7.982
 1952TIP3   OH229834   7.897   2.825   8.977
 1952TIP3    H129835   7.907   2.890   9.048
 1952TIP3    H229836   7.804   2.835   8.954
 1953TIP3   OH229837   8.037   3.412   9.137
 1953TIP3    H129838   8.033   3.400   9.042
 1953TIP3    H229839   7.942   3.400   9.161
 1954TIP3   OH229840   7.974   2.799   7.993
 1954TIP3    H129841   7.956   2.874   7.934
 1954TIP3    H229842   7.911   2.734   7.961
 1955TIP3   OH229843   7.591   3.037   8.876
 1955TIP3    H129844   7.547   3.029   8.790
 1955TIP3    H229845   7.603   2.943   8.898
 1956TIP3   OH229846   7.568   3.312   8.555
 1956TIP3    H129847   7.664   3.300   8.551
 1956TIP3    H229848   7.562   3.395   8.603
 1957TIP3   OH229849   7.885   3.585   8.172
 1957TIP3    H129850   7.902   3.550   8.262
 1957TIP3    H229851   7.797   3.549   8.156
 1958TIP3   OH229852   7.809   3.174   8.976
 1958TIP3    H129853   7.837   3.129   9.059
 1958TIP3    H229854   7.728   3.126   8.948
 1959TIP3   OH229855   7.860   2.543   8.859
 1959TIP3    H129856   7.865   2.581   8.948
 1959TIP3    H229857   7.824   2.455   8.875
 1960TIP3   OH229858   7.523   2.247   8.255
 1960TIP3    H129859   7.590   2.246   8.327
 1960TIP3    H229860   7.574   2.214   8.179
 1961TIP3   OH229861   7.657   2.329   7.804
 1961TIP3    H129862   7.695   2.379   7.731
 1961TIP3    H229863   7.581   2.386   7.821
 1962TIP3   OH229864   7.827   2.441   8.159
 1962TIP3    H129865   7.737   2.449   8.123
 1962TIP3    H229866   7.860   2.353   8.131
 1963TIP3   OH229867   7.876   3.024   9.188
 1963TIP3    H129868   7.946   3.042   9.250
 1963TIP3    H229869   7.797   3.026   9.248
 1964TIP3   OH229870   7.928   2.165   8.090
 1964TIP3    H129871   7.927   2.071   8.117
 1964TIP3    H229872   8.024   2.175   8.085
 1965TIP3   OH229873   7.907   2.952   8.449
 1965TIP3    H129874   7.984   2.946   8.391
 1965TIP3    H229875   7.916   2.870   8.502
 1966TIP3   OH229876   7.611   2.792   8.985
 1966TIP3    H129877   7.627   2.746   9.069
 1966TIP3    H229878   7.549   2.732   8.939
 1967TIP3   OH229879   7.773   2.268   8.948
 1967TIP3    H129880   7.684   2.300   8.927
 1967TIP3    H229881   7.762   2.176   8.976
 1968TIP3   OH229882   7.745   3.442   8.778
 1968TIP3    H129883   7.760   3.348   8.785
 1968TIP3    H229884   7.761   3.474   8.868
 1969TIP3   OH229885   7.861   2.977   7.795
 1969TIP3    H129886   7.798   3.012   7.861
 1969TIP3    H229887   7.919   3.053   7.777
 1970TIP3   OH229888   7.919   3.233   7.684
 1970TIP3    H129889   7.979   3.302   7.715
 1970TIP3    H229890   7.982   3.196   7.619
 1971TIP3   OH229891   7.834   1.982   8.480
 1971TIP3    H129892   7.823   1.985   8.383
 1971TIP3    H229893   7.797   1.894   8.503
 1972TIP3   OH229894   7.721   3.369   8.081
 1972TIP3    H129895   7.643   3.424   8.092
 1972TIP3    H229896   7.784   3.420   8.029
 1973TIP3   OH229897   7.649   3.637   9.217
 1973TIP3    H129898   7.709   3.619   9.292
 1973TIP3    H229899   7.608   3.550   9.202
 1974TIP3   OH229900   7.643   3.016   9.319
 1974TIP3    H129901   7.658   2.923   9.291
 1974TIP3    H229902   7.567   3.041   9.263
 1975TIP3   OH229903   7.737   2.740   9.259
 1975TIP3    H129904   7.780   2.655   9.247
 1975TIP3    H229905   7.716   2.739   9.354
 1976TIP3   OH229906   7.999   2.511   9.304
 1976TIP3    H129907   7.930   2.446   9.282
 1976TIP3    H229908   8.070   2.482   9.244
 1977TIP3   OH229909   7.807   2.279   9.266
 1977TIP3    H129910   7.857   2.216   9.209
 1977TIP3    H229911   7.826   2.249   9.358
 1978TIP3   OH229912   7.522   3.738   8.136
 1978TIP3    H129913   7.449   3.690   8.093
 1978TIP3    H229914   7.551   3.676   8.205
 1979TIP3   OH229915   7.605   3.551   8.323
 1979TIP3    H129916   7.568   3.464   8.346
 1979TIP3    H229917   7.631   3.585   8.411
 1980TIP3   OH229918   7.613   2.865   8.569
 1980TIP3    H129919   7.635   2.851   8.475
 1980TIP3    H229920   7.700   2.843   8.609
 1981TIP3   OH229921   7.571   2.375   9.174
 1981TIP3    H129922   7.664   2.376   9.208
 1981TIP3    H229923   7.516   2.323   9.233
 1982TIP3   OH229924   7.689   2.220   8.474
 1982TIP3    H129925   7.741   2.139   8.494
 1982TIP3    H229926   7.751   2.288   8.507
 1983TIP3   OH229927   7.518   2.521   8.575
 1983TIP3    H129928   7.578   2.495   8.501
 1983TIP3    H229929   7.566   2.600   8.604
 1984TIP3   OH229930   7.554   2.145   7.981
 1984TIP3    H129931   7.462   2.166   7.969
 1984TIP3    H229932   7.600   2.197   7.912
 1985TIP3   OH229933   7.552   2.013   8.817
 1985TIP3    H129934   7.480   1.989   8.877
 1985TIP3    H229935   7.509   2.076   8.756
 1986TIP3   OH229936   7.773   3.333   9.229
 1986TIP3    H129937   7.689   3.354   9.185
 1986TIP3    H229938   7.746   3.322   9.321
 1987TIP3   OH229939   7.809   3.758   8.861
 1987TIP3    H129940   7.735   3.805   8.816
 1987TIP3    H229941   7.771   3.738   8.947
 1988TIP3   OH229942   8.034   3.679   8.734
 1988TIP3    H129943   7.969   3.716   8.798
 1988TIP3    H229944   8.056   3.762   8.690
 1989TIP3   OH229945   7.745   3.621   8.554
 1989TIP3    H129946   7.750   3.577   8.641
 1989TIP3    H229947   7.828   3.587   8.514
 1990TIP3   OH229948   7.944   3.491   8.433
 1990TIP3    H129949   7.938   3.395   8.446
 1990TIP3    H229950   8.034   3.504   8.467
 1991TIP3   OH229951   7.796   1.962   8.209
 1991TIP3    H129952   7.722   1.947   8.148
 1991TIP3    H229953   7.850   1.882   8.201
 1992TIP3   OH229954   7.673   1.945   7.771
 1992TIP3    H129955   7.727   2.010   7.723
 1992TIP3    H229956   7.624   2.002   7.832
 1993TIP3   OH229957   7.865   2.130   7.631
 1993TIP3    H129958   7.922   2.075   7.576
 1993TIP3    H229959   7.929   2.174   7.689
 1994TIP3   OH229960   7.795   2.024   9.153
 1994TIP3    H129961   7.768   1.935   9.184
 1994TIP3    H229962   7.889   2.018   9.182
 1995TIP3   OH229963   7.989   1.957   9.311
 1995TIP3    H129964   8.079   1.927   9.287
 1995TIP3    H229965   7.957   1.876   9.355
 1996TIP3   OH229966   1.172   4.770   8.190
 1996TIP3    H129967   1.172   4.867   8.185
 1996TIP3    H229968   1.101   4.747   8.128
 1997TIP3   OH229969   1.058   4.692   8.538
 1997TIP3    H129970   1.057   4.628   8.611
 1997TIP3    H229971   1.022   4.641   8.464
 1998TIP3   OH229972   0.306   4.651   8.684
 1998TIP3    H129973   0.301   4.592   8.762
 1998TIP3    H229974   0.370   4.717   8.716
 1999TIP3   OH229975   1.424   4.991   8.369
 1999TIP3    H129976   1.386   4.915   8.415
 1999TIP3    H229977   1.426   5.057   8.441
 2000TIP3   OH229978   0.381   5.105   8.545
 2000TIP3    H129979   0.353   5.016   8.514
 2000TIP3    H229980   0.478   5.089   8.547
 2001TIP3   OH229981   0.056   4.462   8.078
 2001TIP3    H129982   0.012   4.549   8.091
 2001TIP3    H229983  -0.015   4.407   8.045
 2002TIP3   OH229984   0.119   4.680   8.307
 2002TIP3    H129985   0.146   4.599   8.353
 2002TIP3    H229986   0.189   4.691   8.240
 2003TIP3   OH229987   1.142   5.503   8.391
 2003TIP3    H129988   1.202   5.432   8.363
 2003TIP3    H229989   1.113   5.470   8.476
 2004TIP3   OH229990   0.894   4.933   8.587
 2004TIP3    H129991   0.927   4.871   8.521
 2004TIP3    H229992   0.976   4.949   8.638
 2005TIP3   OH229993   1.753   4.100   8.657
 2005TIP3    H129994   1.772   4.157   8.734
 2005TIP3    H229995   1.812   4.141   8.592
 2006TIP3   OH229996   1.212   4.380   8.618
 2006TIP3    H129997   1.229   4.284   8.619
 2006TIP3    H229998   1.201   4.393   8.522
 2007TIP3   OH229999   0.522   4.189   8.339
 2007TIP3    H130000   0.533   4.273   8.289
 2007TIP3    H230001   0.484   4.132   8.269
 2008TIP3   OH230002   1.297   4.198   8.177
 2008TIP3    H130003   1.362   4.165   8.243
 2008TIP3    H230004   1.352   4.255   8.122
 2009TIP3   OH230005   0.197   4.431   8.411
 2009TIP3    H130006   0.258   4.371   8.456
 2009TIP3    H230007   0.198   4.397   8.320
 2010TIP3   OH230008   0.700   4.585   8.345
 2010TIP3    H130009   0.768   4.527   8.383
 2010TIP3    H230010   0.650   4.520   8.293
 2011TIP3   OH230011   1.797   4.239   8.886
 2011TIP3    H130012   1.738   4.316   8.874
 2011TIP3    H230013   1.801   4.233   8.982
 2012TIP3   OH230014   0.418   4.076   8.742
 2012TIP3    H130015   0.388   4.135   8.669
 2012TIP3    H230016   0.349   4.099   8.810
 2013TIP3   OH230017   1.145   5.029   8.097
 2013TIP3    H130018   1.117   5.002   8.008
 2013TIP3    H230019   1.109   5.121   8.101
 2014TIP3   OH230020   0.668   4.842   8.765
 2014TIP3    H130021   0.597   4.906   8.788
 2014TIP3    H230022   0.738   4.903   8.736
 2015TIP3   OH230023   1.479   4.131   8.375
 2015TIP3    H130024   1.456   4.055   8.428
 2015TIP3    H230025   1.546   4.175   8.431
 2016TIP3   OH230026   0.374   4.261   8.548
 2016TIP3    H130027   0.434   4.333   8.578
 2016TIP3    H230028   0.425   4.224   8.472
 2017TIP3   OH230029   0.514   5.044   8.845
 2017TIP3    H130030   0.507   5.136   8.812
 2017TIP3    H230031   0.426   5.033   8.888
 2018TIP3   OH230032   0.127   5.011   7.922
 2018TIP3    H130033   0.076   5.045   7.851
 2018TIP3    H230034   0.128   5.085   7.987
 2019TIP3   OH230035   1.476   5.173   8.592
 2019TIP3    H130036   1.381   5.182   8.618
 2019TIP3    H230037   1.504   5.266   8.591
 2020TIP3   OH230038   1.511   3.999   8.742
 2020TIP3    H130039   1.439   4.063   8.732
 2020TIP3    H230040   1.583   4.041   8.691
 2021TIP3   OH230041   0.808   3.811   8.489
 2021TIP3    H130042   0.789   3.716   8.480
 2021TIP3    H230043   0.720   3.845   8.517
 2022TIP3   OH230044   1.318   5.348   8.269
 2022TIP3    H130045   1.334   5.275   8.205
 2022TIP3    H230046   1.336   5.429   8.216
 2023TIP3   OH230047   1.430   5.145   8.126
 2023TIP3    H130048   1.398   5.083   8.056
 2023TIP3    H230049   1.426   5.083   8.201
 2024TIP3   OH230050   1.586   5.004   8.964
 2024TIP3    H130051   1.602   4.936   8.893
 2024TIP3    H230052   1.609   5.086   8.918
 2025TIP3   OH230053   1.037   4.692   7.942
 2025TIP3    H130054   0.966   4.748   7.904
 2025TIP3    H230055   1.103   4.698   7.870
 2026TIP3   OH230056   1.777   4.634   8.768
 2026TIP3    H130057   1.711   4.707   8.771
 2026TIP3    H230058   1.827   4.657   8.687
 2027TIP3   OH230059   1.381   4.707   8.034
 2027TIP3    H130060   1.309   4.737   8.094
 2027TIP3    H230061   1.432   4.647   8.091
 2028TIP3   OH230062   1.376   4.529   8.945
 2028TIP3    H130063   1.376   4.611   8.997
 2028TIP3    H230064   1.313   4.557   8.876
 2029TIP3   OH230065   0.544   4.778   8.225
 2029TIP3    H130066   0.510   4.739   8.141
 2029TIP3    H230067   0.606   4.709   8.257
 2030TIP3   OH230068   0.674   5.115   8.491
 2030TIP3    H130069   0.675   5.065   8.409
 2030TIP3    H230070   0.754   5.081   8.537
 2031TIP3   OH230071   0.578   4.651   8.590
 2031TIP3    H130072   0.631   4.662   8.509
 2031TIP3    H230073   0.614   4.720   8.651
 2032TIP3   OH230074   1.219   5.211   8.661
 2032TIP3    H130075   1.188   5.274   8.727
 2032TIP3    H230076   1.194   5.125   8.703
 2033TIP3   OH230077   0.671   5.095   9.061
 2033TIP3    H130078   0.630   5.170   9.109
 2033TIP3    H230079   0.607   5.077   8.989
 2034TIP3   OH230080   1.261   4.628   7.807
 2034TIP3    H130081   1.318   4.649   7.885
 2034TIP3    H230082   1.298   4.685   7.738
 2035TIP3   OH230083   0.364   4.710   8.975
 2035TIP3    H130084   0.371   4.779   9.044
 2035TIP3    H230085   0.269   4.718   8.953
 2036TIP3   OH230086   1.049   5.309   8.145
 2036TIP3    H130087   1.082   5.339   8.230
 2036TIP3    H230088   0.984   5.377   8.121
 2037TIP3   OH230089   0.497   5.296   9.135
 2037TIP3    H130090   0.490   5.290   9.038
 2037TIP3    H230091   0.404   5.287   9.163
 2038TIP3   OH230092   1.644   3.805   7.796
 2038TIP3    H130093   1.547   3.815   7.810
 2038TIP3    H230094   1.664   3.885   7.745
 2039TIP3   OH230095   0.445   4.681   7.983
 2039TIP3    H130096   0.411   4.758   7.935
 2039TIP3    H230097   0.378   4.614   7.967
 2040TIP3   OH230098   0.099   4.889   8.860
 2040TIP3    H130099   0.026   4.910   8.799
 2040TIP3    H230100   0.058   4.810   8.902
 2041TIP3   OH230101   0.049   5.216   8.540
 2041TIP3    H130102   0.141   5.190   8.553
 2041TIP3    H230103   0.033   5.281   8.610
 2042TIP3   OH230104   1.849   5.268   9.123
 2042TIP3    H130105   1.837   5.172   9.119
 2042TIP3    H230106   1.762   5.293   9.161
 2043TIP3   OH230107   0.944   5.221   9.008
 2043TIP3    H130108   0.950   5.305   9.059
 2043TIP3    H230109   0.856   5.186   9.032
 2044TIP3   OH230110   0.985   5.597   7.987
 2044TIP3    H130111   0.985   5.588   7.891
 2044TIP3    H230112   0.994   5.692   8.004
 2045TIP3   OH230113   0.357   5.482   8.170
 2045TIP3    H130114   0.367   5.442   8.258
 2045TIP3    H230115   0.272   5.443   8.145
 2046TIP3   OH230116   1.262   5.518   7.977
 2046TIP3    H130117   1.165   5.517   7.983
 2046TIP3    H230118   1.285   5.432   8.012
 2047TIP3   OH230119   1.564   4.414   9.169
 2047TIP3    H130120   1.515   4.458   9.097
 2047TIP3    H230121   1.562   4.322   9.139
 2048TIP3   OH230122   0.285   5.051   8.968
 2048TIP3    H130123   0.306   5.006   9.053
 2048TIP3    H230124   0.213   4.993   8.929
 2049TIP3   OH230125   0.546   3.901   8.568
 2049TIP3    H130126   0.457   3.892   8.527
 2049TIP3    H230127   0.533   3.987   8.611
 2050TIP3   OH230128   1.010   3.866   8.898
 2050TIP3    H130129   1.051   3.827   8.978
 2050TIP3    H230130   0.914   3.859   8.916
 2051TIP3   OH230131   1.339   4.254   8.991
 2051TIP3    H130132   1.282   4.232   9.068
 2051TIP3    H230133   1.320   4.347   8.968
 2052TIP3   OH230134   0.557   4.401   8.692
 2052TIP3    H130135   0.482   4.400   8.755
 2052TIP3    H230136   0.551   4.491   8.652
 2053TIP3   OH230137   0.554   4.412   8.178
 2053TIP3    H130138   0.459   4.390   8.163
 2053TIP3    H230139   0.591   4.382   8.092
 2054TIP3   OH230140   1.103   4.461   8.052
 2054TIP3    H130141   1.065   4.545   8.017
 2054TIP3    H230142   1.172   4.444   7.986
 2055TIP3   OH230143   1.009   4.483   9.196
 2055TIP3    H130144   0.957   4.405   9.227
 2055TIP3    H230145   1.093   4.472   9.244
 2056TIP3   OH230146   1.208   4.412   8.338
 2056TIP3    H130147   1.179   4.468   8.264
 2056TIP3    H230148   1.217   4.327   8.292
 2057TIP3   OH230149   0.318   4.428   8.858
 2057TIP3    H130150   0.323   4.467   8.946
 2057TIP3    H230151   0.274   4.343   8.877
 2058TIP3   OH230152   0.015   4.168   8.264
 2058TIP3    H130153   0.064   4.132   8.341
 2058TIP3    H230154   0.025   4.099   8.200
 2059TIP3   OH230155   1.127   4.569   8.792
 2059TIP3    H130156   1.166   4.500   8.734
 2059TIP3    H230157   1.080   4.516   8.859
 2060TIP3   OH230158   0.806   4.168   8.278
 2060TIP3    H130159   0.712   4.168   8.308
 2060TIP3    H230160   0.855   4.149   8.359
 2061TIP3   OH230161   0.293   4.321   8.160
 2061TIP3    H130162   0.203   4.338   8.127
 2061TIP3    H230163   0.315   4.235   8.121
 2062TIP3   OH230164   0.650   4.329   7.925
 2062TIP3    H130165   0.746   4.336   7.942
 2062TIP3    H230166   0.629   4.394   7.856
 2063TIP3   OH230167   1.249   4.092   8.600
 2063TIP3    H130168   1.180   4.095   8.670
 2063TIP3    H230169   1.198   4.066   8.523
 2064TIP3   OH230170   0.528   4.443   7.685
 2064TIP3    H130171   0.470   4.411   7.612
 2064TIP3    H230172   0.607   4.464   7.634
 2065TIP3   OH230173   1.568   5.654   9.233
 2065TIP3    H130174   1.594   5.692   9.148
 2065TIP3    H230175   1.640   5.686   9.289
 2066TIP3   OH230176   0.338   4.910   9.190
 2066TIP3    H130177   0.413   4.924   9.251
 2066TIP3    H230178   0.264   4.906   9.254
 2067TIP3   OH230179   0.936   4.443   8.466
 2067TIP3    H130180   0.996   4.390   8.413
 2067TIP3    H230181   0.921   4.387   8.544
 2068TIP3   OH230182   0.440   4.058   8.112
 2068TIP3    H130183   0.403   3.968   8.110
 2068TIP3    H230184   0.517   4.048   8.054
 2069TIP3   OH230185   0.799   4.274   8.709
 2069TIP3    H130186   0.717   4.328   8.716
 2069TIP3    H230187   0.856   4.312   8.779
 2070TIP3   OH230188   0.860   4.896   7.879
 2070TIP3    H130189   0.780   4.852   7.842
 2070TIP3    H230190   0.835   4.914   7.972
 2071TIP3   OH230191   1.579   4.819   8.757
 2071TIP3    H130192   1.634   4.868   8.693
 2071TIP3    H230193   1.492   4.822   8.712
 2072TIP3   OH230194   1.239   4.184   7.689
 2072TIP3    H130195   1.145   4.199   7.682
 2072TIP3    H230196   1.274   4.265   7.732
 2073TIP3   OH230197   1.008   4.926   9.002
 2073TIP3    H130198   0.974   4.882   9.080
 2073TIP3    H230199   0.981   5.017   9.014
 2074TIP3   OH230200   1.322   4.369   7.863
 2074TIP3    H130201   1.411   4.359   7.903
 2074TIP3    H230202   1.324   4.453   7.812
 2075TIP3   OH230203   0.369   4.839   8.457
 2075TIP3    H130204   0.436   4.830   8.387
 2075TIP3    H230205   0.377   4.753   8.503
 2076TIP3   OH230206   1.070   5.043   7.797
 2076TIP3    H130207   1.032   5.131   7.813
 2076TIP3    H230208   0.991   4.986   7.796
 2077TIP3   OH230209   0.077   4.664   8.981
 2077TIP3    H130210   0.088   4.626   9.069
 2077TIP3    H230211   0.003   4.615   8.942
 2078TIP3   OH230212   0.770   4.634   9.200
 2078TIP3    H130213   0.738   4.601   9.115
 2078TIP3    H230214   0.862   4.600   9.200
 2079TIP3   OH230215   1.240   5.168   8.997
 2079TIP3    H130216   1.147   5.185   8.973
 2079TIP3    H230217   1.236   5.197   9.090
 2080TIP3   OH230218   1.801   4.386   7.839
 2080TIP3    H130219   1.749   4.351   7.766
 2080TIP3    H230220   1.814   4.479   7.813
 2081TIP3   OH230221   1.804   4.971   9.115
 2081TIP3    H130222   1.714   4.992   9.081
 2081TIP3    H230223   1.858   4.966   9.033
 2082TIP3   OH230224   1.355   4.749   8.586
 2082TIP3    H130225   1.261   4.729   8.573
 2082TIP3    H230226   1.399   4.674   8.541
 2083TIP3   OH230227   0.607   5.180   8.194
 2083TIP3    H130228   0.657   5.262   8.178
 2083TIP3    H230229   0.520   5.206   8.162
 2084TIP3   OH230230   0.178   4.665   7.658
 2084TIP3    H130231   0.246   4.727   7.691
 2084TIP3    H230232   0.094   4.700   7.683
 2085TIP3   OH230233   0.750   4.948   8.151
 2085TIP3    H130234   0.718   5.040   8.157
 2085TIP3    H230235   0.676   4.899   8.192
 2086TIP3   OH230236   0.791   5.369   8.790
 2086TIP3    H130237   0.839   5.447   8.760
 2086TIP3    H230238   0.854   5.333   8.855
 2087TIP3   OH230239   0.617   5.443   8.108
 2087TIP3    H130240   0.521   5.461   8.115
 2087TIP3    H230241   0.654   5.530   8.133
 2088TIP3   OH230242   1.144   4.966   8.750
 2088TIP3    H130243   1.114   4.948   8.841
 2088TIP3    H230244   1.209   4.896   8.733
 2089TIP3   OH230245   1.429   5.425   8.998
 2089TIP3    H130246   1.358   5.376   8.952
 2089TIP3    H230247   1.446   5.495   8.932
 2090TIP3   OH230248   0.234   4.151   8.936
 2090TIP3    H130249   0.144   4.186   8.940
 2090TIP3    H230250   0.220   4.066   8.982
 2091TIP3   OH230251   1.458   4.934   7.885
 2091TIP3    H130252   1.434   4.858   7.939
 2091TIP3    H230253   1.554   4.942   7.899
 2092TIP3   OH230254   0.192   5.324   8.780
 2092TIP3    H130255   0.233   5.236   8.778
 2092TIP3    H230256   0.224   5.362   8.862
 2093TIP3   OH230257   0.311   4.868   7.788
 2093TIP3    H130258   0.259   4.898   7.866
 2093TIP3    H230259   0.385   4.931   7.782
 2094TIP3   OH230260   1.107   4.128   8.836
 2094TIP3    H130261   1.179   4.135   8.900
 2094TIP3    H230262   1.069   4.041   8.857
 2095TIP3   OH230263   1.186   4.080   7.946
 2095TIP3    H130264   1.203   4.131   7.865
 2095TIP3    H230265   1.240   4.131   8.009
 2096TIP3   OH230266   0.952   5.303   7.828
 2096TIP3    H130267   0.866   5.351   7.833
 2096TIP3    H230268   1.003   5.352   7.762
 2097TIP3   OH230269   0.902   4.259   8.027
 2097TIP3    H130270   0.980   4.319   8.028
 2097TIP3    H230271   0.877   4.246   8.120
 2098TIP3   OH230272   0.960   4.363   8.945
 2098TIP3    H130273   0.967   4.418   9.026
 2098TIP3    H230274   1.026   4.293   8.954
 2099TIP3   OH230275   0.993   3.966   8.120
 2099TIP3    H130276   0.955   4.034   8.177
 2099TIP3    H230277   1.058   4.021   8.069
 2100TIP3   OH230278   0.696   5.407   7.834
 2100TIP3    H130279   0.701   5.483   7.773
 2100TIP3    H230280   0.661   5.443   7.917
 2101TIP3   OH230281   0.553   4.071   7.795
 2101TIP3    H130282   0.550   4.165   7.819
 2101TIP3    H230283   0.647   4.052   7.813
 2102TIP3   OH230284   1.577   4.150   9.029
 2102TIP3    H130285   1.484   4.182   9.016
 2102TIP3    H230286   1.607   4.147   8.937
 2103TIP3   OH230287   1.439   4.529   8.430
 2103TIP3    H130288   1.357   4.484   8.402
 2103TIP3    H230289   1.487   4.460   8.481
 2104TIP3   OH230290   1.547   5.449   8.581
 2104TIP3    H130291   1.537   5.532   8.531
 2104TIP3    H230292   1.639   5.460   8.616
 2105TIP3   OH230293   0.292   3.871   8.472
 2105TIP3    H130294   0.272   3.866   8.376
 2105TIP3    H230295   0.256   3.784   8.502
 2106TIP3   OH230296   0.187   5.251   8.085
 2106TIP3    H130297   0.108   5.306   8.090
 2106TIP3    H230298   0.240   5.306   8.025
 2107TIP3   OH230299   0.115   5.521   9.219
 2107TIP3    H130300   0.172   5.499   9.295
 2107TIP3    H230301   0.065   5.439   9.202
 2108TIP3   OH230302   0.580   5.416   9.381
 2108TIP3    H130303   0.655   5.364   9.414
 2108TIP3    H230304   0.579   5.388   9.287
 2109TIP3   OH230305   0.990   5.365   7.528
 2109TIP3    H130306   0.920   5.299   7.542
 2109TIP3    H230307   1.061   5.308   7.494
 2110TIP3   OH230308   1.228   5.254   9.256
 2110TIP3    H130309   1.196   5.166   9.284
 2110TIP3    H230310   1.305   5.266   9.315
 2111TIP3   OH230311   0.103   4.908   9.316
 2111TIP3    H130312   0.118   4.813   9.294
 2111TIP3    H230313   0.025   4.923   9.264
 2112TIP3   OH230314   0.773   4.900   9.258
 2112TIP3    H130315   0.739   4.932   9.172
 2112TIP3    H230316   0.779   4.802   9.247
 2113TIP3   OH230317   1.342   4.885   8.998
 2113TIP3    H130318   1.421   4.943   8.993
 2113TIP3    H230319   1.273   4.953   9.001
 2114TIP3   OH230320   0.178   4.623   9.259
 2114TIP3    H130321   0.235   4.545   9.249
 2114TIP3    H230322   0.165   4.624   9.355
 2115TIP3   OH230323   0.662   4.733   7.763
 2115TIP3    H130324   0.609   4.680   7.825
 2115TIP3    H230325   0.687   4.670   7.693
 2116TIP3   OH230326   0.582   4.518   8.993
 2116TIP3    H130327   0.522   4.589   9.018
 2116TIP3    H230328   0.623   4.555   8.913
 2117TIP3   OH230329   1.091   4.775   9.328
 2117TIP3    H130330   1.186   4.773   9.313
 2117TIP3    H230331   1.074   4.698   9.384
 2118TIP3   OH230332   0.628   4.257   9.098
 2118TIP3    H130333   0.636   4.187   9.032
 2118TIP3    H230334   0.617   4.338   9.044
 2119TIP3   OH230335   0.666   4.088   8.853
 2119TIP3    H130336   0.715   4.142   8.785
 2119TIP3    H230337   0.575   4.089   8.814
 2120TIP3   OH230338   0.819   4.644   8.879
 2120TIP3    H130339   0.894   4.627   8.821
 2120TIP3    H230340   0.782   4.727   8.843
 2121TIP3   OH230341   1.257   4.417   9.374
 2121TIP3    H130342   1.281   4.324   9.365
 2121TIP3    H230343   1.343   4.462   9.378
 2122TIP3   OH230344   1.392   4.698   9.192
 2122TIP3    H130345   1.367   4.769   9.130
 2122TIP3    H230346   1.488   4.694   9.173
 2123TIP3   OH230347   0.470   4.382   9.290
 2123TIP3    H130348   0.394   4.322   9.275
 2123TIP3    H230349   0.536   4.343   9.229
 2124TIP3   OH230350   0.736   3.833   8.896
 2124TIP3    H130351   0.730   3.932   8.887
 2124TIP3    H230352   0.668   3.811   8.829
 2125TIP3   OH230353   0.871   4.270   9.257
 2125TIP3    H130354   0.838   4.247   9.346
 2125TIP3    H230355   0.793   4.250   9.202
 2126TIP3   OH230356   1.142   4.184   9.166
 2126TIP3    H130357   1.046   4.191   9.177
 2126TIP3    H230358   1.168   4.121   9.236
 2127TIP3   OH230359   1.300   4.047   9.354
 2127TIP3    H130360   1.297   3.949   9.358
 2127TIP3    H230361   1.276   4.076   9.444
 2128TIP3   OH230362   0.284   4.174   9.268
 2128TIP3    H130363   0.307   4.101   9.207
 2128TIP3    H230364   0.272   4.128   9.354
 2129TIP3   OH230365   0.754   3.765   9.158
 2129TIP3    H130366   0.835   3.710   9.164
 2129TIP3    H230367   0.762   3.801   9.067
 2130TIP3   OH230368   0.800   3.936   9.374
 2130TIP3    H130369   0.782   3.887   9.292
 2130TIP3    H230370   0.742   4.015   9.367
 2131TIP3   OH230371   0.750   5.643   7.700
 2131TIP3    H130372   0.847   5.635   7.698
 2131TIP3    H230373   0.726   5.683   7.615
 2132TIP3   OH230374   0.227   5.171   7.593
 2132TIP3    H130375   0.254   5.122   7.671
 2132TIP3    H230376   0.163   5.120   7.542
 2133TIP3   OH230377  -0.006   5.637   8.128
 2133TIP3    H130378  -0.083   5.587   8.095
 2133TIP3    H230379   0.015   5.574   8.201
 2134TIP3   OH230380   0.085   5.442   8.316
 2134TIP3    H130381   0.036   5.359   8.331
 2134TIP3    H230382   0.095   5.478   8.406
 2135TIP3   OH230383   1.813   5.521   8.615
 2135TIP3    H130384   1.821   5.533   8.712
 2135TIP3    H230385   1.887   5.576   8.586
 2136TIP3   OH230386   1.775   5.478   8.911
 2136TIP3    H130387   1.728   5.401   8.874
 2136TIP3    H230388   1.822   5.434   8.983
 2137TIP3   OH230389   1.619   5.050   9.379
 2137TIP3    H130390   1.528   5.048   9.414
 2137TIP3    H230391   1.656   5.131   9.420
 2138TIP3   OH230392   1.756   4.874   7.918
 2138TIP3    H130393   1.836   4.924   7.939
 2138TIP3    H230394   1.752   4.811   7.994
 2139TIP3   OH230395   1.788   4.689   8.109
 2139TIP3    H130396   1.711   4.642   8.149
 2139TIP3    H230397   1.846   4.704   8.186
 2140TIP3   OH230398   1.761   4.961   8.606
 2140TIP3    H130399   1.843   4.920   8.572
 2140TIP3    H230400   1.779   5.056   8.592
 2141TIP3   OH230401   1.617   5.252   8.832
 2141TIP3    H130402   1.551   5.284   8.895
 2141TIP3    H230403   1.562   5.209   8.765
 2142TIP3   OH230404   1.826   4.675   7.749
 2142TIP3    H130405   1.764   4.710   7.681
 2142TIP3    H230406   1.809   4.743   7.818
 2143TIP3   OH230407   1.568   4.538   8.165
 2143TIP3    H130408   1.554   4.442   8.164
 2143TIP3    H230409   1.537   4.559   8.255
 2144TIP3   OH230410   0.069   4.746   8.574
 2144TIP3    H130411   0.087   4.738   8.478
 2144TIP3    H230412   0.158   4.731   8.611
 2145TIP3   OH230413   1.655   4.736   9.136
 2145TIP3    H130414   1.716   4.659   9.149
 2145TIP3    H230415   1.716   4.812   9.137
 2146TIP3   OH230416   1.805   4.522   9.201
 2146TIP3    H130417   1.716   4.483   9.186
 2146TIP3    H230418   1.862   4.444   9.194
 2147TIP3   OH230419   1.568   4.152   7.518
 2147TIP3    H130420   1.635   4.102   7.569
 2147TIP3    H230421   1.489   4.100   7.530
 2148TIP3   OH230422   1.536   4.296   8.012
 2148TIP3    H130423   1.564   4.202   8.025
 2148TIP3    H230424   1.617   4.334   7.978
 2149TIP3   OH230425   1.599   4.351   8.558
 2149TIP3    H130426   1.695   4.374   8.556
 2149TIP3    H230427   1.581   4.365   8.652
 2150TIP3   OH230428   1.606   4.423   8.836
 2150TIP3    H130429   1.517   4.451   8.866
 2150TIP3    H230430   1.649   4.508   8.813
 2151TIP3   OH230431   0.050   4.236   9.152
 2151TIP3    H130432   0.134   4.248   9.202
 2151TIP3    H230433  -0.008   4.193   9.215
 2152TIP3   OH230434   1.834   3.830   9.368
 2152TIP3    H130435   1.869   3.764   9.307
 2152TIP3    H230436   1.843   3.911   9.314
 2153TIP3   OH230437   1.603   4.026   8.017
 2153TIP3    H130438   1.624   3.982   8.102
 2153TIP3    H230439   1.543   3.961   7.973
 2154TIP3   OH230440   0.151   4.106   8.479
 2154TIP3    H130441   0.199   4.024   8.500
 2154TIP3    H230442   0.206   4.174   8.518
 2155TIP3   OH230443   0.001   4.414   8.586
 2155TIP3    H130444   0.047   4.391   8.503
 2155TIP3    H230445   0.035   4.502   8.603
 2156TIP3   OH230446   1.785   4.040   9.204
 2156TIP3    H130447   1.692   4.067   9.199
 2156TIP3    H230448   1.788   3.984   9.125
 2157TIP3   OH230449   1.787   4.029   7.672
 2157TIP3    H130450   1.831   3.962   7.617
 2157TIP3    H230451   1.856   4.096   7.673
 2158TIP3   OH230452   0.037   4.018   7.931
 2158TIP3    H130453  -0.057   4.035   7.952
 2158TIP3    H230454   0.071   4.100   7.898
 2159TIP3   OH230455   1.499   5.519   8.184
 2159TIP3    H130456   1.558   5.509   8.107
 2159TIP3    H230457   1.540   5.591   8.235
 2160TIP3   OH230458   0.028   3.910   8.827
 2160TIP3    H130459  -0.045   3.882   8.883
 2160TIP3    H230460  -0.025   3.972   8.771
 2161TIP3   OH230461   0.227   5.218   9.230
 2161TIP3    H130462   0.146   5.263   9.205
 2161TIP3    H230463   0.217   5.211   9.326
 2162TIP3   OH230464   0.521   5.318   8.856
 2162TIP3    H130465   0.491   5.407   8.830
 2162TIP3    H230466   0.615   5.326   8.829
 2163TIP3   OH230467   0.957   5.460   9.148
 2163TIP3    H130468   0.971   5.425   9.239
 2163TIP3    H230469   1.047   5.491   9.124
 2164TIP3   OH230470   1.185   5.587   9.079
 2164TIP3    H130471   1.258   5.529   9.056
 2164TIP3    H230472   1.222   5.632   9.159
 2165TIP3   OH230473   1.687   3.848   8.991
 2165TIP3    H130474   1.605   3.879   8.949
 2165TIP3    H230475   1.704   3.766   8.939
 2166TIP3   OH230476   0.262   5.634   8.857
 2166TIP3    H130477   0.191   5.691   8.820
 2166TIP3    H230478   0.233   5.631   8.949
 2167TIP3   OH230479   0.516   5.600   8.765
 2167TIP3    H130480   0.427   5.616   8.804
 2167TIP3    H230481   0.510   5.657   8.687
 2168TIP3   OH230482   0.984   5.590   8.682
 2168TIP3    H130483   0.938   5.646   8.617
 2168TIP3    H230484   0.997   5.654   8.756
 2169TIP3   OH230485   1.215   5.469   8.781
 2169TIP3    H130486   1.129   5.499   8.746
 2169TIP3    H230487   1.261   5.554   8.778
 2170TIP3   OH230488   1.471   5.626   8.804
 2170TIP3    H130489   1.467   5.723   8.783
 2170TIP3    H230490   1.493   5.591   8.717
 2171TIP3   OH230491   0.216   5.510   8.547
 2171TIP3    H130492   0.202   5.467   8.634
 2171TIP3    H230493   0.296   5.468   8.510
 2172TIP3   OH230494   0.420   5.375   8.415
 2172TIP3    H130495   0.405   5.282   8.440
 2172TIP3    H230496   0.505   5.394   8.461
 2173TIP3   OH230497   0.681   5.425   8.506
 2173TIP3    H130498   0.696   5.333   8.479
 2173TIP3    H230499   0.687   5.420   8.602
 2174TIP3   OH230500   1.026   3.992   8.418
 2174TIP3    H130501   0.958   3.930   8.448
 2174TIP3    H230502   1.081   3.939   8.360
 2175TIP3   OH230503   1.539   3.792   8.419
 2175TIP3    H130504   1.602   3.855   8.375
 2175TIP3    H230505   1.452   3.834   8.402
 2176TIP3   OH230506   1.708   3.922   8.253
 2176TIP3    H130507   1.775   3.864   8.211
 2176TIP3    H230508   1.759   4.006   8.263
 2177TIP3   OH230509   0.267   3.854   8.202
 2177TIP3    H130510   0.186   3.833   8.150
 2177TIP3    H230511   0.312   3.767   8.196
 2178TIP3   OH230512   0.143   3.826   7.778
 2178TIP3    H130513   0.189   3.891   7.722
 2178TIP3    H230514   0.087   3.882   7.835
 2179TIP3   OH230515   0.713   3.836   8.181
 2179TIP3    H130516   0.797   3.885   8.172
 2179TIP3    H230517   0.705   3.827   8.276
 2180TIP3   OH230518   1.282   3.849   8.342
 2180TIP3    H130519   1.278   3.863   8.246
 2180TIP3    H230520   1.247   3.759   8.360
 2181TIP3   OH230521   1.405   3.851   7.913
 2181TIP3    H130522   1.332   3.912   7.895
 2181TIP3    H230523   1.361   3.765   7.933
 2182TIP3   OH230524   0.124   5.430   7.880
 2182TIP3    H130525   0.072   5.432   7.799
 2182TIP3    H230526   0.135   5.525   7.891
 2183TIP3   OH230527   0.321   4.023   7.634
 2183TIP3    H130528   0.370   3.967   7.572
 2183TIP3    H230529   0.396   4.053   7.688
 2184TIP3   OH230530   0.818   4.048   7.867
 2184TIP3    H130531   0.850   3.992   7.938
 2184TIP3    H230532   0.834   4.134   7.910
 2185TIP3   OH230533   1.018   5.564   7.707
 2185TIP3    H130534   1.112   5.581   7.691
 2185TIP3    H230535   0.999   5.503   7.632
 2186TIP3   OH230536   1.686   5.501   7.975
 2186TIP3    H130537   1.663   5.428   7.916
 2186TIP3    H230538   1.675   5.577   7.915
 2187TIP3   OH230539   0.251   3.909   9.152
 2187TIP3    H130540   0.210   3.828   9.187
 2187TIP3    H230541   0.342   3.902   9.189
 2188TIP3   OH230542   0.455   3.843   9.308
 2188TIP3    H130543   0.545   3.809   9.295
 2188TIP3    H230544   0.413   3.768   9.354
 2189TIP3   OH230545   1.292   3.774   9.328
 2189TIP3    H130546   1.302   3.727   9.413
 2189TIP3    H230547   1.383   3.771   9.294
 2190TIP3   OH230548   1.613   5.380   9.190
 2190TIP3    H130549   1.533   5.367   9.135
 2190TIP3    H230550   1.601   5.475   9.212
 2191TIP3   OH230551   3.058   4.769   8.189
 2191TIP3    H130552   3.055   4.866   8.184
 2191TIP3    H230553   2.985   4.745   8.130
 2192TIP3   OH230554   2.943   4.692   8.539
 2192TIP3    H130555   2.941   4.628   8.611
 2192TIP3    H230556   2.907   4.641   8.464
 2193TIP3   OH230557   2.178   4.661   8.694
 2193TIP3    H130558   2.186   4.592   8.762
 2193TIP3    H230559   2.253   4.718   8.716
 2194TIP3   OH230560   3.310   4.988   8.367
 2194TIP3    H130561   3.270   4.916   8.417
 2194TIP3    H230562   3.314   5.058   8.434
 2195TIP3   OH230563   2.270   5.106   8.543
 2195TIP3    H130564   2.240   5.018   8.512
 2195TIP3    H230565   2.366   5.088   8.547
 2196TIP3   OH230566   1.936   4.461   8.088
 2196TIP3    H130567   1.890   4.547   8.088
 2196TIP3    H230568   1.878   4.406   8.034
 2197TIP3   OH230569   2.006   4.684   8.308
 2197TIP3    H130570   2.035   4.601   8.352
 2197TIP3    H230571   2.075   4.695   8.240
 2198TIP3   OH230572   3.023   5.505   8.391
 2198TIP3    H130573   3.088   5.436   8.361
 2198TIP3    H230574   3.001   5.469   8.477
 2199TIP3   OH230575   2.780   4.932   8.587
 2199TIP3    H130576   2.814   4.870   8.520
 2199TIP3    H230577   2.862   4.948   8.637
 2200TIP3   OH230578   3.639   4.100   8.654
 2200TIP3    H130579   3.656   4.154   8.735
 2200TIP3    H230580   3.700   4.148   8.596
 2201TIP3   OH230581   3.097   4.379   8.618
 2201TIP3    H130582   3.115   4.283   8.618
 2201TIP3    H230583   3.087   4.393   8.522
 2202TIP3   OH230584   2.407   4.189   8.338
 2202TIP3    H130585   2.420   4.272   8.288
 2202TIP3    H230586   2.369   4.131   8.268
 2203TIP3   OH230587   3.184   4.196   8.178
 2203TIP3    H130588   3.251   4.166   8.242
 2203TIP3    H230589   3.238   4.253   8.119
 2204TIP3   OH230590   2.071   4.430   8.412
 2204TIP3    H130591   2.137   4.376   8.458
 2204TIP3    H230592   2.082   4.398   8.321
 2205TIP3   OH230593   2.586   4.586   8.346
 2205TIP3    H130594   2.654   4.527   8.384
 2205TIP3    H230595   2.536   4.520   8.293
 2206TIP3   OH230596   3.682   4.239   8.886
 2206TIP3    H130597   3.624   4.317   8.875
 2206TIP3    H230598   3.687   4.233   8.982
 2207TIP3   OH230599   2.300   4.079   8.742
 2207TIP3    H130600   2.272   4.136   8.668
 2207TIP3    H230601   2.233   4.101   8.811
 2208TIP3   OH230602   3.025   5.027   8.097
 2208TIP3    H130603   3.000   5.002   8.006
 2208TIP3    H230604   2.998   5.121   8.101
 2209TIP3   OH230605   2.550   4.844   8.765
 2209TIP3    H130606   2.480   4.908   8.789
 2209TIP3    H230607   2.621   4.903   8.736
 2210TIP3   OH230608   3.375   4.123   8.373
 2210TIP3    H130609   3.333   4.057   8.429
 2210TIP3    H230610   3.422   4.179   8.437
 2211TIP3   OH230611   2.257   4.264   8.547
 2211TIP3    H130612   2.320   4.333   8.578
 2211TIP3    H230613   2.308   4.224   8.472
 2212TIP3   OH230614   2.396   5.044   8.848
 2212TIP3    H130615   2.390   5.136   8.815
 2212TIP3    H230616   2.308   5.036   8.893
 2213TIP3   OH230617   2.000   5.003   7.924
 2213TIP3    H130618   1.974   5.040   7.838
 2213TIP3    H230619   2.011   5.084   7.979
 2214TIP3   OH230620   3.364   5.172   8.604
 2214TIP3    H130621   3.267   5.183   8.616
 2214TIP3    H230622   3.391   5.263   8.583
 2215TIP3   OH230623   3.395   3.998   8.738
 2215TIP3    H130624   3.323   4.063   8.736
 2215TIP3    H230625   3.468   4.045   8.694
 2216TIP3   OH230626   2.692   3.812   8.489
 2216TIP3    H130627   2.677   3.716   8.481
 2216TIP3    H230628   2.604   3.843   8.520
 2217TIP3   OH230629   3.191   5.350   8.264
 2217TIP3    H130630   3.232   5.278   8.212
 2217TIP3    H230631   3.234   5.428   8.224
 2218TIP3   OH230632   3.314   5.143   8.113
 2218TIP3    H130633   3.281   5.073   8.054
 2218TIP3    H230634   3.315   5.094   8.198
 2219TIP3   OH230635   3.472   5.003   8.964
 2219TIP3    H130636   3.487   4.937   8.893
 2219TIP3    H230637   3.494   5.087   8.918
 2220TIP3   OH230638   2.922   4.695   7.941
 2220TIP3    H130639   2.854   4.751   7.900
 2220TIP3    H230640   2.994   4.697   7.874
 2221TIP3   OH230641   3.662   4.634   8.767
 2221TIP3    H130642   3.597   4.707   8.771
 2221TIP3    H230643   3.712   4.658   8.687
 2222TIP3   OH230644   3.268   4.713   8.035
 2222TIP3    H130645   3.193   4.736   8.095
 2222TIP3    H230646   3.317   4.646   8.087
 2223TIP3   OH230647   3.261   4.529   8.945
 2223TIP3    H130648   3.261   4.611   8.997
 2223TIP3    H230649   3.198   4.557   8.876
 2224TIP3   OH230650   2.428   4.777   8.223
 2224TIP3    H130651   2.398   4.738   8.138
 2224TIP3    H230652   2.491   4.709   8.257
 2225TIP3   OH230653   2.559   5.115   8.492
 2225TIP3    H130654   2.561   5.065   8.410
 2225TIP3    H230655   2.639   5.081   8.537
 2226TIP3   OH230656   2.461   4.653   8.591
 2226TIP3    H130657   2.516   4.662   8.510
 2226TIP3    H230658   2.502   4.719   8.651
 2227TIP3   OH230659   3.106   5.210   8.662
 2227TIP3    H130660   3.076   5.274   8.728
 2227TIP3    H230661   3.079   5.125   8.703
 2228TIP3   OH230662   2.556   5.094   9.061
 2228TIP3    H130663   2.515   5.169   9.109
 2228TIP3    H230664   2.491   5.075   8.990
 2229TIP3   OH230665   3.150   4.642   7.801
 2229TIP3    H130666   3.210   4.650   7.879
 2229TIP3    H230667   3.197   4.682   7.728
 2230TIP3   OH230668   2.252   4.712   8.974
 2230TIP3    H130669   2.258   4.778   9.045
 2230TIP3    H230670   2.157   4.720   8.954
 2231TIP3   OH230671   2.929   5.305   8.144
 2231TIP3    H130672   2.971   5.336   8.226
 2231TIP3    H230673   2.871   5.379   8.123
 2232TIP3   OH230674   2.383   5.299   9.134
 2232TIP3    H130675   2.375   5.290   9.038
 2232TIP3    H230676   2.290   5.285   9.162
 2233TIP3   OH230677   2.327   4.679   7.980
 2233TIP3    H130678   2.294   4.761   7.942
 2233TIP3    H230679   2.258   4.613   7.966
 2234TIP3   OH230680   1.934   4.923   8.877
 2234TIP3    H130681   1.891   4.915   8.790
 2234TIP3    H230682   1.944   4.829   8.898
 2235TIP3   OH230683   1.909   5.201   8.549
 2235TIP3    H130684   2.005   5.184   8.552
 2235TIP3    H230685   1.904   5.279   8.605
 2236TIP3   OH230686   3.735   5.267   9.123
 2236TIP3    H130687   3.723   5.172   9.119
 2236TIP3    H230688   3.647   5.293   9.160
 2237TIP3   OH230689   2.830   5.221   9.008
 2237TIP3    H130690   2.835   5.306   9.058
 2237TIP3    H230691   2.742   5.186   9.032
 2238TIP3   OH230692   2.868   5.594   7.985
 2238TIP3    H130693   2.873   5.589   7.888
 2238TIP3    H230694   2.879   5.689   8.006
 2239TIP3   OH230695   2.240   5.480   8.170
 2239TIP3    H130696   2.255   5.445   8.260
 2239TIP3    H230697   2.154   5.441   8.149
 2240TIP3   OH230698   3.146   5.518   7.974
 2240TIP3    H130699   3.049   5.514   7.984
 2240TIP3    H230700   3.173   5.435   8.016
 2241TIP3   OH230701   3.450   4.413   9.168
 2241TIP3    H130702   3.401   4.458   9.097
 2241TIP3    H230703   3.447   4.321   9.139
 2242TIP3   OH230704   2.164   5.054   8.970
 2242TIP3    H130705   2.186   5.018   9.059
 2242TIP3    H230706   2.077   5.015   8.949
 2243TIP3   OH230707   2.432   3.903   8.564
 2243TIP3    H130708   2.342   3.889   8.527
 2243TIP3    H230709   2.418   3.985   8.613
 2244TIP3   OH230710   2.897   3.868   8.899
 2244TIP3    H130711   2.936   3.826   8.978
 2244TIP3    H230712   2.799   3.858   8.914
 2245TIP3   OH230713   3.224   4.254   8.989
 2245TIP3    H130714   3.168   4.232   9.068
 2245TIP3    H230715   3.206   4.348   8.969
 2246TIP3   OH230716   2.442   4.401   8.692
 2246TIP3    H130717   2.368   4.400   8.754
 2246TIP3    H230718   2.437   4.491   8.652
 2247TIP3   OH230719   2.438   4.409   8.176
 2247TIP3    H130720   2.343   4.386   8.163
 2247TIP3    H230721   2.475   4.381   8.090
 2248TIP3   OH230722   2.987   4.460   8.051
 2248TIP3    H130723   2.952   4.545   8.016
 2248TIP3    H230724   3.060   4.442   7.988
 2249TIP3   OH230725   2.895   4.483   9.196
 2249TIP3    H130726   2.843   4.405   9.227
 2249TIP3    H230727   2.979   4.472   9.244
 2250TIP3   OH230728   3.094   4.411   8.337
 2250TIP3    H130729   3.065   4.467   8.263
 2250TIP3    H230730   3.103   4.326   8.291
 2251TIP3   OH230731   2.204   4.424   8.857
 2251TIP3    H130732   2.214   4.465   8.944
 2251TIP3    H230733   2.160   4.340   8.879
 2252TIP3   OH230734   2.543   4.168   7.551
 2252TIP3    H130735   2.489   4.117   7.614
 2252TIP3    H230736   2.473   4.202   7.492
 2253TIP3   OH230737   1.871   4.134   8.257
 2253TIP3    H130738   1.940   4.130   8.326
 2253TIP3    H230739   1.915   4.098   8.178
 2254TIP3   OH230740   2.000   4.213   7.798
 2254TIP3    H130741   2.050   4.270   7.736
 2254TIP3    H230742   1.929   4.274   7.824
 2255TIP3   OH230743   3.012   4.569   8.792
 2255TIP3    H130744   3.051   4.500   8.734
 2255TIP3    H230745   2.965   4.516   8.859
 2256TIP3   OH230746   2.692   4.169   8.279
 2256TIP3    H130747   2.598   4.167   8.308
 2256TIP3    H230748   2.741   4.149   8.360
 2257TIP3   OH230749   2.173   4.322   8.165
 2257TIP3    H130750   2.086   4.337   8.123
 2257TIP3    H230751   2.203   4.239   8.123
 2258TIP3   OH230752   2.536   4.328   7.928
 2258TIP3    H130753   2.632   4.336   7.944
 2258TIP3    H230754   2.515   4.392   7.858
 2259TIP3   OH230755   3.134   4.093   8.599
 2259TIP3    H130756   3.067   4.095   8.671
 2259TIP3    H230757   3.081   4.064   8.523
 2260TIP3   OH230758   2.408   4.451   7.684
 2260TIP3    H130759   2.352   4.405   7.617
 2260TIP3    H230760   2.489   4.461   7.633
 2261TIP3   OH230761   3.453   5.654   9.233
 2261TIP3    H130762   3.480   5.692   9.148
 2261TIP3    H230763   3.526   5.686   9.289
 2262TIP3   OH230764   2.221   4.901   9.191
 2262TIP3    H130765   2.294   4.926   9.251
 2262TIP3    H230766   2.144   4.908   9.252
 2263TIP3   OH230767   2.821   4.443   8.466
 2263TIP3    H130768   2.881   4.390   8.413
 2263TIP3    H230769   2.806   4.388   8.544
 2264TIP3   OH230770   2.322   4.057   8.111
 2264TIP3    H130771   2.291   3.964   8.109
 2264TIP3    H230772   2.400   4.050   8.055
 2265TIP3   OH230773   2.685   4.274   8.707
 2265TIP3    H130774   2.603   4.327   8.716
 2265TIP3    H230775   2.741   4.311   8.779
 2266TIP3   OH230776   2.742   4.897   7.879
 2266TIP3    H130777   2.664   4.849   7.844
 2266TIP3    H230778   2.721   4.912   7.973
 2267TIP3   OH230779   3.464   4.819   8.758
 2267TIP3    H130780   3.519   4.867   8.693
 2267TIP3    H230781   3.378   4.822   8.712
 2268TIP3   OH230782   2.894   4.926   9.002
 2268TIP3    H130783   2.859   4.882   9.080
 2268TIP3    H230784   2.867   5.017   9.014
 2269TIP3   OH230785   3.200   4.371   7.868
 2269TIP3    H130786   3.293   4.357   7.894
 2269TIP3    H230787   3.205   4.441   7.801
 2270TIP3   OH230788   2.256   4.838   8.457
 2270TIP3    H130789   2.322   4.829   8.386
 2270TIP3    H230790   2.262   4.753   8.503
 2271TIP3   OH230791   2.960   5.042   7.796
 2271TIP3    H130792   2.919   5.129   7.813
 2271TIP3    H230793   2.883   4.984   7.800
 2272TIP3   OH230794   1.954   4.677   8.983
 2272TIP3    H130795   1.970   4.632   9.069
 2272TIP3    H230796   1.892   4.617   8.939
 2273TIP3   OH230797   2.656   4.634   9.200
 2273TIP3    H130798   2.623   4.601   9.115
 2273TIP3    H230799   2.747   4.600   9.200
 2274TIP3   OH230800   3.125   5.167   8.997
 2274TIP3    H130801   3.032   5.185   8.973
 2274TIP3    H230802   3.121   5.197   9.090
 2275TIP3   OH230803   3.690   4.971   9.115
 2275TIP3    H130804   3.600   4.993   9.079
 2275TIP3    H230805   3.744   4.965   9.033
 2276TIP3   OH230806   3.530   5.263   7.876
 2276TIP3    H130807   3.479   5.188   7.911
 2276TIP3    H230808   3.539   5.243   7.783
 2277TIP3   OH230809   3.241   4.750   8.586
 2277TIP3    H130810   3.147   4.729   8.574
 2277TIP3    H230811   3.284   4.674   8.541
 2278TIP3   OH230812   2.491   5.182   8.197
 2278TIP3    H130813   2.541   5.262   8.175
 2278TIP3    H230814   2.404   5.205   8.162
 2279TIP3   OH230815   2.067   4.669   7.652
 2279TIP3    H130816   2.118   4.730   7.702
 2279TIP3    H230817   1.976   4.691   7.682
 2280TIP3   OH230818   2.633   4.949   8.147
 2280TIP3    H130819   2.601   5.040   8.155
 2280TIP3    H230820   2.563   4.899   8.193
 2281TIP3   OH230821   2.678   5.369   8.789
 2281TIP3    H130822   2.725   5.448   8.759
 2281TIP3    H230823   2.740   5.334   8.855
 2282TIP3   OH230824   2.501   5.448   8.100
 2282TIP3    H130825   2.405   5.459   8.118
 2282TIP3    H230826   2.537   5.531   8.137
 2283TIP3   OH230827   3.029   4.966   8.750
 2283TIP3    H130828   2.999   4.948   8.841
 2283TIP3    H230829   3.095   4.896   8.733
 2284TIP3   OH230830   3.264   5.068   7.661
 2284TIP3    H130831   3.288   5.024   7.744
 2284TIP3    H230832   3.167   5.063   7.666
 2285TIP3   OH230833   3.314   5.425   8.999
 2285TIP3    H130834   3.244   5.376   8.952
 2285TIP3    H230835   3.331   5.495   8.932
 2286TIP3   OH230836   2.119   4.151   8.938
 2286TIP3    H130837   2.029   4.186   8.937
 2286TIP3    H230838   2.108   4.066   8.985
 2287TIP3   OH230839   3.344   4.936   7.892
 2287TIP3    H130840   3.320   4.854   7.940
 2287TIP3    H230841   3.441   4.937   7.904
 2288TIP3   OH230842   2.079   5.326   8.782
 2288TIP3    H130843   2.114   5.236   8.782
 2288TIP3    H230844   2.109   5.360   8.867
 2289TIP3   OH230845   2.545   5.137   7.754
 2289TIP3    H130846   2.587   5.084   7.824
 2289TIP3    H230847   2.567   5.227   7.786
 2290TIP3   OH230848   2.993   4.128   8.836
 2290TIP3    H130849   3.065   4.135   8.900
 2290TIP3    H230850   2.954   4.041   8.857
 2291TIP3   OH230851   3.073   4.085   7.937
 2291TIP3    H130852   3.094   4.143   7.863
 2291TIP3    H230853   3.127   4.126   8.006
 2292TIP3   OH230854   2.832   5.297   7.818
 2292TIP3    H130855   2.756   5.355   7.836
 2292TIP3    H230856   2.894   5.351   7.767
 2293TIP3   OH230857   2.787   4.260   8.026
 2293TIP3    H130858   2.866   4.318   8.028
 2293TIP3    H230859   2.763   4.247   8.120
 2294TIP3   OH230860   2.846   4.363   8.945
 2294TIP3    H130861   2.853   4.418   9.025
 2294TIP3    H230862   2.912   4.293   8.954
 2295TIP3   OH230863   2.871   3.967   8.109
 2295TIP3    H130864   2.842   4.028   8.179
 2295TIP3    H230865   2.944   4.022   8.070
 2296TIP3   OH230866   2.570   5.409   7.822
 2296TIP3    H130867   2.594   5.491   7.781
 2296TIP3    H230868   2.548   5.433   7.916
 2297TIP3   OH230869   2.443   4.078   7.786
 2297TIP3    H130870   2.433   4.168   7.822
 2297TIP3    H230871   2.532   4.053   7.815
 2298TIP3   OH230872   3.462   4.149   9.030
 2298TIP3    H130873   3.370   4.182   9.016
 2298TIP3    H230874   3.493   4.148   8.938
 2299TIP3   OH230875   3.323   4.529   8.433
 2299TIP3    H130876   3.242   4.483   8.402
 2299TIP3    H230877   3.372   4.460   8.481
 2300TIP3   OH230878   2.266   5.121   7.688
 2300TIP3    H130879   2.325   5.186   7.728
 2300TIP3    H230880   2.320   5.093   7.615
 2301TIP3   OH230881   2.101   4.384   7.613
 2301TIP3    H130882   2.099   4.480   7.618
 2301TIP3    H230883   2.019   4.362   7.565
 2302TIP3   OH230884   3.431   5.456   8.597
 2302TIP3    H130885   3.423   5.523   8.526
 2302TIP3    H230886   3.527   5.460   8.614
 2303TIP3   OH230887   2.180   3.866   8.478
 2303TIP3    H130888   2.161   3.868   8.382
 2303TIP3    H230889   2.139   3.781   8.503
 2304TIP3   OH230890   2.071   5.263   8.093
 2304TIP3    H130891   1.986   5.306   8.087
 2304TIP3    H230892   2.121   5.305   8.022
 2305TIP3   OH230893   1.995   5.524   9.220
 2305TIP3    H130894   2.056   5.505   9.294
 2305TIP3    H230895   1.956   5.437   9.202
 2306TIP3   OH230896   2.464   5.415   9.381
 2306TIP3    H130897   2.540   5.365   9.414
 2306TIP3    H230898   2.461   5.387   9.287
 2307TIP3   OH230899   3.113   5.254   9.256
 2307TIP3    H130900   3.082   5.166   9.284
 2307TIP3    H230901   3.191   5.266   9.315
 2308TIP3   OH230902   1.985   4.901   9.320
 2308TIP3    H130903   2.002   4.809   9.290
 2308TIP3    H230904   1.912   4.926   9.262
 2309TIP3   OH230905   2.658   4.900   9.258
 2309TIP3    H130906   2.625   4.932   9.172
 2309TIP3    H230907   2.664   4.802   9.247
 2310TIP3   OH230908   3.227   4.885   8.998
 2310TIP3    H130909   3.307   4.943   8.993
 2310TIP3    H230910   3.158   4.953   9.001
 2311TIP3   OH230911   2.079   4.624   9.258
 2311TIP3    H130912   2.121   4.537   9.249
 2311TIP3    H230913   2.056   4.625   9.352
 2312TIP3   OH230914   2.538   4.737   7.761
 2312TIP3    H130915   2.497   4.682   7.829
 2312TIP3    H230916   2.573   4.670   7.699
 2313TIP3   OH230917   2.468   4.517   8.993
 2313TIP3    H130918   2.409   4.590   9.018
 2313TIP3    H230919   2.509   4.555   8.913
 2314TIP3   OH230920   2.977   4.775   9.328
 2314TIP3    H130921   3.072   4.773   9.313
 2314TIP3    H230922   2.959   4.698   9.384
 2315TIP3   OH230923   3.573   4.789   7.527
 2315TIP3    H130924   3.566   4.749   7.440
 2315TIP3    H230925   3.594   4.881   7.507
 2316TIP3   OH230926   2.510   4.255   9.098
 2316TIP3    H130927   2.521   4.185   9.031
 2316TIP3    H230928   2.505   4.337   9.044
 2317TIP3   OH230929   2.550   4.094   8.855
 2317TIP3    H130930   2.601   4.140   8.784
 2317TIP3    H230931   2.461   4.086   8.815
 2318TIP3   OH230932   2.703   4.644   8.879
 2318TIP3    H130933   2.779   4.627   8.822
 2318TIP3    H230934   2.667   4.727   8.844
 2319TIP3   OH230935   3.143   4.417   9.374
 2319TIP3    H130936   3.167   4.324   9.365
 2319TIP3    H230937   3.229   4.462   9.378
 2320TIP3   OH230938   3.278   4.698   9.192
 2320TIP3    H130939   3.252   4.769   9.130
 2320TIP3    H230940   3.374   4.694   9.173
 2321TIP3   OH230941   2.356   4.381   9.291
 2321TIP3    H130942   2.279   4.323   9.274
 2321TIP3    H230943   2.421   4.344   9.228
 2322TIP3   OH230944   2.629   3.837   8.892
 2322TIP3    H130945   2.609   3.934   8.883
 2322TIP3    H230946   2.554   3.800   8.842
 2323TIP3   OH230947   2.756   4.270   9.257
 2323TIP3    H130948   2.723   4.247   9.346
 2323TIP3    H230949   2.678   4.250   9.202
 2324TIP3   OH230950   3.028   4.185   9.167
 2324TIP3    H130951   2.932   4.191   9.177
 2324TIP3    H230952   3.054   4.121   9.236
 2325TIP3   OH230953   3.185   4.047   9.354
 2325TIP3    H130954   3.182   3.949   9.358
 2325TIP3    H230955   3.162   4.076   9.444
 2326TIP3   OH230956   2.163   4.175   9.267
 2326TIP3    H130957   2.187   4.101   9.209
 2326TIP3    H230958   2.153   4.131   9.354
 2327TIP3   OH230959   2.650   3.778   9.163
 2327TIP3    H130960   2.718   3.707   9.162
 2327TIP3    H230961   2.638   3.790   9.067
 2328TIP3   OH230962   2.686   3.938   9.376
 2328TIP3    H130963   2.669   3.887   9.293
 2328TIP3    H230964   2.627   4.015   9.366
 2329TIP3   OH230965   1.993   5.078   7.644
 2329TIP3    H130966   2.086   5.102   7.659
 2329TIP3    H230967   1.991   5.028   7.562
 2330TIP3   OH230968   1.863   5.624   8.135
 2330TIP3    H130969   1.793   5.575   8.088
 2330TIP3    H230970   1.896   5.561   8.202
 2331TIP3   OH230971   1.943   5.439   8.324
 2331TIP3    H130972   1.918   5.348   8.347
 2331TIP3    H230973   1.975   5.472   8.411
 2332TIP3   OH230974   3.703   5.519   8.616
 2332TIP3    H130975   3.706   5.534   8.712
 2332TIP3    H230976   3.773   5.578   8.586
 2333TIP3   OH230977   3.660   5.478   8.911
 2333TIP3    H130978   3.613   5.401   8.872
 2333TIP3    H230979   3.707   5.433   8.982
 2334TIP3   OH230980   3.504   5.050   9.379
 2334TIP3    H130981   3.414   5.048   9.414
 2334TIP3    H230982   3.542   5.131   9.419
 2335TIP3   OH230983   3.637   4.879   7.921
 2335TIP3    H130984   3.723   4.921   7.942
 2335TIP3    H230985   3.636   4.809   7.989
 2336TIP3   OH230986   3.672   4.691   8.110
 2336TIP3    H130987   3.598   4.639   8.147
 2336TIP3    H230988   3.733   4.701   8.186
 2337TIP3   OH230989   3.648   4.960   8.609
 2337TIP3    H130990   3.728   4.922   8.570
 2337TIP3    H230991   3.662   5.055   8.592
 2338TIP3   OH230992   3.504   5.251   8.835
 2338TIP3    H130993   3.435   5.286   8.894
 2338TIP3    H230994   3.449   5.211   8.764
 2339TIP3   OH230995   3.709   4.681   7.746
 2339TIP3    H130996   3.646   4.708   7.676
 2339TIP3    H230997   3.689   4.744   7.817
 2340TIP3   OH230998   3.451   4.544   8.168
 2340TIP3    H130999   3.438   4.448   8.159
 2340TIP3    H231000   3.420   4.560   8.259
 2341TIP3   OH231001   1.955   4.747   8.573
 2341TIP3    H131002   1.972   4.739   8.477
 2341TIP3    H231003   2.044   4.728   8.608
 2342TIP3   OH231004   3.541   4.735   9.137
 2342TIP3    H131005   3.602   4.659   9.149
 2342TIP3    H231006   3.601   4.812   9.137
 2343TIP3   OH231007   3.690   4.522   9.201
 2343TIP3    H131008   3.602   4.483   9.186
 2343TIP3    H231009   3.747   4.444   9.194
 2344TIP3   OH231010   3.423   4.298   8.019
 2344TIP3    H131011   3.448   4.203   8.018
 2344TIP3    H231012   3.501   4.331   7.971
 2345TIP3   OH231013   3.487   4.345   8.556
 2345TIP3    H131014   3.580   4.376   8.556
 2345TIP3    H231015   3.465   4.363   8.649
 2346TIP3   OH231016   3.491   4.423   8.835
 2346TIP3    H131017   3.403   4.452   8.866
 2346TIP3    H231018   3.535   4.509   8.813
 2347TIP3   OH231019   1.917   4.278   9.190
 2347TIP3    H131020   2.011   4.255   9.208
 2347TIP3    H231021   1.871   4.195   9.215
 2348TIP3   OH231022   3.719   3.830   9.368
 2348TIP3    H131023   3.754   3.764   9.307
 2348TIP3    H231024   3.728   3.911   9.314
 2349TIP3   OH231025   3.476   4.029   8.026
 2349TIP3    H131026   3.501   3.973   8.099
 2349TIP3    H231027   3.428   3.965   7.967
 2350TIP3   OH231028   2.037   4.106   8.474
 2350TIP3    H131029   2.082   4.023   8.498
 2350TIP3    H231030   2.093   4.175   8.512
 2351TIP3   OH231031   1.865   4.407   8.577
 2351TIP3    H131032   1.921   4.381   8.501
 2351TIP3    H231033   1.913   4.487   8.604
 2352TIP3   OH231034   3.671   4.040   9.204
 2352TIP3    H131035   3.577   4.067   9.199
 2352TIP3    H231036   3.673   3.984   9.125
 2353TIP3   OH231037   1.900   4.037   7.988
 2353TIP3    H131038   1.806   4.050   7.970
 2353TIP3    H231039   1.942   4.076   7.910
 2354TIP3   OH231040   3.375   5.527   8.178
 2354TIP3    H131041   3.443   5.497   8.117
 2354TIP3    H231042   3.426   5.577   8.243
 2355TIP3   OH231043   1.896   3.897   8.813
 2355TIP3    H131044   1.829   3.878   8.881
 2355TIP3    H231045   1.850   3.964   8.759
 2356TIP3   OH231046   2.121   5.216   9.229
 2356TIP3    H131047   2.037   5.239   9.186
 2356TIP3    H231048   2.094   5.209   9.321
 2357TIP3   OH231049   2.409   5.319   8.857
 2357TIP3    H131050   2.379   5.407   8.831
 2357TIP3    H231051   2.502   5.327   8.827
 2358TIP3   OH231052   2.843   5.460   9.148
 2358TIP3    H131053   2.856   5.425   9.239
 2358TIP3    H231054   2.933   5.491   9.125
 2359TIP3   OH231055   3.070   5.587   9.079
 2359TIP3    H131056   3.144   5.530   9.056
 2359TIP3    H231057   3.107   5.631   9.159
 2360TIP3   OH231058   3.574   3.849   8.987
 2360TIP3    H131059   3.489   3.877   8.951
 2360TIP3    H231060   3.589   3.764   8.939
 2361TIP3   OH231061   2.150   5.638   8.858
 2361TIP3    H131062   2.081   5.693   8.817
 2361TIP3    H231063   2.120   5.624   8.948
 2362TIP3   OH231064   2.394   5.583   8.776
 2362TIP3    H131065   2.306   5.616   8.806
 2362TIP3    H231066   2.402   5.645   8.698
 2363TIP3   OH231067   2.870   5.591   8.681
 2363TIP3    H131068   2.822   5.647   8.617
 2363TIP3    H231069   2.884   5.654   8.756
 2364TIP3   OH231070   3.097   5.470   8.786
 2364TIP3    H131071   3.014   5.499   8.747
 2364TIP3    H231072   3.148   5.552   8.776
 2365TIP3   OH231073   3.356   5.627   8.806
 2365TIP3    H131074   3.353   5.723   8.783
 2365TIP3    H231075   3.379   5.590   8.718
 2366TIP3   OH231076   2.095   5.500   8.550
 2366TIP3    H131077   2.091   5.458   8.638
 2366TIP3    H231078   2.181   5.471   8.514
 2367TIP3   OH231079   2.307   5.377   8.415
 2367TIP3    H131080   2.291   5.284   8.441
 2367TIP3    H231081   2.391   5.396   8.462
 2368TIP3   OH231082   2.568   5.423   8.505
 2368TIP3    H131083   2.582   5.331   8.479
 2368TIP3    H231084   2.570   5.416   8.602
 2369TIP3   OH231085   2.910   3.992   8.419
 2369TIP3    H131086   2.843   3.927   8.447
 2369TIP3    H231087   2.966   3.938   8.361
 2370TIP3   OH231088   2.148   3.853   8.206
 2370TIP3    H131089   2.069   3.835   8.152
 2370TIP3    H231090   2.194   3.767   8.196
 2371TIP3   OH231091   2.594   3.845   8.182
 2371TIP3    H131092   2.684   3.881   8.173
 2371TIP3    H231093   2.593   3.823   8.275
 2372TIP3   OH231094   3.167   3.848   8.345
 2372TIP3    H131095   3.162   3.858   8.249
 2372TIP3    H231096   3.131   3.757   8.357
 2373TIP3   OH231097   3.292   3.852   7.922
 2373TIP3    H131098   3.221   3.911   7.895
 2373TIP3    H231099   3.249   3.763   7.932
 2374TIP3   OH231100   2.018   5.430   7.875
 2374TIP3    H131101   1.954   5.421   7.803
 2374TIP3    H231102   2.015   5.524   7.894
 2375TIP3   OH231103   2.710   4.049   7.865
 2375TIP3    H131104   2.735   3.990   7.938
 2375TIP3    H231105   2.722   4.135   7.912
 2376TIP3   OH231106   2.902   5.558   7.706
 2376TIP3    H131107   2.996   5.581   7.695
 2376TIP3    H231108   2.892   5.505   7.626
 2377TIP3   OH231109   3.582   5.508   7.972
 2377TIP3    H131110   3.548   5.428   7.925
 2377TIP3    H231111   3.556   5.583   7.918
 2378TIP3   OH231112   2.137   3.908   9.148
 2378TIP3    H131113   2.097   3.828   9.187
 2378TIP3    H231114   2.227   3.903   9.187
 2379TIP3   OH231115   2.337   3.847   9.314
 2379TIP3    H131116   2.426   3.813   9.292
 2379TIP3    H231117   2.300   3.766   9.353
 2380TIP3   OH231118   2.213   5.528   7.573
 2380TIP3    H131119   2.169   5.552   7.656
 2380TIP3    H231120   2.275   5.460   7.594
 2381TIP3   OH231121   3.177   3.774   9.328
 2381TIP3    H131122   3.187   3.727   9.413
 2381TIP3    H231123   3.269   3.771   9.294
 2382TIP3   OH231124   3.498   5.380   9.190
 2382TIP3    H131125   3.418   5.367   9.135
 2382TIP3    H231126   3.487   5.475   9.212
 2383TIP3   OH231127   4.945   4.769   8.186
 2383TIP3    H131128   4.941   4.867   8.185
 2383TIP3    H231129   4.870   4.745   8.129
 2384TIP3   OH231130   4.829   4.692   8.538
 2384TIP3    H131131   4.827   4.628   8.611
 2384TIP3    H231132   4.792   4.641   8.464
 2385TIP3   OH231133   4.063   4.661   8.694
 2385TIP3    H131134   4.072   4.592   8.762
 2385TIP3    H231135   4.139   4.718   8.717
 2386TIP3   OH231136   5.200   4.984   8.368
 2386TIP3    H131137   5.153   4.917   8.418
 2386TIP3    H231138   5.201   5.057   8.433
 2387TIP3   OH231139   4.156   5.106   8.542
 2387TIP3    H131140   4.126   5.018   8.512
 2387TIP3    H231141   4.251   5.088   8.547
 2388TIP3   OH231142   3.890   4.680   8.307
 2388TIP3    H131143   3.921   4.601   8.353
 2388TIP3    H231144   3.961   4.698   8.243
 2389TIP3   OH231145   4.908   5.504   8.391
 2389TIP3    H131146   4.974   5.436   8.362
 2389TIP3    H231147   4.886   5.469   8.477
 2390TIP3   OH231148   4.666   4.932   8.587
 2390TIP3    H131149   4.699   4.870   8.520
 2390TIP3    H231150   4.748   4.948   8.637
 2391TIP3   OH231151   5.523   4.102   8.656
 2391TIP3    H131152   5.543   4.156   8.736
 2391TIP3    H231153   5.585   4.139   8.592
 2392TIP3   OH231154   4.983   4.380   8.618
 2392TIP3    H131155   5.000   4.284   8.619
 2392TIP3    H231156   4.973   4.393   8.522
 2393TIP3   OH231157   4.293   4.190   8.338
 2393TIP3    H131158   4.310   4.272   8.289
 2393TIP3    H231159   4.260   4.131   8.267
 2394TIP3   OH231160   5.066   4.194   8.176
 2394TIP3    H131161   5.131   4.163   8.243
 2394TIP3    H231162   5.122   4.253   8.123
 2395TIP3   OH231163   3.955   4.433   8.414
 2395TIP3    H131164   4.022   4.380   8.462
 2395TIP3    H231165   3.969   4.399   8.325
 2396TIP3   OH231166   4.471   4.585   8.345
 2396TIP3    H131167   4.540   4.527   8.384
 2396TIP3    H231168   4.421   4.520   8.292
 2397TIP3   OH231169   5.569   4.238   8.886
 2397TIP3    H131170   5.510   4.316   8.874
 2397TIP3    H231171   5.572   4.233   8.982
 2398TIP3   OH231172   4.186   4.079   8.743
 2398TIP3    H131173   4.159   4.138   8.670
 2398TIP3    H231174   4.118   4.101   8.811
 2399TIP3   OH231175   4.913   5.026   8.097
 2399TIP3    H131176   4.883   4.999   8.009
 2399TIP3    H231177   4.884   5.120   8.103
 2400TIP3   OH231178   4.436   4.843   8.766
 2400TIP3    H131179   4.366   4.907   8.789
 2400TIP3    H231180   4.507   4.903   8.737
 2401TIP3   OH231181   5.251   4.134   8.375
 2401TIP3    H131182   5.227   4.056   8.426
 2401TIP3    H231183   5.317   4.174   8.433
 2402TIP3   OH231184   4.140   4.264   8.541
 2402TIP3    H131185   4.203   4.331   8.576
 2402TIP3    H231186   4.196   4.222   8.471
 2403TIP3   OH231187   4.281   5.044   8.848
 2403TIP3    H131188   4.276   5.135   8.815
 2403TIP3    H231189   4.193   5.036   8.892
 2404TIP3   OH231190   3.886   5.004   7.930
 2404TIP3    H131191   3.868   5.035   7.840
 2404TIP3    H231192   3.898   5.086   7.982
 2405TIP3   OH231193   5.250   5.172   8.604
 2405TIP3    H131194   5.153   5.183   8.616
 2405TIP3    H231195   5.276   5.263   8.583
 2406TIP3   OH231196   5.282   3.999   8.743
 2406TIP3    H131197   5.210   4.063   8.732
 2406TIP3    H231198   5.354   4.041   8.691
 2407TIP3   OH231199   4.579   3.812   8.489
 2407TIP3    H131200   4.562   3.716   8.481
 2407TIP3    H231201   4.492   3.844   8.522
 2408TIP3   OH231202   5.077   5.350   8.266
 2408TIP3    H131203   5.118   5.278   8.212
 2408TIP3    H231204   5.121   5.428   8.225
 2409TIP3   OH231205   5.199   5.142   8.114
 2409TIP3    H131206   5.168   5.072   8.054
 2409TIP3    H231207   5.202   5.094   8.198
 2410TIP3   OH231208   5.357   5.003   8.963
 2410TIP3    H131209   5.373   4.937   8.893
 2410TIP3    H231210   5.379   5.087   8.919
 2411TIP3   OH231211   4.810   4.693   7.942
 2411TIP3    H131212   4.738   4.747   7.902
 2411TIP3    H231213   4.879   4.701   7.873
 2412TIP3   OH231214   4.814   4.542   7.648
 2412TIP3    H131215   4.890   4.547   7.707
 2412TIP3    H231216   4.845   4.479   7.581
 2413TIP3   OH231217   5.546   4.632   8.763
 2413TIP3    H131218   5.482   4.707   8.772
 2413TIP3    H231219   5.600   4.661   8.689
 2414TIP3   OH231220   5.157   4.709   8.032
 2414TIP3    H131221   5.081   4.737   8.090
 2414TIP3    H231222   5.199   4.643   8.088
 2415TIP3   OH231223   5.147   4.529   8.945
 2415TIP3    H131224   5.147   4.611   8.997
 2415TIP3    H231225   5.084   4.557   8.876
 2416TIP3   OH231226   4.314   4.778   8.225
 2416TIP3    H131227   4.284   4.742   8.138
 2416TIP3    H231228   4.376   4.709   8.257
 2417TIP3   OH231229   4.446   5.115   8.492
 2417TIP3    H131230   4.446   5.064   8.410
 2417TIP3    H231231   4.525   5.081   8.537
 2418TIP3   OH231232   4.347   4.653   8.591
 2418TIP3    H131233   4.401   4.662   8.510
 2418TIP3    H231234   4.387   4.719   8.651
 2419TIP3   OH231235   4.991   5.211   8.662
 2419TIP3    H131236   4.960   5.275   8.726
 2419TIP3    H231237   4.964   5.126   8.703
 2420TIP3   OH231238   4.443   5.096   9.060
 2420TIP3    H131239   4.400   5.169   9.109
 2420TIP3    H231240   4.376   5.076   8.990
 2421TIP3   OH231241   5.045   4.628   7.800
 2421TIP3    H131242   5.095   4.654   7.881
 2421TIP3    H231243   5.081   4.685   7.730
 2422TIP3   OH231244   4.138   4.712   8.974
 2422TIP3    H131245   4.143   4.778   9.045
 2422TIP3    H231246   4.043   4.720   8.954
 2423TIP3   OH231247   4.814   5.304   8.145
 2423TIP3    H131248   4.856   5.335   8.227
 2423TIP3    H231249   4.757   5.379   8.123
 2424TIP3   OH231250   4.268   5.299   9.134
 2424TIP3    H131251   4.261   5.290   9.038
 2424TIP3    H231252   4.175   5.285   9.162
 2425TIP3   OH231253   5.411   3.803   7.791
 2425TIP3    H131254   5.318   3.821   7.814
 2425TIP3    H231255   5.430   3.886   7.743
 2426TIP3   OH231256   4.212   4.683   7.990
 2426TIP3    H131257   4.184   4.759   7.934
 2426TIP3    H231258   4.149   4.617   7.962
 2427TIP3   OH231259   3.820   4.923   8.877
 2427TIP3    H131260   3.776   4.915   8.790
 2427TIP3    H231261   3.830   4.829   8.898
 2428TIP3   OH231262   3.796   5.198   8.552
 2428TIP3    H131263   3.892   5.186   8.551
 2428TIP3    H231264   3.788   5.279   8.603
 2429TIP3   OH231265   5.620   5.267   9.123
 2429TIP3    H131266   5.608   5.172   9.120
 2429TIP3    H231267   5.533   5.293   9.160
 2430TIP3   OH231268   4.716   5.221   9.008
 2430TIP3    H131269   4.722   5.305   9.059
 2430TIP3    H231270   4.629   5.185   9.033
 2431TIP3   OH231271   4.761   5.596   7.986
 2431TIP3    H131272   4.749   5.594   7.892
 2431TIP3    H231273   4.763   5.691   8.008
 2432TIP3   OH231274   4.124   5.483   8.171
 2432TIP3    H131275   4.140   5.442   8.260
 2432TIP3    H231276   4.039   5.443   8.150
 2433TIP3   OH231277   5.051   5.496   7.693
 2433TIP3    H131278   5.123   5.449   7.647
 2433TIP3    H231279   5.078   5.492   7.786
 2434TIP3   OH231280   5.032   5.513   7.968
 2434TIP3    H131281   4.937   5.518   7.989
 2434TIP3    H231282   5.061   5.437   8.020
 2435TIP3   OH231283   5.335   4.414   9.169
 2435TIP3    H131284   5.287   4.458   9.097
 2435TIP3    H231285   5.333   4.321   9.140
 2436TIP3   OH231286   4.050   5.055   8.970
 2436TIP3    H131287   4.071   5.019   9.058
 2436TIP3    H231288   3.962   5.015   8.948
 2437TIP3   OH231289   4.318   3.903   8.562
 2437TIP3    H131290   4.227   3.889   8.528
 2437TIP3    H231291   4.304   3.984   8.613
 2438TIP3   OH231292   4.782   3.868   8.900
 2438TIP3    H131293   4.821   3.825   8.978
 2438TIP3    H231294   4.685   3.858   8.914
 2439TIP3   OH231295   5.110   4.255   8.991
 2439TIP3    H131296   5.053   4.232   9.068
 2439TIP3    H231297   5.092   4.347   8.968
 2440TIP3   OH231298   4.752   4.124   7.640
 2440TIP3    H131299   4.713   4.117   7.728
 2440TIP3    H231300   4.718   4.041   7.601
 2441TIP3   OH231301   4.328   4.400   8.691
 2441TIP3    H131302   4.253   4.400   8.755
 2441TIP3    H231303   4.323   4.490   8.653
 2442TIP3   OH231304   4.327   4.411   8.177
 2442TIP3    H131305   4.233   4.390   8.162
 2442TIP3    H231306   4.364   4.382   8.091
 2443TIP3   OH231307   4.876   4.461   8.052
 2443TIP3    H131308   4.836   4.544   8.018
 2443TIP3    H231309   4.944   4.443   7.985
 2444TIP3   OH231310   4.780   4.483   9.196
 2444TIP3    H131311   4.729   4.405   9.227
 2444TIP3    H231312   4.864   4.472   9.244
 2445TIP3   OH231313   4.985   4.413   8.338
 2445TIP3    H131314   4.951   4.468   8.265
 2445TIP3    H231315   4.989   4.327   8.292
 2446TIP3   OH231316   4.089   4.423   8.857
 2446TIP3    H131317   4.100   4.465   8.944
 2446TIP3    H231318   4.046   4.340   8.879
 2447TIP3   OH231319   4.898   4.569   8.792
 2447TIP3    H131320   4.937   4.500   8.734
 2447TIP3    H231321   4.851   4.516   8.859
 2448TIP3   OH231322   4.581   4.168   8.276
 2448TIP3    H131323   4.488   4.168   8.305
 2448TIP3    H231324   4.628   4.149   8.358
 2449TIP3   OH231325   4.057   4.324   8.161
 2449TIP3    H131326   3.969   4.330   8.122
 2449TIP3    H231327   4.089   4.239   8.126
 2450TIP3   OH231328   4.421   4.334   7.932
 2450TIP3    H131329   4.518   4.335   7.940
 2450TIP3    H231330   4.400   4.393   7.857
 2451TIP3   OH231331   5.020   4.091   8.600
 2451TIP3    H131332   4.952   4.095   8.671
 2451TIP3    H231333   4.969   4.064   8.523
 2452TIP3   OH231334   4.291   4.447   7.684
 2452TIP3    H131335   4.242   4.407   7.613
 2452TIP3    H231336   4.376   4.467   7.641
 2453TIP3   OH231337   5.339   5.654   9.233
 2453TIP3    H131338   5.366   5.693   9.148
 2453TIP3    H231339   5.411   5.687   9.289
 2454TIP3   OH231340   4.107   4.902   9.191
 2454TIP3    H131341   4.179   4.926   9.251
 2454TIP3    H231342   4.030   4.908   9.251
 2455TIP3   OH231343   4.707   4.443   8.466
 2455TIP3    H131344   4.766   4.389   8.413
 2455TIP3    H231345   4.692   4.388   8.544
 2456TIP3   OH231346   4.203   4.054   8.114
 2456TIP3    H131347   4.180   3.961   8.105
 2456TIP3    H231348   4.281   4.054   8.057
 2457TIP3   OH231349   4.571   4.275   8.707
 2457TIP3    H131350   4.489   4.327   8.716
 2457TIP3    H231351   4.627   4.311   8.779
 2458TIP3   OH231352   4.630   4.896   7.877
 2458TIP3    H131353   4.550   4.851   7.842
 2458TIP3    H231354   4.606   4.912   7.970
 2459TIP3   OH231355   5.352   4.815   8.755
 2459TIP3    H131356   5.405   4.869   8.693
 2459TIP3    H231357   5.263   4.823   8.714
 2460TIP3   OH231358   5.018   4.187   7.696
 2460TIP3    H131359   4.921   4.189   7.677
 2460TIP3    H231360   5.041   4.269   7.740
 2461TIP3   OH231361   4.779   4.926   9.002
 2461TIP3    H131362   4.744   4.882   9.080
 2461TIP3    H231363   4.752   5.018   9.013
 2462TIP3   OH231364   5.088   4.372   7.863
 2462TIP3    H131365   5.177   4.356   7.899
 2462TIP3    H231366   5.095   4.454   7.812
 2463TIP3   OH231367   4.143   4.839   8.458
 2463TIP3    H131368   4.207   4.828   8.385
 2463TIP3    H231369   4.148   4.753   8.504
 2464TIP3   OH231370   4.841   5.048   7.780
 2464TIP3    H131371   4.803   5.128   7.822
 2464TIP3    H231372   4.770   4.983   7.801
 2465TIP3   OH231373   3.840   4.677   8.983
 2465TIP3    H131374   3.856   4.632   9.069
 2465TIP3    H231375   3.777   4.617   8.939
 2466TIP3   OH231376   4.541   4.634   9.200
 2466TIP3    H131377   4.509   4.601   9.115
 2466TIP3    H231378   4.633   4.600   9.200
 2467TIP3   OH231379   5.011   5.167   8.997
 2467TIP3    H131380   4.918   5.185   8.973
 2467TIP3    H231381   5.007   5.197   9.090
 2468TIP3   OH231382   5.577   4.385   7.833
 2468TIP3    H131383   5.517   4.350   7.766
 2468TIP3    H231384   5.582   4.480   7.813
 2469TIP3   OH231385   5.575   4.971   9.115
 2469TIP3    H131386   5.486   4.993   9.079
 2469TIP3    H231387   5.629   4.966   9.034
 2470TIP3   OH231388   5.409   5.269   7.874
 2470TIP3    H131389   5.368   5.188   7.906
 2470TIP3    H231390   5.431   5.251   7.782
 2471TIP3   OH231391   5.127   4.749   8.584
 2471TIP3    H131392   5.032   4.730   8.575
 2471TIP3    H231393   5.168   4.672   8.542
 2472TIP3   OH231394   4.379   5.183   8.196
 2472TIP3    H131395   4.428   5.264   8.175
 2472TIP3    H231396   4.291   5.205   8.163
 2473TIP3   OH231397   3.961   4.665   7.652
 2473TIP3    H131398   4.014   4.737   7.688
 2473TIP3    H231399   3.870   4.692   7.676
 2474TIP3   OH231400   4.519   4.949   8.147
 2474TIP3    H131401   4.487   5.041   8.156
 2474TIP3    H231402   4.448   4.899   8.192
 2475TIP3   OH231403   4.564   5.368   8.790
 2475TIP3    H131404   4.611   5.447   8.760
 2475TIP3    H231405   4.626   5.333   8.856
 2476TIP3   OH231406   4.388   5.449   8.096
 2476TIP3    H131407   4.292   5.460   8.115
 2476TIP3    H231408   4.424   5.531   8.136
 2477TIP3   OH231409   4.915   4.966   8.750
 2477TIP3    H131410   4.885   4.948   8.841
 2477TIP3    H231411   4.980   4.896   8.733
 2478TIP3   OH231412   5.138   5.073   7.657
 2478TIP3    H131413   5.182   5.031   7.734
 2478TIP3    H231414   5.049   5.051   7.681
 2479TIP3   OH231415   5.200   5.425   8.999
 2479TIP3    H131416   5.130   5.376   8.952
 2479TIP3    H231417   5.217   5.495   8.932
 2480TIP3   OH231418   4.005   4.150   8.938
 2480TIP3    H131419   3.915   4.186   8.937
 2480TIP3    H231420   3.994   4.066   8.984
 2481TIP3   OH231421   5.228   4.941   7.889
 2481TIP3    H131422   5.202   4.858   7.934
 2481TIP3    H231423   5.325   4.939   7.900
 2482TIP3   OH231424   3.966   5.328   8.780
 2482TIP3    H131425   3.998   5.237   8.781
 2482TIP3    H231426   3.992   5.358   8.868
 2483TIP3   OH231427   4.443   5.138   7.752
 2483TIP3    H131428   4.465   5.082   7.828
 2483TIP3    H231429   4.448   5.229   7.787
 2484TIP3   OH231430   4.099   4.857   7.811
 2484TIP3    H131431   4.023   4.898   7.856
 2484TIP3    H231432   4.144   4.935   7.772
 2485TIP3   OH231433   4.878   4.128   8.836
 2485TIP3    H131434   4.950   4.134   8.900
 2485TIP3    H231435   4.840   4.041   8.857
 2486TIP3   OH231436   4.950   4.091   7.950
 2486TIP3    H131437   4.973   4.127   7.862
 2486TIP3    H231438   5.014   4.134   8.008
 2487TIP3   OH231439   4.723   5.302   7.818
 2487TIP3    H131440   4.639   5.350   7.834
 2487TIP3    H231441   4.776   5.359   7.765
 2488TIP3   OH231442   4.674   4.260   8.024
 2488TIP3    H131443   4.752   4.319   8.029
 2488TIP3    H231444   4.648   4.246   8.117
 2489TIP3   OH231445   4.731   4.363   8.945
 2489TIP3    H131446   4.738   4.418   9.025
 2489TIP3    H231447   4.798   4.293   8.954
 2490TIP3   OH231448   4.759   3.965   8.113
 2490TIP3    H131449   4.727   4.030   8.178
 2490TIP3    H231450   4.829   4.021   8.068
 2491TIP3   OH231451   4.463   5.410   7.830
 2491TIP3    H131452   4.470   5.488   7.773
 2491TIP3    H231453   4.432   5.442   7.918
 2492TIP3   OH231454   5.349   4.150   9.028
 2492TIP3    H131455   5.256   4.181   9.016
 2492TIP3    H231456   5.379   4.147   8.936
 2493TIP3   OH231457   5.212   4.528   8.428
 2493TIP3    H131458   5.126   4.485   8.404
 2493TIP3    H231459   5.255   4.458   8.483
 2494TIP3   OH231460   4.154   5.116   7.698
 2494TIP3    H131461   4.218   5.185   7.717
 2494TIP3    H231462   4.198   5.078   7.618
 2495TIP3   OH231463   5.316   5.455   8.596
 2495TIP3    H131464   5.308   5.523   8.526
 2495TIP3    H231465   5.413   5.460   8.614
 2496TIP3   OH231466   4.061   3.872   8.472
 2496TIP3    H131467   4.044   3.860   8.378
 2496TIP3    H231468   4.027   3.785   8.506
 2497TIP3   OH231469   3.957   5.256   8.083
 2497TIP3    H131470   3.875   5.306   8.091
 2497TIP3    H231471   4.014   5.306   8.025
 2498TIP3   OH231472   3.880   5.524   9.220
 2498TIP3    H131473   3.941   5.505   9.294
 2498TIP3    H231474   3.842   5.436   9.202
 2499TIP3   OH231475   4.350   5.416   9.380
 2499TIP3    H131476   4.425   5.366   9.414
 2499TIP3    H231477   4.347   5.387   9.287
 2500TIP3   OH231478   4.999   5.254   9.256
 2500TIP3    H131479   4.968   5.166   9.284
 2500TIP3    H231480   5.076   5.266   9.315
 2501TIP3   OH231481   3.871   4.901   9.320
 2501TIP3    H131482   3.888   4.809   9.290
 2501TIP3    H231483   3.798   4.926   9.262
 2502TIP3   OH231484   4.312   4.931   7.526
 2502TIP3    H131485   4.324   4.854   7.583
 2502TIP3    H231486   4.377   4.922   7.457
 2503TIP3   OH231487   4.544   4.900   9.258
 2503TIP3    H131488   4.511   4.932   9.172
 2503TIP3    H231489   4.550   4.802   9.247
 2504TIP3   OH231490   5.113   4.885   8.998
 2504TIP3    H131491   5.193   4.943   8.993
 2504TIP3    H231492   5.044   4.953   9.001
 2505TIP3   OH231493   3.965   4.624   9.258
 2505TIP3    H131494   4.007   4.537   9.249
 2505TIP3    H231495   3.942   4.625   9.352
 2506TIP3   OH231496   4.433   4.739   7.765
 2506TIP3    H131497   4.380   4.687   7.828
 2506TIP3    H231498   4.459   4.670   7.699
 2507TIP3   OH231499   4.354   4.518   8.993
 2507TIP3    H131500   4.296   4.591   9.020
 2507TIP3    H231501   4.394   4.555   8.913
 2508TIP3   OH231502   4.538   4.562   7.585
 2508TIP3    H131503   4.518   4.546   7.492
 2508TIP3    H231504   4.636   4.563   7.591
 2509TIP3   OH231505   4.862   4.775   9.328
 2509TIP3    H131506   4.958   4.773   9.313
 2509TIP3    H231507   4.845   4.698   9.384
 2510TIP3   OH231508   4.395   4.255   9.098
 2510TIP3    H131509   4.407   4.185   9.031
 2510TIP3    H231510   4.390   4.337   9.044
 2511TIP3   OH231511   4.436   4.094   8.854
 2511TIP3    H131512   4.487   4.140   8.783
 2511TIP3    H231513   4.346   4.086   8.814
 2512TIP3   OH231514   4.589   4.644   8.878
 2512TIP3    H131515   4.664   4.627   8.821
 2512TIP3    H231516   4.552   4.727   8.844
 2513TIP3   OH231517   5.028   4.417   9.374
 2513TIP3    H131518   5.052   4.324   9.365
 2513TIP3    H231519   5.115   4.462   9.378
 2514TIP3   OH231520   5.163   4.698   9.192
 2514TIP3    H131521   5.138   4.769   9.130
 2514TIP3    H231522   5.259   4.694   9.173
 2515TIP3   OH231523   4.241   4.381   9.291
 2515TIP3    H131524   4.164   4.323   9.274
 2515TIP3    H231525   4.306   4.344   9.228
 2516TIP3   OH231526   4.515   3.837   8.892
 2516TIP3    H131527   4.496   3.934   8.884
 2516TIP3    H231528   4.440   3.799   8.843
 2517TIP3   OH231529   4.641   4.270   9.257
 2517TIP3    H131530   4.609   4.247   9.346
 2517TIP3    H231531   4.564   4.250   9.202
 2518TIP3   OH231532   4.914   4.185   9.167
 2518TIP3    H131533   4.817   4.191   9.177
 2518TIP3    H231534   4.939   4.121   9.236
 2519TIP3   OH231535   5.071   4.047   9.354
 2519TIP3    H131536   5.067   3.949   9.358
 2519TIP3    H231537   5.048   4.076   9.444
 2520TIP3   OH231538   4.049   4.175   9.267
 2520TIP3    H131539   4.073   4.101   9.209
 2520TIP3    H231540   4.039   4.131   9.354
 2521TIP3   OH231541   4.536   3.778   9.163
 2521TIP3    H131542   4.603   3.707   9.162
 2521TIP3    H231543   4.524   3.790   9.067
 2522TIP3   OH231544   4.572   3.938   9.376
 2522TIP3    H131545   4.554   3.887   9.293
 2522TIP3    H231546   4.512   4.015   9.366
 2523TIP3   OH231547   3.754   5.626   8.133
 2523TIP3    H131548   3.679   5.577   8.091
 2523TIP3    H231549   3.779   5.563   8.204
 2524TIP3   OH231550   3.835   5.439   8.323
 2524TIP3    H131551   3.798   5.352   8.344
 2524TIP3    H231552   3.857   5.473   8.412
 2525TIP3   OH231553   5.589   5.519   8.616
 2525TIP3    H131554   5.592   5.534   8.712
 2525TIP3    H231555   5.659   5.577   8.586
 2526TIP3   OH231556   5.546   5.477   8.909
 2526TIP3    H131557   5.498   5.400   8.872
 2526TIP3    H231558   5.593   5.433   8.982
 2527TIP3   OH231559   5.390   5.050   9.379
 2527TIP3    H131560   5.299   5.048   9.414
 2527TIP3    H231561   5.427   5.131   9.419
 2528TIP3   OH231562   5.520   4.885   7.923
 2528TIP3    H131563   5.609   4.923   7.934
 2528TIP3    H231564   5.524   4.811   7.986
 2529TIP3   OH231565   5.559   4.686   8.104
 2529TIP3    H131566   5.475   4.649   8.140
 2529TIP3    H231567   5.618   4.713   8.177
 2530TIP3   OH231568   5.533   4.960   8.606
 2530TIP3    H131569   5.616   4.925   8.571
 2530TIP3    H231570   5.547   5.056   8.593
 2531TIP3   OH231571   5.389   5.251   8.835
 2531TIP3    H131572   5.320   5.286   8.894
 2531TIP3    H231573   5.335   5.212   8.764
 2532TIP3   OH231574   5.352   4.534   8.178
 2532TIP3    H131575   5.320   4.444   8.158
 2532TIP3    H231576   5.293   4.557   8.252
 2533TIP3   OH231577   3.840   4.746   8.573
 2533TIP3    H131578   3.858   4.739   8.476
 2533TIP3    H231579   3.930   4.729   8.608
 2534TIP3   OH231580   5.426   4.735   9.137
 2534TIP3    H131581   5.487   4.659   9.149
 2534TIP3    H231582   5.487   4.812   9.137
 2535TIP3   OH231583   5.576   4.522   9.201
 2535TIP3    H131584   5.488   4.483   9.186
 2535TIP3    H231585   5.633   4.444   9.194
 2536TIP3   OH231586   5.307   4.299   8.013
 2536TIP3    H131587   5.333   4.204   8.025
 2536TIP3    H231588   5.389   4.333   7.975
 2537TIP3   OH231589   5.372   4.354   8.556
 2537TIP3    H131590   5.469   4.370   8.561
 2537TIP3    H231591   5.351   4.363   8.651
 2538TIP3   OH231592   5.377   4.423   8.832
 2538TIP3    H131593   5.289   4.451   8.865
 2538TIP3    H231594   5.421   4.510   8.815
 2539TIP3   OH231595   3.803   4.277   9.190
 2539TIP3    H131596   3.896   4.255   9.208
 2539TIP3    H231597   3.757   4.194   9.215
 2540TIP3   OH231598   5.605   3.830   9.368
 2540TIP3    H131599   5.640   3.764   9.307
 2540TIP3    H231600   5.614   3.911   9.314
 2541TIP3   OH231601   5.370   4.027   8.016
 2541TIP3    H131602   5.396   3.984   8.101
 2541TIP3    H231603   5.312   3.960   7.975
 2542TIP3   OH231604   3.915   4.107   8.491
 2542TIP3    H131605   3.971   4.027   8.504
 2542TIP3    H231606   3.979   4.177   8.515
 2543TIP3   OH231607   3.750   4.408   8.577
 2543TIP3    H131608   3.809   4.384   8.504
 2543TIP3    H231609   3.797   4.488   8.606
 2544TIP3   OH231610   5.556   4.040   9.204
 2544TIP3    H131611   5.463   4.067   9.199
 2544TIP3    H231612   5.559   3.984   9.125
 2545TIP3   OH231613   5.556   4.031   7.672
 2545TIP3    H131614   5.594   3.958   7.620
 2545TIP3    H231615   5.630   4.091   7.679
 2546TIP3   OH231616   5.261   5.527   8.177
 2546TIP3    H131617   5.329   5.498   8.114
 2546TIP3    H231618   5.312   5.577   8.243
 2547TIP3   OH231619   3.781   3.896   8.812
 2547TIP3    H131620   3.716   3.877   8.883
 2547TIP3    H231621   3.736   3.964   8.760
 2548TIP3   OH231622   4.006   5.216   9.229
 2548TIP3    H131623   3.923   5.239   9.186
 2548TIP3    H231624   3.980   5.209   9.321
 2549TIP3   OH231625   4.295   5.318   8.858
 2549TIP3    H131626   4.264   5.406   8.831
 2549TIP3    H231627   4.388   5.326   8.827
 2550TIP3   OH231628   4.727   5.460   9.147
 2550TIP3    H131629   4.740   5.425   9.238
 2550TIP3    H231630   4.818   5.491   9.124
 2551TIP3   OH231631   4.956   5.587   9.079
 2551TIP3    H131632   5.030   5.530   9.055
 2551TIP3    H231633   4.993   5.632   9.159
 2552TIP3   OH231634   5.459   3.848   8.991
 2552TIP3    H131635   5.376   3.878   8.950
 2552TIP3    H231636   5.475   3.766   8.939
 2553TIP3   OH231637   4.038   5.642   8.856
 2553TIP3    H131638   3.964   5.692   8.817
 2553TIP3    H231639   4.008   5.623   8.946
 2554TIP3   OH231640   4.284   5.599   8.764
 2554TIP3    H131641   4.195   5.615   8.803
 2554TIP3    H231642   4.280   5.658   8.687
 2555TIP3   OH231643   4.755   5.590   8.681
 2555TIP3    H131644   4.709   5.646   8.617
 2555TIP3    H231645   4.769   5.653   8.755
 2556TIP3   OH231646   4.983   5.470   8.786
 2556TIP3    H131647   4.899   5.499   8.747
 2556TIP3    H231648   5.034   5.552   8.776
 2557TIP3   OH231649   5.242   5.627   8.806
 2557TIP3    H131650   5.238   5.723   8.783
 2557TIP3    H231651   5.264   5.590   8.718
 2558TIP3   OH231652   3.985   5.507   8.551
 2558TIP3    H131653   3.976   5.460   8.637
 2558TIP3    H231654   4.066   5.468   8.513
 2559TIP3   OH231655   4.192   5.377   8.415
 2559TIP3    H131656   4.176   5.284   8.441
 2559TIP3    H231657   4.277   5.394   8.461
 2560TIP3   OH231658   4.453   5.426   8.505
 2560TIP3    H131659   4.468   5.333   8.479
 2560TIP3    H231660   4.457   5.421   8.601
 2561TIP3   OH231661   4.798   3.992   8.417
 2561TIP3    H131662   4.730   3.928   8.447
 2561TIP3    H231663   4.853   3.937   8.360
 2562TIP3   OH231664   5.310   3.794   8.422
 2562TIP3    H131665   5.371   3.855   8.373
 2562TIP3    H231666   5.222   3.831   8.401
 2563TIP3   OH231667   5.477   3.921   8.250
 2563TIP3    H131668   5.546   3.863   8.211
 2563TIP3    H231669   5.528   4.003   8.263
 2564TIP3   OH231670   4.482   3.848   8.181
 2564TIP3    H131671   4.573   3.882   8.175
 2564TIP3    H231672   4.478   3.824   8.274
 2565TIP3   OH231673   5.054   3.848   8.344
 2565TIP3    H131674   5.049   3.861   8.249
 2565TIP3    H231675   5.016   3.758   8.356
 2566TIP3   OH231676   5.179   3.851   7.911
 2566TIP3    H131677   5.105   3.912   7.894
 2566TIP3    H231678   5.134   3.768   7.937
 2567TIP3   OH231679   4.602   4.045   7.867
 2567TIP3    H131680   4.622   3.989   7.942
 2567TIP3    H231681   4.603   4.133   7.910
 2568TIP3   OH231682   5.458   5.506   7.985
 2568TIP3    H131683   5.441   5.428   7.928
 2568TIP3    H231684   5.455   5.578   7.918
 2569TIP3   OH231685   4.023   3.908   9.148
 2569TIP3    H131686   3.983   3.828   9.187
 2569TIP3    H231687   4.113   3.903   9.187
 2570TIP3   OH231688   4.222   3.847   9.314
 2570TIP3    H131689   4.311   3.813   9.291
 2570TIP3    H231690   4.185   3.766   9.353
 2571TIP3   OH231691   4.074   5.510   7.583
 2571TIP3    H131692   4.068   5.556   7.666
 2571TIP3    H231693   4.163   5.470   7.583
 2572TIP3   OH231694   5.063   3.774   9.328
 2572TIP3    H131695   5.072   3.727   9.413
 2572TIP3    H231696   5.155   3.771   9.294
 2573TIP3   OH231697   5.384   5.380   9.190
 2573TIP3    H131698   5.304   5.367   9.135
 2573TIP3    H231699   5.372   5.475   9.212
 2574TIP3   OH231700   6.829   4.769   8.189
 2574TIP3    H131701   6.827   4.866   8.184
 2574TIP3    H231702   6.758   4.745   8.129
 2575TIP3   OH231703   6.714   4.692   8.536
 2575TIP3    H131704   6.713   4.629   8.610
 2575TIP3    H231705   6.678   4.640   8.463
 2576TIP3   OH231706   5.947   4.660   8.692
 2576TIP3    H131707   5.957   4.592   8.762
 2576TIP3    H231708   6.023   4.717   8.715
 2577TIP3   OH231709   7.081   4.987   8.367
 2577TIP3    H131710   7.041   4.916   8.418
 2577TIP3    H231711   7.085   5.058   8.434
 2578TIP3   OH231712   6.042   5.106   8.543
 2578TIP3    H131713   6.012   5.018   8.512
 2578TIP3    H231714   6.138   5.090   8.548
 2579TIP3   OH231715   5.700   4.459   8.097
 2579TIP3    H131716   5.668   4.550   8.080
 2579TIP3    H231717   5.650   4.405   8.034
 2580TIP3   OH231718   5.770   4.675   8.301
 2580TIP3    H131719   5.813   4.603   8.353
 2580TIP3    H231720   5.845   4.699   8.243
 2581TIP3   OH231721   6.795   5.505   8.392
 2581TIP3    H131722   6.860   5.436   8.362
 2581TIP3    H231723   6.772   5.469   8.477
 2582TIP3   OH231724   6.552   4.932   8.587
 2582TIP3    H131725   6.585   4.870   8.520
 2582TIP3    H231726   6.633   4.949   8.637
 2583TIP3   OH231727   7.411   4.100   8.657
 2583TIP3    H131728   7.429   4.158   8.735
 2583TIP3    H231729   7.470   4.140   8.592
 2584TIP3   OH231730   6.868   4.380   8.618
 2584TIP3    H131731   6.886   4.284   8.619
 2584TIP3    H231732   6.858   4.393   8.522
 2585TIP3   OH231733   6.178   4.189   8.338
 2585TIP3    H131734   6.191   4.272   8.288
 2585TIP3    H231735   6.140   4.131   8.268
 2586TIP3   OH231736   6.953   4.196   8.175
 2586TIP3    H131737   7.018   4.165   8.243
 2586TIP3    H231738   7.009   4.255   8.122
 2587TIP3   OH231739   5.838   4.430   8.410
 2587TIP3    H131740   5.906   4.379   8.458
 2587TIP3    H231741   5.858   4.396   8.320
 2588TIP3   OH231742   6.357   4.585   8.347
 2588TIP3    H131743   6.426   4.527   8.383
 2588TIP3    H231744   6.307   4.520   8.293
 2589TIP3   OH231745   7.457   4.240   8.886
 2589TIP3    H131746   7.395   4.316   8.874
 2589TIP3    H231747   7.459   4.232   8.982
 2590TIP3   OH231748   6.071   4.079   8.742
 2590TIP3    H131749   6.043   4.136   8.668
 2590TIP3    H231750   6.004   4.101   8.811
 2591TIP3   OH231751   6.797   5.027   8.099
 2591TIP3    H131752   6.776   5.003   8.007
 2591TIP3    H231753   6.770   5.121   8.101
 2592TIP3   OH231754   6.322   4.843   8.765
 2592TIP3    H131755   6.252   4.907   8.789
 2592TIP3    H231756   6.392   4.903   8.737
 2593TIP3   OH231757   7.135   4.132   8.375
 2593TIP3    H131758   7.112   4.055   8.429
 2593TIP3    H231759   7.202   4.175   8.431
 2594TIP3   OH231760   6.029   4.264   8.547
 2594TIP3    H131761   6.091   4.333   8.578
 2594TIP3    H231762   6.079   4.224   8.471
 2595TIP3   OH231763   6.166   5.043   8.847
 2595TIP3    H131764   6.162   5.135   8.814
 2595TIP3    H231765   6.078   5.035   8.892
 2596TIP3   OH231766   5.771   5.006   7.928
 2596TIP3    H131767   5.750   5.040   7.840
 2596TIP3    H231768   5.782   5.087   7.980
 2597TIP3   OH231769   7.135   5.172   8.604
 2597TIP3    H131770   7.038   5.183   8.616
 2597TIP3    H231771   7.162   5.263   8.583
 2598TIP3   OH231772   7.166   4.000   8.743
 2598TIP3    H131773   7.095   4.064   8.732
 2598TIP3    H231774   7.239   4.040   8.691
 2599TIP3   OH231775   6.463   3.812   8.489
 2599TIP3    H131776   6.448   3.715   8.481
 2599TIP3    H231777   6.375   3.843   8.520
 2600TIP3   OH231778   6.963   5.350   8.265
 2600TIP3    H131779   7.003   5.278   8.212
 2600TIP3    H231780   7.006   5.428   8.225
 2601TIP3   OH231781   7.083   5.143   8.115
 2601TIP3    H131782   7.055   5.074   8.053
 2601TIP3    H231783   7.086   5.092   8.199
 2602TIP3   OH231784   7.244   5.003   8.964
 2602TIP3    H131785   7.258   4.937   8.893
 2602TIP3    H231786   7.266   5.086   8.918
 2603TIP3   OH231787   6.691   4.691   7.936
 2603TIP3    H131788   6.627   4.755   7.902
 2603TIP3    H231789   6.766   4.698   7.873
 2604TIP3   OH231790   7.433   4.634   8.768
 2604TIP3    H131791   7.367   4.707   8.771
 2604TIP3    H231792   7.482   4.659   8.687
 2605TIP3   OH231793   7.041   4.710   8.033
 2605TIP3    H131794   6.968   4.737   8.093
 2605TIP3    H231795   7.089   4.646   8.088
 2606TIP3   OH231796   7.033   4.529   8.945
 2606TIP3    H131797   7.032   4.611   8.997
 2606TIP3    H231798   6.970   4.557   8.876
 2607TIP3   OH231799   6.198   4.777   8.224
 2607TIP3    H131800   6.168   4.738   8.138
 2607TIP3    H231801   6.261   4.709   8.257
 2608TIP3   OH231802   6.331   5.115   8.492
 2608TIP3    H131803   6.332   5.064   8.410
 2608TIP3    H231804   6.410   5.081   8.537
 2609TIP3   OH231805   6.232   4.653   8.591
 2609TIP3    H131806   6.287   4.661   8.510
 2609TIP3    H231807   6.273   4.719   8.651
 2610TIP3   OH231808   6.876   5.210   8.662
 2610TIP3    H131809   6.847   5.274   8.727
 2610TIP3    H231810   6.850   5.125   8.703
 2611TIP3   OH231811   6.328   5.096   9.060
 2611TIP3    H131812   6.286   5.169   9.109
 2611TIP3    H231813   6.261   5.075   8.990
 2612TIP3   OH231814   6.927   4.634   7.803
 2612TIP3    H131815   6.984   4.655   7.881
 2612TIP3    H231816   6.967   4.682   7.729
 2613TIP3   OH231817   6.023   4.712   8.973
 2613TIP3    H131818   6.029   4.778   9.045
 2613TIP3    H231819   5.928   4.720   8.954
 2614TIP3   OH231820   6.697   5.305   8.147
 2614TIP3    H131821   6.741   5.337   8.227
 2614TIP3    H231822   6.642   5.380   8.122
 2615TIP3   OH231823   6.154   5.299   9.134
 2615TIP3    H131824   6.147   5.290   9.038
 2615TIP3    H231825   6.061   5.285   9.162
 2616TIP3   OH231826   7.298   3.804   7.785
 2616TIP3    H131827   7.203   3.816   7.814
 2616TIP3    H231828   7.320   3.893   7.750
 2617TIP3   OH231829   6.093   4.680   7.987
 2617TIP3    H131830   6.066   4.758   7.933
 2617TIP3    H231831   6.028   4.614   7.964
 2618TIP3   OH231832   7.417   5.242   7.647
 2618TIP3    H131833   7.425   5.338   7.630
 2618TIP3    H231834   7.503   5.212   7.617
 2619TIP3   OH231835   5.706   4.924   8.877
 2619TIP3    H131836   5.661   4.916   8.791
 2619TIP3    H231837   5.715   4.828   8.898
 2620TIP3   OH231838   5.682   5.196   8.554
 2620TIP3    H131839   5.778   5.186   8.551
 2620TIP3    H231840   5.674   5.279   8.603
 2621TIP3   OH231841   7.507   5.268   9.123
 2621TIP3    H131842   7.494   5.172   9.119
 2621TIP3    H231843   7.419   5.292   9.161
 2622TIP3   OH231844   6.602   5.221   9.008
 2622TIP3    H131845   6.607   5.305   9.059
 2622TIP3    H231846   6.514   5.185   9.033
 2623TIP3   OH231847   6.646   5.596   7.989
 2623TIP3    H131848   6.635   5.589   7.892
 2623TIP3    H231849   6.647   5.692   8.006
 2624TIP3   OH231850   6.010   5.483   8.171
 2624TIP3    H131851   6.025   5.443   8.259
 2624TIP3    H231852   5.925   5.442   8.147
 2625TIP3   OH231853   6.944   5.510   7.688
 2625TIP3    H131854   6.996   5.443   7.642
 2625TIP3    H231855   6.956   5.486   7.781
 2626TIP3   OH231856   6.919   5.512   7.967
 2626TIP3    H131857   6.823   5.519   7.983
 2626TIP3    H231858   6.943   5.436   8.022
 2627TIP3   OH231859   7.221   4.414   9.169
 2627TIP3    H131860   7.173   4.459   9.097
 2627TIP3    H231861   7.219   4.322   9.139
 2628TIP3   OH231862   5.935   5.055   8.970
 2628TIP3    H131863   5.957   5.019   9.058
 2628TIP3    H231864   5.848   5.015   8.948
 2629TIP3   OH231865   6.204   3.903   8.564
 2629TIP3    H131866   6.113   3.889   8.527
 2629TIP3    H231867   6.190   3.985   8.614
 2630TIP3   OH231868   6.668   3.868   8.900
 2630TIP3    H131869   6.707   3.826   8.979
 2630TIP3    H231870   6.571   3.858   8.915
 2631TIP3   OH231871   6.996   4.254   8.990
 2631TIP3    H131872   6.939   4.232   9.068
 2631TIP3    H231873   6.977   4.347   8.968
 2632TIP3   OH231874   6.634   4.126   7.638
 2632TIP3    H131875   6.596   4.121   7.727
 2632TIP3    H231876   6.607   4.040   7.602
 2633TIP3   OH231877   6.214   4.401   8.692
 2633TIP3    H131878   6.139   4.400   8.755
 2633TIP3    H231879   6.208   4.491   8.653
 2634TIP3   OH231880   6.208   4.409   8.178
 2634TIP3    H131881   6.115   4.386   8.162
 2634TIP3    H231882   6.246   4.382   8.092
 2635TIP3   OH231883   6.763   4.461   8.052
 2635TIP3    H131884   6.724   4.544   8.017
 2635TIP3    H231885   6.831   4.443   7.984
 2636TIP3   OH231886   6.666   4.484   9.197
 2636TIP3    H131887   6.614   4.405   9.226
 2636TIP3    H231888   6.750   4.471   9.244
 2637TIP3   OH231889   6.865   4.412   8.338
 2637TIP3    H131890   6.836   4.467   8.264
 2637TIP3    H231891   6.874   4.326   8.292
 2638TIP3   OH231892   5.974   4.424   8.856
 2638TIP3    H131893   5.985   4.465   8.944
 2638TIP3    H231894   5.932   4.340   8.879
 2639TIP3   OH231895   5.642   4.140   8.257
 2639TIP3    H131896   5.710   4.129   8.327
 2639TIP3    H231897   5.685   4.098   8.180
 2640TIP3   OH231898   5.766   4.207   7.788
 2640TIP3    H131899   5.821   4.269   7.740
 2640TIP3    H231900   5.702   4.267   7.830
 2641TIP3   OH231901   6.784   4.569   8.792
 2641TIP3    H131902   6.822   4.500   8.734
 2641TIP3    H231903   6.737   4.516   8.859
 2642TIP3   OH231904   6.465   4.168   8.277
 2642TIP3    H131905   6.372   4.167   8.305
 2642TIP3    H231906   6.513   4.149   8.358
 2643TIP3   OH231907   5.941   4.321   8.167
 2643TIP3    H131908   5.856   4.335   8.122
 2643TIP3    H231909   5.976   4.241   8.123
 2644TIP3   OH231910   6.307   4.335   7.933
 2644TIP3    H131911   6.404   4.335   7.941
 2644TIP3    H231912   6.287   4.394   7.859
 2645TIP3   OH231913   6.905   4.091   8.600
 2645TIP3    H131914   6.837   4.095   8.671
 2645TIP3    H231915   6.854   4.064   8.523
 2646TIP3   OH231916   6.172   4.453   7.678
 2646TIP3    H131917   6.132   4.395   7.614
 2646TIP3    H231918   6.262   4.461   7.644
 2647TIP3   OH231919   7.225   5.655   9.232
 2647TIP3    H131920   7.252   5.691   9.146
 2647TIP3    H231921   7.297   5.686   9.290
 2648TIP3   OH231922   5.992   4.902   9.191
 2648TIP3    H131923   6.065   4.926   9.251
 2648TIP3    H231924   5.915   4.908   9.251
 2649TIP3   OH231925   6.592   4.443   8.466
 2649TIP3    H131926   6.653   4.390   8.413
 2649TIP3    H231927   6.578   4.387   8.544
 2650TIP3   OH231928   6.094   4.057   8.112
 2650TIP3    H131929   6.061   3.965   8.111
 2650TIP3    H231930   6.172   4.050   8.056
 2651TIP3   OH231931   6.457   4.275   8.708
 2651TIP3    H131932   6.374   4.327   8.716
 2651TIP3    H231933   6.512   4.311   8.779
 2652TIP3   OH231934   6.511   4.896   7.877
 2652TIP3    H131935   6.430   4.850   7.853
 2652TIP3    H231936   6.496   4.915   7.972
 2653TIP3   OH231937   7.235   4.819   8.758
 2653TIP3    H131938   7.290   4.867   8.693
 2653TIP3    H231939   7.149   4.822   8.712
 2654TIP3   OH231940   6.898   4.184   7.692
 2654TIP3    H131941   6.803   4.197   7.676
 2654TIP3    H231942   6.927   4.270   7.729
 2655TIP3   OH231943   6.665   4.926   9.002
 2655TIP3    H131944   6.629   4.882   9.080
 2655TIP3    H231945   6.638   5.018   9.013
 2656TIP3   OH231946   6.974   4.371   7.862
 2656TIP3    H131947   7.063   4.361   7.899
 2656TIP3    H231948   6.977   4.454   7.810
 2657TIP3   OH231949   6.022   4.834   8.455
 2657TIP3    H131950   6.092   4.829   8.387
 2657TIP3    H231951   6.036   4.752   8.506
 2658TIP3   OH231952   6.730   5.046   7.796
 2658TIP3    H131953   6.689   5.132   7.817
 2658TIP3    H231954   6.655   4.985   7.797
 2659TIP3   OH231955   5.725   4.677   8.983
 2659TIP3    H131956   5.741   4.633   9.069
 2659TIP3    H231957   5.663   4.616   8.939
 2660TIP3   OH231958   6.427   4.634   9.200
 2660TIP3    H131959   6.394   4.601   9.115
 2660TIP3    H231960   6.518   4.600   9.200
 2661TIP3   OH231961   6.896   5.167   8.998
 2661TIP3    H131962   6.804   5.185   8.973
 2661TIP3    H231963   6.892   5.196   9.091
 2662TIP3   OH231964   7.457   4.387   7.835
 2662TIP3    H131965   7.405   4.354   7.760
 2662TIP3    H231966   7.468   4.480   7.809
 2663TIP3   OH231967   7.461   4.971   9.115
 2663TIP3    H131968   7.371   4.993   9.079
 2663TIP3    H231969   7.515   4.966   9.034
 2664TIP3   OH231970   7.288   5.270   7.876
 2664TIP3    H131971   7.254   5.186   7.907
 2664TIP3    H231972   7.322   5.251   7.786
 2665TIP3   OH231973   7.013   4.749   8.586
 2665TIP3    H131974   6.919   4.729   8.574
 2665TIP3    H231975   7.056   4.674   8.541
 2666TIP3   OH231976   6.264   5.183   8.196
 2666TIP3    H131977   6.313   5.264   8.176
 2666TIP3    H231978   6.176   5.206   8.163
 2667TIP3   OH231979   6.403   4.950   8.145
 2667TIP3    H131980   6.372   5.041   8.156
 2667TIP3    H231981   6.334   4.899   8.192
 2668TIP3   OH231982   6.450   5.368   8.790
 2668TIP3    H131983   6.497   5.447   8.760
 2668TIP3    H231984   6.512   5.333   8.856
 2669TIP3   OH231985   6.274   5.446   8.105
 2669TIP3    H131986   6.177   5.460   8.117
 2669TIP3    H231987   6.310   5.532   8.134
 2670TIP3   OH231988   6.801   4.966   8.750
 2670TIP3    H131989   6.770   4.948   8.841
 2670TIP3    H231990   6.866   4.896   8.733
 2671TIP3   OH231991   7.085   5.424   8.999
 2671TIP3    H131992   7.015   5.376   8.952
 2671TIP3    H231993   7.102   5.495   8.933
 2672TIP3   OH231994   7.490   5.514   7.693
 2672TIP3    H131995   7.552   5.576   7.654
 2672TIP3    H231996   7.409   5.568   7.708
 2673TIP3   OH231997   5.891   4.150   8.938
 2673TIP3    H131998   5.800   4.186   8.937
 2673TIP3    H231999   5.880   4.066   8.985
 2674TIP3   OH232000   7.114   4.940   7.886
 2674TIP3    H132001   7.090   4.860   7.936
 2674TIP3    H232002   7.210   4.941   7.897
 2675TIP3   OH232003   5.851   5.329   8.781
 2675TIP3    H132004   5.884   5.237   8.782
 2675TIP3    H232005   5.878   5.359   8.868
 2676TIP3   OH232006   6.320   5.132   7.755
 2676TIP3    H132007   6.353   5.087   7.834
 2676TIP3    H232008   6.337   5.227   7.778
 2677TIP3   OH232009   5.986   4.860   7.806
 2677TIP3    H132010   5.910   4.896   7.857
 2677TIP3    H232011   6.027   4.942   7.776
 2678TIP3   OH232012   6.764   4.128   8.836
 2678TIP3    H132013   6.836   4.134   8.900
 2678TIP3    H232014   6.726   4.041   8.857
 2679TIP3   OH232015   6.840   4.087   7.944
 2679TIP3    H132016   6.858   4.134   7.861
 2679TIP3    H232017   6.897   4.131   8.009
 2680TIP3   OH232018   6.607   5.303   7.826
 2680TIP3    H132019   6.523   5.351   7.828
 2680TIP3    H232020   6.658   5.351   7.760
 2681TIP3   OH232021   6.559   4.260   8.023
 2681TIP3    H132022   6.638   4.318   8.029
 2681TIP3    H232023   6.532   4.247   8.117
 2682TIP3   OH232024   6.617   4.363   8.945
 2682TIP3    H132025   6.624   4.418   9.025
 2682TIP3    H232026   6.683   4.293   8.954
 2683TIP3   OH232027   6.645   3.965   8.110
 2683TIP3    H132028   6.612   4.030   8.175
 2683TIP3    H232029   6.715   4.019   8.068
 2684TIP3   OH232030   6.343   5.405   7.830
 2684TIP3    H132031   6.363   5.485   7.775
 2684TIP3    H232032   6.319   5.442   7.917
 2685TIP3   OH232033   7.234   4.149   9.029
 2685TIP3    H132034   7.141   4.182   9.016
 2685TIP3    H232035   7.264   4.147   8.937
 2686TIP3   OH232036   7.096   4.528   8.428
 2686TIP3    H132037   7.014   4.483   8.403
 2686TIP3    H232038   7.144   4.460   8.481
 2687TIP3   OH232039   6.038   5.131   7.680
 2687TIP3    H132040   6.108   5.182   7.726
 2687TIP3    H232041   6.089   5.075   7.621
 2688TIP3   OH232042   7.202   5.457   8.598
 2688TIP3    H132043   7.192   5.520   8.525
 2688TIP3    H232044   7.299   5.459   8.614
 2689TIP3   OH232045   5.950   3.867   8.478
 2689TIP3    H132046   5.933   3.868   8.382
 2689TIP3    H232047   5.910   3.781   8.503
 2690TIP3   OH232048   5.843   5.257   8.089
 2690TIP3    H132049   5.760   5.305   8.088
 2690TIP3    H232050   5.893   5.304   8.021
 2691TIP3   OH232051   5.766   5.524   9.220
 2691TIP3    H132052   5.827   5.505   9.294
 2691TIP3    H232053   5.727   5.436   9.202
 2692TIP3   OH232054   6.237   5.416   9.381
 2692TIP3    H132055   6.312   5.365   9.414
 2692TIP3    H232056   6.233   5.387   9.287
 2693TIP3   OH232057   6.885   5.254   9.257
 2693TIP3    H132058   6.854   5.166   9.284
 2693TIP3    H232059   6.963   5.266   9.315
 2694TIP3   OH232060   5.757   4.901   9.320
 2694TIP3    H132061   5.774   4.810   9.291
 2694TIP3    H232062   5.684   4.926   9.262
 2695TIP3   OH232063   6.430   4.900   9.258
 2695TIP3    H132064   6.396   4.932   9.172
 2695TIP3    H232065   6.436   4.802   9.247
 2696TIP3   OH232066   6.999   4.885   8.998
 2696TIP3    H132067   7.078   4.943   8.993
 2696TIP3    H232068   6.929   4.953   9.001
 2697TIP3   OH232069   5.851   4.623   9.258
 2697TIP3    H132070   5.893   4.537   9.250
 2697TIP3    H232071   5.828   4.625   9.353
 2698TIP3   OH232072   6.240   4.517   8.993
 2698TIP3    H132073   6.180   4.590   9.018
 2698TIP3    H232074   6.280   4.554   8.913
 2699TIP3   OH232075   6.749   4.778   9.333
 2699TIP3    H132076   6.842   4.772   9.310
 2699TIP3    H232077   6.730   4.697   9.382
 2700TIP3   OH232078   6.281   4.255   9.098
 2700TIP3    H132079   6.292   4.185   9.031
 2700TIP3    H232080   6.276   4.337   9.044
 2701TIP3   OH232081   6.321   4.094   8.854
 2701TIP3    H132082   6.372   4.141   8.784
 2701TIP3    H232083   6.232   4.087   8.815
 2702TIP3   OH232084   6.474   4.644   8.879
 2702TIP3    H132085   6.550   4.627   8.822
 2702TIP3    H232086   6.438   4.727   8.844
 2703TIP3   OH232087   6.913   4.418   9.374
 2703TIP3    H132088   6.937   4.324   9.365
 2703TIP3    H232089   7.000   4.462   9.377
 2704TIP3   OH232090   7.050   4.698   9.192
 2704TIP3    H132091   7.024   4.769   9.130
 2704TIP3    H232092   7.146   4.694   9.173
 2705TIP3   OH232093   6.127   4.381   9.291
 2705TIP3    H132094   6.050   4.323   9.274
 2705TIP3    H232095   6.192   4.344   9.228
 2706TIP3   OH232096   6.400   3.837   8.892
 2706TIP3    H132097   6.381   3.933   8.883
 2706TIP3    H232098   6.325   3.800   8.842
 2707TIP3   OH232099   6.527   4.270   9.257
 2707TIP3    H132100   6.495   4.247   9.346
 2707TIP3    H232101   6.449   4.250   9.202
 2708TIP3   OH232102   6.799   4.186   9.167
 2708TIP3    H132103   6.702   4.191   9.177
 2708TIP3    H232104   6.825   4.121   9.235
 2709TIP3   OH232105   6.956   4.047   9.354
 2709TIP3    H132106   6.953   3.949   9.358
 2709TIP3    H232107   6.933   4.076   9.445
 2710TIP3   OH232108   5.935   4.175   9.267
 2710TIP3    H132109   5.959   4.101   9.209
 2710TIP3    H232110   5.925   4.131   9.354
 2711TIP3   OH232111   6.421   3.778   9.163
 2711TIP3    H132112   6.489   3.707   9.162
 2711TIP3    H232113   6.410   3.790   9.067
 2712TIP3   OH232114   6.458   3.938   9.376
 2712TIP3    H132115   6.440   3.887   9.293
 2712TIP3    H232116   6.398   4.015   9.366
 2713TIP3   OH232117   6.403   5.637   7.697
 2713TIP3    H132118   6.500   5.634   7.697
 2713TIP3    H232119   6.386   5.691   7.620
 2714TIP3   OH232120   5.637   5.626   8.137
 2714TIP3    H132121   5.567   5.577   8.088
 2714TIP3    H232122   5.665   5.560   8.203
 2715TIP3   OH232123   5.720   5.439   8.324
 2715TIP3    H132124   5.684   5.352   8.345
 2715TIP3    H232125   5.743   5.473   8.412
 2716TIP3   OH232126   7.462   5.536   8.617
 2716TIP3    H132127   7.479   5.530   8.713
 2716TIP3    H232128   7.549   5.568   8.588
 2717TIP3   OH232129   7.432   5.479   8.907
 2717TIP3    H132130   7.383   5.400   8.873
 2717TIP3    H232131   7.479   5.436   8.981
 2718TIP3   OH232132   7.276   5.049   9.382
 2718TIP3    H132133   7.184   5.048   9.414
 2718TIP3    H232134   7.312   5.132   9.417
 2719TIP3   OH232135   7.406   4.885   7.923
 2719TIP3    H132136   7.494   4.920   7.939
 2719TIP3    H232137   7.407   4.811   7.987
 2720TIP3   OH232138   7.442   4.690   8.108
 2720TIP3    H132139   7.366   4.642   8.148
 2720TIP3    H232140   7.502   4.703   8.185
 2721TIP3   OH232141   7.418   4.959   8.608
 2721TIP3    H132142   7.499   4.920   8.570
 2721TIP3    H232143   7.433   5.054   8.591
 2722TIP3   OH232144   7.274   5.251   8.834
 2722TIP3    H132145   7.206   5.285   8.893
 2722TIP3    H232146   7.220   5.212   8.763
 2723TIP3   OH232147   7.225   4.538   8.167
 2723TIP3    H132148   7.210   4.442   8.164
 2723TIP3    H232149   7.194   4.558   8.257
 2724TIP3   OH232150   5.726   4.742   8.571
 2724TIP3    H132151   5.750   4.743   8.476
 2724TIP3    H232152   5.815   4.730   8.610
 2725TIP3   OH232153   7.312   4.735   9.138
 2725TIP3    H132154   7.373   4.659   9.149
 2725TIP3    H232155   7.372   4.812   9.136
 2726TIP3   OH232156   7.462   4.522   9.201
 2726TIP3    H132157   7.374   4.482   9.186
 2726TIP3    H232158   7.520   4.444   9.194
 2727TIP3   OH232159   7.193   4.295   8.011
 2727TIP3    H132160   7.222   4.202   8.025
 2727TIP3    H232161   7.273   4.334   7.975
 2728TIP3   OH232162   7.255   4.351   8.557
 2728TIP3    H132163   7.352   4.373   8.556
 2728TIP3    H232164   7.238   4.365   8.652
 2729TIP3   OH232165   7.262   4.422   8.835
 2729TIP3    H132166   7.174   4.451   8.866
 2729TIP3    H232167   7.306   4.508   8.813
 2730TIP3   OH232168   5.688   4.278   9.190
 2730TIP3    H132169   5.782   4.255   9.208
 2730TIP3    H232170   5.642   4.194   9.215
 2731TIP3   OH232171   7.491   3.830   9.368
 2731TIP3    H132172   7.526   3.764   9.306
 2731TIP3    H232173   7.500   3.911   9.314
 2732TIP3   OH232174   7.257   4.027   8.017
 2732TIP3    H132175   7.283   3.985   8.102
 2732TIP3    H232176   7.198   3.961   7.976
 2733TIP3   OH232177   5.807   4.107   8.474
 2733TIP3    H132178   5.853   4.024   8.498
 2733TIP3    H232179   5.866   4.174   8.512
 2734TIP3   OH232180   5.630   4.416   8.566
 2734TIP3    H132181   5.697   4.377   8.506
 2734TIP3    H232182   5.686   4.484   8.608
 2735TIP3   OH232183   7.442   4.040   9.204
 2735TIP3    H132184   7.349   4.067   9.199
 2735TIP3    H232185   7.444   3.984   9.125
 2736TIP3   OH232186   7.441   4.024   7.669
 2736TIP3    H132187   7.491   3.961   7.616
 2736TIP3    H232188   7.509   4.093   7.674
 2737TIP3   OH232189   5.671   4.033   7.984
 2737TIP3    H132190   5.577   4.049   7.971
 2737TIP3    H232191   5.713   4.082   7.912
 2738TIP3   OH232192   7.146   5.527   8.182
 2738TIP3    H132193   7.212   5.496   8.115
 2738TIP3    H232194   7.200   5.576   8.243
 2739TIP3   OH232195   5.666   3.898   8.812
 2739TIP3    H132196   5.600   3.878   8.881
 2739TIP3    H232197   5.620   3.965   8.759
 2740TIP3   OH232198   5.892   5.216   9.229
 2740TIP3    H132199   5.808   5.239   9.186
 2740TIP3    H232200   5.865   5.209   9.321
 2741TIP3   OH232201   6.181   5.318   8.858
 2741TIP3    H132202   6.150   5.406   8.831
 2741TIP3    H232203   6.274   5.326   8.827
 2742TIP3   OH232204   6.613   5.461   9.147
 2742TIP3    H132205   6.626   5.425   9.238
 2742TIP3    H232206   6.703   5.491   9.124
 2743TIP3   OH232207   6.842   5.587   9.079
 2743TIP3    H132208   6.916   5.530   9.056
 2743TIP3    H232209   6.879   5.632   9.159
 2744TIP3   OH232210   7.345   3.847   8.990
 2744TIP3    H132211   7.262   3.878   8.949
 2744TIP3    H232212   7.359   3.764   8.941
 2745TIP3   OH232213   5.923   5.642   8.856
 2745TIP3    H132214   5.850   5.692   8.817
 2745TIP3    H232215   5.894   5.623   8.946
 2746TIP3   OH232216   6.170   5.599   8.764
 2746TIP3    H132217   6.081   5.616   8.803
 2746TIP3    H232218   6.166   5.658   8.687
 2747TIP3   OH232219   6.641   5.590   8.681
 2747TIP3    H132220   6.595   5.646   8.617
 2747TIP3    H232221   6.654   5.653   8.755
 2748TIP3   OH232222   6.868   5.469   8.786
 2748TIP3    H132223   6.784   5.499   8.747
 2748TIP3    H232224   6.917   5.551   8.778
 2749TIP3   OH232225   7.131   5.628   8.806
 2749TIP3    H132226   7.120   5.723   8.783
 2749TIP3    H232227   7.148   5.587   8.718
 2750TIP3   OH232228   5.871   5.507   8.551
 2750TIP3    H132229   5.862   5.460   8.637
 2750TIP3    H232230   5.952   5.468   8.513
 2751TIP3   OH232231   6.078   5.378   8.417
 2751TIP3    H132232   6.062   5.284   8.440
 2751TIP3    H232233   6.163   5.394   8.461
 2752TIP3   OH232234   6.339   5.426   8.504
 2752TIP3    H132235   6.355   5.334   8.478
 2752TIP3    H232236   6.342   5.421   8.601
 2753TIP3   OH232237   6.683   3.991   8.418
 2753TIP3    H132238   6.615   3.927   8.447
 2753TIP3    H232239   6.738   3.937   8.360
 2754TIP3   OH232240   7.197   3.795   8.423
 2754TIP3    H132241   7.258   3.855   8.373
 2754TIP3    H232242   7.108   3.832   8.401
 2755TIP3   OH232243   7.363   3.922   8.251
 2755TIP3    H132244   7.432   3.865   8.211
 2755TIP3    H232245   7.415   4.005   8.263
 2756TIP3   OH232246   5.921   3.854   8.202
 2756TIP3    H132247   5.838   3.834   8.153
 2756TIP3    H232248   5.965   3.767   8.197
 2757TIP3   OH232249   5.798   3.830   7.779
 2757TIP3    H132250   5.842   3.890   7.718
 2757TIP3    H232251   5.739   3.886   7.831
 2758TIP3   OH232252   6.365   3.845   8.183
 2758TIP3    H132253   6.455   3.881   8.173
 2758TIP3    H232254   6.365   3.824   8.277
 2759TIP3   OH232255   6.941   3.847   8.343
 2759TIP3    H132256   6.933   3.859   8.248
 2759TIP3    H232257   6.900   3.758   8.357
 2760TIP3   OH232258   7.064   3.851   7.909
 2760TIP3    H132259   6.988   3.909   7.894
 2760TIP3    H232260   7.020   3.765   7.930
 2761TIP3   OH232261   5.792   5.425   7.868
 2761TIP3    H132262   5.716   5.424   7.808
 2761TIP3    H232263   5.790   5.519   7.891
 2762TIP3   OH232264   6.483   4.049   7.865
 2762TIP3    H132265   6.505   3.991   7.939
 2762TIP3    H232266   6.486   4.136   7.911
 2763TIP3   OH232267   6.674   5.560   7.710
 2763TIP3    H132268   6.769   5.579   7.693
 2763TIP3    H232269   6.652   5.507   7.631
 2764TIP3   OH232270   7.343   5.507   7.986
 2764TIP3    H132271   7.326   5.427   7.929
 2764TIP3    H232272   7.337   5.578   7.919
 2765TIP3   OH232273   5.908   3.908   9.148
 2765TIP3    H132274   5.868   3.828   9.187
 2765TIP3    H232275   5.999   3.903   9.187
 2766TIP3   OH232276   6.108   3.847   9.314
 2766TIP3    H132277   6.197   3.813   9.292
 2766TIP3    H232278   6.071   3.766   9.353
 2767TIP3   OH232279   6.947   3.775   9.328
 2767TIP3    H132280   6.958   3.725   9.411
 2767TIP3    H232281   7.039   3.772   9.293
 2768TIP3   OH232282   7.270   5.380   9.190
 2768TIP3    H132283   7.189   5.367   9.135
 2768TIP3    H232284   7.257   5.475   9.211
 2769TIP3   OH232285   7.832   4.662   8.695
 2769TIP3    H132286   7.845   4.590   8.761
 2769TIP3    H232287   7.912   4.714   8.715
 2770TIP3   OH232288   7.910   5.089   8.566
 2770TIP3    H132289   7.891   5.010   8.512
 2770TIP3    H232290   8.007   5.095   8.549
 2771TIP3   OH232291   7.589   4.460   8.089
 2771TIP3    H132292   7.546   4.548   8.088
 2771TIP3    H232293   7.528   4.406   8.037
 2772TIP3   OH232294   7.663   4.684   8.306
 2772TIP3    H132295   7.690   4.602   8.352
 2772TIP3    H232296   7.734   4.695   8.242
 2773TIP3   OH232297   7.723   4.427   8.412
 2773TIP3    H132298   7.793   4.376   8.459
 2773TIP3    H232299   7.742   4.399   8.321
 2774TIP3   OH232300   7.935   4.077   8.740
 2774TIP3    H132301   7.924   4.141   8.666
 2774TIP3    H232302   7.876   4.110   8.810
 2775TIP3   OH232303   7.901   4.250   8.536
 2775TIP3    H132304   7.955   4.323   8.578
 2775TIP3    H232305   7.960   4.221   8.465
 2776TIP3   OH232306   8.039   5.099   8.874
 2776TIP3    H132307   8.023   5.155   8.797
 2776TIP3    H232308   7.949   5.057   8.887
 2777TIP3   OH232309   7.668   5.006   7.923
 2777TIP3    H132310   7.632   5.037   7.838
 2777TIP3    H232311   7.662   5.087   7.979
 2778TIP3   OH232312   7.898   4.715   8.974
 2778TIP3    H132313   7.905   4.775   9.049
 2778TIP3    H232314   7.803   4.719   8.955
 2779TIP3   OH232315   8.042   5.285   9.132
 2779TIP3    H132316   8.023   5.299   9.038
 2779TIP3    H232317   7.948   5.287   9.165
 2780TIP3   OH232318   7.984   4.682   7.973
 2780TIP3    H132319   7.947   4.763   7.935
 2780TIP3    H232320   7.910   4.620   7.969
 2781TIP3   OH232321   7.589   4.923   8.877
 2781TIP3    H132322   7.547   4.915   8.789
 2781TIP3    H232323   7.603   4.829   8.898
 2782TIP3   OH232324   7.568   5.198   8.554
 2782TIP3    H132325   7.664   5.186   8.550
 2782TIP3    H232326   7.562   5.280   8.603
 2783TIP3   OH232327   7.884   5.473   8.173
 2783TIP3    H132328   7.900   5.435   8.261
 2783TIP3    H232329   7.798   5.435   8.152
 2784TIP3   OH232330   7.810   5.057   8.976
 2784TIP3    H132331   7.835   5.013   9.059
 2784TIP3    H232332   7.728   5.011   8.949
 2785TIP3   OH232333   7.860   4.427   8.860
 2785TIP3    H132334   7.864   4.465   8.949
 2785TIP3    H232335   7.822   4.339   8.877
 2786TIP3   OH232336   7.524   4.132   8.254
 2786TIP3    H132337   7.592   4.130   8.326
 2786TIP3    H232338   7.573   4.099   8.177
 2787TIP3   OH232339   7.654   4.213   7.798
 2787TIP3    H132340   7.702   4.271   7.735
 2787TIP3    H232341   7.583   4.273   7.827
 2788TIP3   OH232342   7.828   4.327   8.160
 2788TIP3    H132343   7.738   4.332   8.124
 2788TIP3    H232344   7.860   4.239   8.133
 2789TIP3   OH232345   7.878   4.913   9.189
 2789TIP3    H132346   7.945   4.924   9.255
 2789TIP3    H232347   7.798   4.912   9.247
 2790TIP3   OH232348   7.932   4.053   8.091
 2790TIP3    H132349   7.924   3.959   8.119
 2790TIP3    H232350   8.028   4.058   8.085
 2791TIP3   OH232351   7.907   4.838   8.449
 2791TIP3    H132352   7.984   4.832   8.390
 2791TIP3    H232353   7.917   4.756   8.503
 2792TIP3   OH232354   7.613   4.678   8.984
 2792TIP3    H132355   7.626   4.631   9.069
 2792TIP3    H232356   7.549   4.619   8.939
 2793TIP3   OH232357   7.727   4.664   7.658
 2793TIP3    H132358   7.783   4.734   7.694
 2793TIP3    H232359   7.639   4.700   7.673
 2794TIP3   OH232360   7.774   4.151   8.943
 2794TIP3    H132361   7.684   4.185   8.933
 2794TIP3    H232362   7.761   4.064   8.984
 2795TIP3   OH232363   7.748   5.329   8.777
 2795TIP3    H132364   7.758   5.233   8.785
 2795TIP3    H232365   7.759   5.360   8.868
 2796TIP3   OH232366   7.864   4.862   7.798
 2796TIP3    H132367   7.791   4.896   7.856
 2796TIP3    H232368   7.914   4.941   7.784
 2797TIP3   OH232369   7.741   4.389   7.626
 2797TIP3    H132370   7.746   4.486   7.615
 2797TIP3    H232371   7.669   4.366   7.565
 2798TIP3   OH232372   7.834   3.867   8.478
 2798TIP3    H132373   7.822   3.869   8.381
 2798TIP3    H232374   7.797   3.781   8.504
 2799TIP3   OH232375   7.726   5.257   8.090
 2799TIP3    H132376   7.643   5.306   8.085
 2799TIP3    H232377   7.778   5.304   8.024
 2800TIP3   OH232378   7.650   5.525   9.218
 2800TIP3    H132379   7.710   5.506   9.292
 2800TIP3    H232380   7.611   5.437   9.202
 2801TIP3   OH232381   7.645   4.901   9.319
 2801TIP3    H132382   7.658   4.808   9.291
 2801TIP3    H232383   7.569   4.926   9.263
 2802TIP3   OH232384   7.738   4.625   9.258
 2802TIP3    H132385   7.777   4.538   9.247
 2802TIP3    H232386   7.716   4.624   9.353
 2803TIP3   OH232387   7.999   4.397   9.303
 2803TIP3    H132388   7.929   4.331   9.284
 2803TIP3    H232389   8.069   4.366   9.243
 2804TIP3   OH232390   7.820   4.173   9.266
 2804TIP3    H132391   7.843   4.099   9.208
 2804TIP3    H232392   7.813   4.132   9.355
 2805TIP3   OH232393   7.653   5.074   7.651
 2805TIP3    H132394   7.744   5.103   7.652
 2805TIP3    H232395   7.646   5.033   7.563
 2806TIP3   OH232396   7.521   5.627   8.137
 2806TIP3    H132397   7.452   5.576   8.088
 2806TIP3    H232398   7.554   5.560   8.200
 2807TIP3   OH232399   7.601   5.439   8.324
 2807TIP3    H132400   7.571   5.349   8.343
 2807TIP3    H232401   7.634   5.468   8.411
 2808TIP3   OH232402   7.613   4.752   8.571
 2808TIP3    H132403   7.634   4.736   8.477
 2808TIP3    H232404   7.701   4.729   8.609
 2809TIP3   OH232405   7.571   4.277   9.188
 2809TIP3    H132406   7.665   4.256   9.205
 2809TIP3    H232407   7.526   4.194   9.215
 2810TIP3   OH232408   7.690   4.105   8.474
 2810TIP3    H132409   7.741   4.024   8.494
 2810TIP3    H232410   7.751   4.174   8.507
 2811TIP3   OH232411   7.518   4.407   8.575
 2811TIP3    H132412   7.578   4.381   8.501
 2811TIP3    H232413   7.566   4.485   8.604
 2812TIP3   OH232414   7.554   4.031   7.982
 2812TIP3    H132415   7.461   4.053   7.971
 2812TIP3    H232416   7.597   4.079   7.910
 2813TIP3   OH232417   7.552   3.897   8.814
 2813TIP3    H132418   7.483   3.878   8.881
 2813TIP3    H232419   7.507   3.964   8.758
 2814TIP3   OH232420   7.776   5.219   9.229
 2814TIP3    H132421   7.692   5.240   9.185
 2814TIP3    H232422   7.745   5.208   9.320
 2815TIP3   OH232423   7.808   5.644   8.859
 2815TIP3    H132424   7.734   5.691   8.817
 2815TIP3    H232425   7.774   5.622   8.946
 2816TIP3   OH232426   8.035   5.563   8.737
 2816TIP3    H132427   7.968   5.603   8.797
 2816TIP3    H232428   8.058   5.645   8.689
 2817TIP3   OH232429   7.744   5.505   8.555
 2817TIP3    H132430   7.752   5.461   8.642
 2817TIP3    H232431   7.828   5.472   8.515
 2818TIP3   OH232432   7.944   5.377   8.433
 2818TIP3    H132433   7.938   5.280   8.446
 2818TIP3    H232434   8.034   5.390   8.467
 2819TIP3   OH232435   7.799   3.848   8.207
 2819TIP3    H132436   7.721   3.831   8.151
 2819TIP3    H232437   7.852   3.767   8.201
 2820TIP3   OH232438   7.673   5.426   7.880
 2820TIP3    H132439   7.609   5.424   7.805
 2820TIP3    H232440   7.678   5.522   7.889
 2821TIP3   OH232441   7.867   4.018   7.637
 2821TIP3    H132442   7.913   3.965   7.569
 2821TIP3    H232443   7.934   4.054   7.692
 2822TIP3   OH232444   7.800   3.909   9.145
 2822TIP3    H132445   7.760   3.830   9.186
 2822TIP3    H232446   7.889   3.903   9.185
 2823TIP3   OH232447   7.993   3.842   9.313
 2823TIP3    H132448   8.081   3.811   9.287
 2823TIP3    H232449   7.957   3.762   9.354
 2824TIP3   OH232450   7.850   5.518   7.580
 2824TIP3    H132451   7.829   5.553   7.666
 2824TIP3    H232452   7.934   5.474   7.585
 2825TIP3   OH232453   1.171   6.654   8.189
 2825TIP3    H132454   1.170   6.751   8.185
 2825TIP3    H232455   1.101   6.631   8.126
 2826TIP3   OH232456   1.058   6.578   8.538
 2826TIP3    H132457   1.056   6.514   8.611
 2826TIP3    H232458   1.022   6.527   8.464
 2827TIP3   OH232459   0.307   6.538   8.684
 2827TIP3    H132460   0.300   6.478   8.762
 2827TIP3    H232461   0.368   6.605   8.718
 2828TIP3   OH232462   1.425   6.873   8.368
 2828TIP3    H132463   1.384   6.802   8.417
 2828TIP3    H232464   1.428   6.944   8.435
 2829TIP3   OH232465   0.383   6.991   8.540
 2829TIP3    H132466   0.354   6.901   8.513
 2829TIP3    H232467   0.478   6.974   8.547
 2830TIP3   OH232468   0.057   6.350   8.082
 2830TIP3    H132469   0.008   6.434   8.090
 2830TIP3    H232470  -0.009   6.293   8.044
 2831TIP3   OH232471   0.122   6.566   8.305
 2831TIP3    H132472   0.147   6.484   8.351
 2831TIP3    H232473   0.191   6.577   8.238
 2832TIP3   OH232474   1.138   7.390   8.391
 2832TIP3    H132475   1.203   7.321   8.362
 2832TIP3    H232476   1.115   7.354   8.477
 2833TIP3   OH232477   0.895   6.817   8.587
 2833TIP3    H132478   0.928   6.756   8.521
 2833TIP3    H232479   0.977   6.834   8.637
 2834TIP3   OH232480   1.755   5.985   8.656
 2834TIP3    H132481   1.772   6.043   8.734
 2834TIP3    H232482   1.815   6.025   8.592
 2835TIP3   OH232483   1.212   6.265   8.618
 2835TIP3    H132484   1.229   6.169   8.619
 2835TIP3    H232485   1.201   6.279   8.522
 2836TIP3   OH232486   0.523   6.075   8.338
 2836TIP3    H132487   0.533   6.159   8.290
 2836TIP3    H232488   0.485   6.017   8.268
 2837TIP3   OH232489   1.295   6.083   8.177
 2837TIP3    H132490   1.361   6.051   8.242
 2837TIP3    H232491   1.351   6.140   8.122
 2838TIP3   OH232492   0.196   6.316   8.411
 2838TIP3    H132493   0.258   6.256   8.456
 2838TIP3    H232494   0.198   6.282   8.320
 2839TIP3   OH232495   0.699   6.470   8.347
 2839TIP3    H132496   0.769   6.413   8.384
 2839TIP3    H232497   0.650   6.405   8.293
 2840TIP3   OH232498   1.798   6.123   8.886
 2840TIP3    H132499   1.741   6.202   8.872
 2840TIP3    H232500   1.801   6.118   8.982
 2841TIP3   OH232501   0.417   5.963   8.741
 2841TIP3    H132502   0.387   6.022   8.668
 2841TIP3    H232503   0.350   5.985   8.810
 2842TIP3   OH232504   1.141   6.912   8.099
 2842TIP3    H132505   1.119   6.887   8.007
 2842TIP3    H232506   1.111   7.006   8.102
 2843TIP3   OH232507   0.668   6.728   8.766
 2843TIP3    H132508   0.596   6.792   8.789
 2843TIP3    H232509   0.737   6.789   8.736
 2844TIP3   OH232510   1.478   6.017   8.374
 2844TIP3    H132511   1.456   5.941   8.428
 2844TIP3    H232512   1.546   6.060   8.429
 2845TIP3   OH232513   0.374   6.146   8.548
 2845TIP3    H132514   0.434   6.219   8.578
 2845TIP3    H232515   0.426   6.109   8.472
 2846TIP3   OH232516   0.510   6.928   8.845
 2846TIP3    H132517   0.504   7.020   8.814
 2846TIP3    H232518   0.424   6.920   8.892
 2847TIP3   OH232519   0.117   6.895   7.931
 2847TIP3    H132520   0.091   6.922   7.842
 2847TIP3    H232521   0.128   6.978   7.980
 2848TIP3   OH232522   1.478   7.057   8.604
 2848TIP3    H132523   1.381   7.069   8.615
 2848TIP3    H232524   1.505   7.149   8.583
 2849TIP3   OH232525   1.510   5.885   8.743
 2849TIP3    H132526   1.438   5.949   8.732
 2849TIP3    H232527   1.582   5.926   8.691
 2850TIP3   OH232528   0.806   5.698   8.489
 2850TIP3    H132529   0.791   5.602   8.481
 2850TIP3    H232530   0.719   5.729   8.520
 2851TIP3   OH232531   1.305   7.236   8.262
 2851TIP3    H132532   1.347   7.163   8.211
 2851TIP3    H232533   1.350   7.314   8.224
 2852TIP3   OH232534   1.426   7.028   8.117
 2852TIP3    H132535   1.399   6.961   8.051
 2852TIP3    H232536   1.428   6.975   8.199
 2853TIP3   OH232537   1.587   6.889   8.963
 2853TIP3    H132538   1.602   6.822   8.893
 2853TIP3    H232539   1.609   6.972   8.918
 2854TIP3   OH232540   1.038   6.577   7.939
 2854TIP3    H132541   0.970   6.636   7.898
 2854TIP3    H232542   1.108   6.583   7.870
 2855TIP3   OH232543   1.776   6.521   8.767
 2855TIP3    H132544   1.711   6.593   8.771
 2855TIP3    H232545   1.826   6.544   8.687
 2856TIP3   OH232546   1.387   6.600   8.036
 2856TIP3    H132547   1.309   6.622   8.092
 2856TIP3    H232548   1.432   6.531   8.087
 2857TIP3   OH232549   1.376   6.416   8.947
 2857TIP3    H132550   1.373   6.498   8.997
 2857TIP3    H232551   1.313   6.442   8.876
 2858TIP3   OH232552   0.547   6.664   8.225
 2858TIP3    H132553   0.512   6.624   8.142
 2858TIP3    H232554   0.607   6.593   8.258
 2859TIP3   OH232555   0.675   7.001   8.492
 2859TIP3    H132556   0.676   6.950   8.410
 2859TIP3    H232557   0.753   6.966   8.538
 2860TIP3   OH232558   0.579   6.537   8.590
 2860TIP3    H132559   0.631   6.548   8.509
 2860TIP3    H232560   0.614   6.605   8.651
 2861TIP3   OH232561   1.218   7.096   8.661
 2861TIP3    H132562   1.190   7.160   8.727
 2861TIP3    H232563   1.192   7.011   8.703
 2862TIP3   OH232564   0.672   6.982   9.058
 2862TIP3    H132565   0.631   7.053   9.112
 2862TIP3    H232566   0.603   6.962   8.990
 2863TIP3   OH232567   1.272   6.517   7.800
 2863TIP3    H132568   1.327   6.539   7.879
 2863TIP3    H232569   1.309   6.570   7.726
 2864TIP3   OH232570   0.364   6.594   8.977
 2864TIP3    H132571   0.371   6.665   9.043
 2864TIP3    H232572   0.270   6.606   8.953
 2865TIP3   OH232573   1.042   7.190   8.148
 2865TIP3    H132574   1.085   7.222   8.228
 2865TIP3    H232575   0.986   7.265   8.123
 2866TIP3   OH232576   0.497   7.184   9.134
 2866TIP3    H132577   0.489   7.175   9.038
 2866TIP3    H232578   0.404   7.171   9.162
 2867TIP3   OH232579   0.443   6.567   7.980
 2867TIP3    H132580   0.409   6.648   7.940
 2867TIP3    H232581   0.373   6.502   7.971
 2868TIP3   OH232582   1.754   7.128   7.633
 2868TIP3    H132583   1.769   7.222   7.640
 2868TIP3    H232584   1.842   7.091   7.620
 2869TIP3   OH232585   0.102   6.765   8.851
 2869TIP3    H132586   0.026   6.802   8.803
 2869TIP3    H232587   0.056   6.697   8.903
 2870TIP3   OH232588   0.050   7.105   8.537
 2870TIP3    H132589   0.140   7.074   8.556
 2870TIP3    H232590   0.031   7.163   8.612
 2871TIP3   OH232591   1.850   7.154   9.123
 2871TIP3    H132592   1.837   7.059   9.117
 2871TIP3    H232593   1.762   7.179   9.160
 2872TIP3   OH232594   0.943   7.109   9.005
 2872TIP3    H132595   0.951   7.190   9.061
 2872TIP3    H232596   0.857   7.071   9.034
 2873TIP3   OH232597   0.987   7.481   7.986
 2873TIP3    H132598   0.981   7.475   7.889
 2873TIP3    H232599   0.992   7.577   8.002
 2874TIP3   OH232600   0.358   7.366   8.168
 2874TIP3    H132601   0.367   7.328   8.258
 2874TIP3    H232602   0.272   7.328   8.145
 2875TIP3   OH232603   1.297   7.403   7.685
 2875TIP3    H132604   1.331   7.322   7.642
 2875TIP3    H232605   1.297   7.376   7.778
 2876TIP3   OH232606   1.261   7.400   7.965
 2876TIP3    H132607   1.165   7.403   7.981
 2876TIP3    H232608   1.286   7.322   8.018
 2877TIP3   OH232609   1.561   6.301   9.172
 2877TIP3    H132610   1.515   6.343   9.097
 2877TIP3    H232611   1.562   6.209   9.140
 2878TIP3   OH232612   0.278   6.948   8.972
 2878TIP3    H132613   0.295   6.906   9.059
 2878TIP3    H232614   0.197   6.901   8.944
 2879TIP3   OH232615   0.547   5.790   8.562
 2879TIP3    H132616   0.456   5.776   8.528
 2879TIP3    H232617   0.533   5.871   8.613
 2880TIP3   OH232618   1.011   5.753   8.899
 2880TIP3    H132619   1.050   5.711   8.979
 2880TIP3    H232620   0.914   5.744   8.914
 2881TIP3   OH232621   1.338   6.141   8.988
 2881TIP3    H132622   1.282   6.119   9.068
 2881TIP3    H232623   1.320   6.234   8.969
 2882TIP3   OH232624   1.415   6.615   7.575
 2882TIP3    H132625   1.415   6.606   7.479
 2882TIP3    H232626   1.492   6.671   7.587
 2883TIP3   OH232627   0.961   6.012   7.632
 2883TIP3    H132628   0.948   6.006   7.729
 2883TIP3    H232629   0.956   5.919   7.605
 2884TIP3   OH232630   0.557   6.287   8.692
 2884TIP3    H132631   0.482   6.286   8.754
 2884TIP3    H232632   0.551   6.377   8.652
 2885TIP3   OH232633   0.553   6.297   8.176
 2885TIP3    H132634   0.459   6.273   8.164
 2885TIP3    H232635   0.589   6.268   8.091
 2886TIP3   OH232636   1.107   6.347   8.053
 2886TIP3    H132637   1.066   6.430   8.018
 2886TIP3    H232638   1.173   6.330   7.983
 2887TIP3   OH232639   1.010   6.366   9.192
 2887TIP3    H132640   0.957   6.291   9.229
 2887TIP3    H232641   1.091   6.359   9.246
 2888TIP3   OH232642   1.209   6.297   8.338
 2888TIP3    H132643   1.179   6.353   8.264
 2888TIP3    H232644   1.217   6.212   8.292
 2889TIP3   OH232645   0.319   6.312   8.858
 2889TIP3    H132646   0.322   6.353   8.945
 2889TIP3    H232647   0.273   6.228   8.877
 2890TIP3   OH232648   0.013   6.052   8.264
 2890TIP3    H132649   0.065   6.017   8.340
 2890TIP3    H232650   0.025   5.986   8.198
 2891TIP3   OH232651   0.108   6.106   7.795
 2891TIP3    H132652   0.162   6.158   7.731
 2891TIP3    H232653   0.042   6.168   7.823
 2892TIP3   OH232654   1.127   6.454   8.792
 2892TIP3    H132655   1.166   6.385   8.734
 2892TIP3    H232656   1.080   6.402   8.859
 2893TIP3   OH232657   0.808   6.054   8.277
 2893TIP3    H132658   0.715   6.053   8.305
 2893TIP3    H232659   0.856   6.034   8.359
 2894TIP3   OH232660   0.291   6.206   8.167
 2894TIP3    H132661   0.203   6.224   8.128
 2894TIP3    H232662   0.314   6.121   8.125
 2895TIP3   OH232663   0.653   6.209   7.924
 2895TIP3    H132664   0.747   6.220   7.948
 2895TIP3    H232665   0.633   6.283   7.864
 2896TIP3   OH232666   1.249   5.974   8.600
 2896TIP3    H132667   1.181   5.980   8.671
 2896TIP3    H232668   1.197   5.949   8.522
 2897TIP3   OH232669   0.522   6.333   7.680
 2897TIP3    H132670   0.467   6.291   7.612
 2897TIP3    H232671   0.607   6.355   7.638
 2898TIP3   OH232672   1.566   7.539   9.235
 2898TIP3    H132673   1.594   7.575   9.149
 2898TIP3    H232674   1.641   7.571   9.289
 2899TIP3   OH232675   0.340   6.785   9.192
 2899TIP3    H132676   0.414   6.810   9.251
 2899TIP3    H232677   0.265   6.796   9.253
 2900TIP3   OH232678   0.936   6.328   8.466
 2900TIP3    H132679   0.997   6.276   8.413
 2900TIP3    H232680   0.921   6.273   8.544
 2901TIP3   OH232681   0.438   5.943   8.109
 2901TIP3    H132682   0.405   5.851   8.109
 2901TIP3    H232683   0.519   5.934   8.057
 2902TIP3   OH232684   0.800   6.161   8.707
 2902TIP3    H132685   0.717   6.213   8.716
 2902TIP3    H232686   0.856   6.196   8.779
 2903TIP3   OH232687   0.857   6.784   7.882
 2903TIP3    H132688   0.781   6.738   7.845
 2903TIP3    H232689   0.835   6.798   7.976
 2904TIP3   OH232690   1.579   6.704   8.758
 2904TIP3    H132691   1.634   6.753   8.694
 2904TIP3    H232692   1.492   6.707   8.712
 2905TIP3   OH232693   1.242   6.061   7.705
 2905TIP3    H132694   1.152   6.076   7.673
 2905TIP3    H232695   1.274   6.150   7.725
 2906TIP3   OH232696   1.006   6.811   9.002
 2906TIP3    H132697   0.973   6.768   9.082
 2906TIP3    H232698   0.981   6.903   9.015
 2907TIP3   OH232699   1.319   6.256   7.866
 2907TIP3    H132700   1.409   6.243   7.901
 2907TIP3    H232701   1.322   6.336   7.810
 2908TIP3   OH232702   0.370   6.725   8.458
 2908TIP3    H132703   0.435   6.716   8.387
 2908TIP3    H232704   0.376   6.638   8.502
 2909TIP3   OH232705   1.075   6.934   7.798
 2909TIP3    H132706   1.026   7.017   7.815
 2909TIP3    H232707   1.003   6.868   7.790
 2910TIP3   OH232708   0.079   6.546   8.980
 2910TIP3    H132709   0.087   6.513   9.070
 2910TIP3    H232710   0.001   6.501   8.943
 2911TIP3   OH232711   0.770   6.520   9.200
 2911TIP3    H132712   0.738   6.487   9.114
 2911TIP3    H232713   0.862   6.485   9.202
 2912TIP3   OH232714   1.237   7.052   8.999
 2912TIP3    H132715   1.146   7.071   8.974
 2912TIP3    H232716   1.234   7.083   9.092
 2913TIP3   OH232717   1.807   6.271   7.836
 2913TIP3    H132718   1.746   6.240   7.766
 2913TIP3    H232719   1.805   6.365   7.816
 2914TIP3   OH232720   1.802   6.853   9.116
 2914TIP3    H132721   1.715   6.881   9.079
 2914TIP3    H232722   1.859   6.853   9.036
 2915TIP3   OH232723   1.636   7.153   7.876
 2915TIP3    H132724   1.595   7.070   7.906
 2915TIP3    H232725   1.660   7.133   7.783
 2916TIP3   OH232726   1.355   6.634   8.587
 2916TIP3    H132727   1.261   6.614   8.574
 2916TIP3    H232728   1.399   6.560   8.541
 2917TIP3   OH232729   0.607   7.067   8.197
 2917TIP3    H132730   0.656   7.148   8.175
 2917TIP3    H232731   0.520   7.090   8.163
 2918TIP3   OH232732   0.748   6.835   8.147
 2918TIP3    H132733   0.716   6.927   8.156
 2918TIP3    H232734   0.677   6.785   8.192
 2919TIP3   OH232735   0.793   7.253   8.790
 2919TIP3    H132736   0.840   7.333   8.760
 2919TIP3    H232737   0.855   7.218   8.856
 2920TIP3   OH232738   0.618   7.331   8.103
 2920TIP3    H132739   0.521   7.346   8.117
 2920TIP3    H232740   0.654   7.415   8.136
 2921TIP3   OH232741   1.144   6.852   8.749
 2921TIP3    H132742   1.114   6.834   8.840
 2921TIP3    H232743   1.209   6.782   8.733
 2922TIP3   OH232744   1.429   7.311   8.998
 2922TIP3    H132745   1.358   7.262   8.951
 2922TIP3    H232746   1.446   7.381   8.932
 2923TIP3   OH232747   1.816   7.402   7.673
 2923TIP3    H132748   1.897   7.456   7.673
 2923TIP3    H232749   1.752   7.457   7.723
 2924TIP3   OH232750   0.234   6.036   8.936
 2924TIP3    H132751   0.144   6.071   8.941
 2924TIP3    H232752   0.220   5.951   8.982
 2925TIP3   OH232753   1.460   6.829   7.890
 2925TIP3    H132754   1.432   6.746   7.934
 2925TIP3    H232755   1.557   6.826   7.900
 2926TIP3   OH232756   0.196   7.213   8.776
 2926TIP3    H132757   0.227   7.121   8.782
 2926TIP3    H232758   0.218   7.244   8.865
 2927TIP3   OH232759   0.664   7.020   7.757
 2927TIP3    H132760   0.701   6.969   7.830
 2927TIP3    H232761   0.682   7.112   7.783
 2928TIP3   OH232762   1.107   6.014   8.835
 2928TIP3    H132763   1.178   6.020   8.900
 2928TIP3    H232764   1.069   5.926   8.857
 2929TIP3   OH232765   1.183   5.970   7.945
 2929TIP3    H132766   1.205   6.017   7.862
 2929TIP3    H232767   1.240   6.015   8.008
 2930TIP3   OH232768   0.945   7.190   7.826
 2930TIP3    H132769   0.864   7.241   7.831
 2930TIP3    H232770   1.001   7.239   7.764
 2931TIP3   OH232771   0.903   6.144   8.025
 2931TIP3    H132772   0.981   6.204   8.028
 2931TIP3    H232773   0.877   6.132   8.118
 2932TIP3   OH232774   0.960   6.248   8.942
 2932TIP3    H132775   0.967   6.303   9.024
 2932TIP3    H232776   1.026   6.178   8.954
 2933TIP3   OH232777   0.991   5.850   8.113
 2933TIP3    H132778   0.956   5.916   8.175
 2933TIP3    H232779   1.059   5.906   8.068
 2934TIP3   OH232780   0.685   7.296   7.829
 2934TIP3    H132781   0.706   7.376   7.780
 2934TIP3    H232782   0.664   7.325   7.921
 2935TIP3   OH232783   1.577   6.037   9.031
 2935TIP3    H132784   1.484   6.067   9.017
 2935TIP3    H232785   1.607   6.033   8.939
 2936TIP3   OH232786   1.439   6.415   8.431
 2936TIP3    H132787   1.357   6.370   8.402
 2936TIP3    H232788   1.486   6.345   8.482
 2937TIP3   OH232789   0.381   7.007   7.689
 2937TIP3    H132790   0.446   7.069   7.723
 2937TIP3    H232791   0.436   6.964   7.622
 2938TIP3   OH232792   0.213   6.271   7.609
 2938TIP3    H132793   0.205   6.366   7.621
 2938TIP3    H232794   0.130   6.247   7.564
 2939TIP3   OH232795   1.545   7.339   8.595
 2939TIP3    H132796   1.538   7.409   8.528
 2939TIP3    H232797   1.642   7.344   8.614
 2940TIP3   OH232798   0.291   5.756   8.473
 2940TIP3    H132799   0.272   5.751   8.377
 2940TIP3    H232800   0.256   5.669   8.503
 2941TIP3   OH232801   0.190   7.142   8.092
 2941TIP3    H132802   0.106   7.189   8.086
 2941TIP3    H232803   0.239   7.189   8.022
 2942TIP3   OH232804   0.112   7.407   9.220
 2942TIP3    H132805   0.172   7.382   9.292
 2942TIP3    H232806   0.067   7.323   9.198
 2943TIP3   OH232807   0.580   7.303   9.378
 2943TIP3    H132808   0.652   7.249   9.414
 2943TIP3    H232809   0.577   7.270   9.287
 2944TIP3   OH232810   1.230   7.139   9.255
 2944TIP3    H132811   1.195   7.052   9.285
 2944TIP3    H232812   1.304   7.152   9.316
 2945TIP3   OH232813   0.102   6.790   9.323
 2945TIP3    H132814   0.119   6.699   9.291
 2945TIP3    H232815   0.032   6.816   9.262
 2946TIP3   OH232816   0.774   6.785   9.257
 2946TIP3    H132817   0.740   6.818   9.173
 2946TIP3    H232818   0.778   6.687   9.246
 2947TIP3   OH232819   1.344   6.770   9.001
 2947TIP3    H132820   1.421   6.829   8.992
 2947TIP3    H232821   1.273   6.837   9.002
 2948TIP3   OH232822   0.178   6.508   9.259
 2948TIP3    H132823   0.236   6.430   9.250
 2948TIP3    H232824   0.166   6.510   9.355
 2949TIP3   OH232825   0.583   6.403   8.993
 2949TIP3    H132826   0.522   6.475   9.018
 2949TIP3    H232827   0.623   6.440   8.913
 2950TIP3   OH232828   1.093   6.658   9.316
 2950TIP3    H132829   1.188   6.658   9.320
 2950TIP3    H232830   1.071   6.588   9.383
 2951TIP3   OH232831   0.627   6.142   9.098
 2951TIP3    H132832   0.636   6.071   9.032
 2951TIP3    H232833   0.617   6.222   9.043
 2952TIP3   OH232834   0.665   5.979   8.854
 2952TIP3    H132835   0.716   6.027   8.784
 2952TIP3    H232836   0.575   5.972   8.814
 2953TIP3   OH232837   0.818   6.530   8.879
 2953TIP3    H132838   0.894   6.513   8.822
 2953TIP3    H232839   0.781   6.612   8.844
 2954TIP3   OH232840   1.260   6.303   9.366
 2954TIP3    H132841   1.278   6.208   9.371
 2954TIP3    H232842   1.344   6.345   9.381
 2955TIP3   OH232843   1.396   6.586   9.197
 2955TIP3    H132844   1.364   6.653   9.132
 2955TIP3    H232845   1.489   6.582   9.168
 2956TIP3   OH232846   0.470   6.267   9.289
 2956TIP3    H132847   0.393   6.209   9.273
 2956TIP3    H232848   0.534   6.229   9.226
 2957TIP3   OH232849   0.744   5.723   8.892
 2957TIP3    H132850   0.725   5.820   8.884
 2957TIP3    H232851   0.669   5.686   8.842
 2958TIP3   OH232852   0.870   6.156   9.257
 2958TIP3    H132853   0.841   6.134   9.347
 2958TIP3    H232854   0.792   6.135   9.204
 2959TIP3   OH232855   1.142   6.066   9.161
 2959TIP3    H132856   1.047   6.079   9.179
 2959TIP3    H232857   1.169   6.009   9.236
 2960TIP3   OH232858   1.300   5.932   9.352
 2960TIP3    H132859   1.295   5.835   9.360
 2960TIP3    H232860   1.277   5.965   9.442
 2961TIP3   OH232861   0.284   6.060   9.268
 2961TIP3    H132862   0.306   5.987   9.207
 2961TIP3    H232863   0.272   6.013   9.354
 2962TIP3   OH232864   0.764   5.663   9.163
 2962TIP3    H132865   0.832   5.593   9.162
 2962TIP3    H232866   0.753   5.677   9.067
 2963TIP3   OH232867   0.798   5.821   9.376
 2963TIP3    H132868   0.782   5.772   9.291
 2963TIP3    H232869   0.743   5.901   9.366
 2964TIP3   OH232870   0.108   6.975   7.637
 2964TIP3    H132871   0.203   6.988   7.656
 2964TIP3    H232872   0.106   6.909   7.566
 2965TIP3   OH232873  -0.004   7.521   8.129
 2965TIP3    H132874  -0.083   7.475   8.098
 2965TIP3    H232875   0.015   7.459   8.201
 2966TIP3   OH232876   0.084   7.327   8.316
 2966TIP3    H132877   0.036   7.244   8.333
 2966TIP3    H232878   0.095   7.363   8.406
 2967TIP3   OH232879   1.820   7.370   8.627
 2967TIP3    H132880   1.816   7.415   8.712
 2967TIP3    H232881   1.867   7.447   8.583
 2968TIP3   OH232882   1.772   7.363   8.915
 2968TIP3    H132883   1.729   7.287   8.871
 2968TIP3    H232884   1.824   7.316   8.982
 2969TIP3   OH232885   1.620   6.934   9.382
 2969TIP3    H132886   1.528   6.936   9.414
 2969TIP3    H232887   1.656   7.018   9.417
 2970TIP3   OH232888   1.753   6.765   7.919
 2970TIP3    H132889   1.838   6.808   7.940
 2970TIP3    H232890   1.750   6.697   7.988
 2971TIP3   OH232891   1.789   6.576   8.108
 2971TIP3    H132892   1.711   6.529   8.145
 2971TIP3    H232893   1.845   6.591   8.187
 2972TIP3   OH232894   1.762   6.846   8.609
 2972TIP3    H132895   1.842   6.808   8.570
 2972TIP3    H232896   1.777   6.941   8.591
 2973TIP3   OH232897   1.618   7.136   8.835
 2973TIP3    H132898   1.549   7.171   8.894
 2973TIP3    H232899   1.564   7.097   8.764
 2974TIP3   OH232900   1.659   6.285   7.605
 2974TIP3    H132901   1.655   6.351   7.534
 2974TIP3    H232902   1.633   6.205   7.559
 2975TIP3   OH232903   1.569   6.424   8.168
 2975TIP3    H132904   1.553   6.328   8.162
 2975TIP3    H232905   1.536   6.444   8.258
 2976TIP3   OH232906   0.068   6.628   8.572
 2976TIP3    H132907   0.087   6.623   8.477
 2976TIP3    H232908   0.157   6.617   8.610
 2977TIP3   OH232909   1.656   6.620   9.147
 2977TIP3    H132910   1.719   6.545   9.144
 2977TIP3    H232911   1.715   6.698   9.133
 2978TIP3   OH232912   1.799   6.406   9.211
 2978TIP3    H132913   1.717   6.366   9.178
 2978TIP3    H232914   1.863   6.334   9.193
 2979TIP3   OH232915   1.536   6.182   8.014
 2979TIP3    H132916   1.564   6.089   8.025
 2979TIP3    H232917   1.616   6.221   7.975
 2980TIP3   OH232918   1.599   6.237   8.558
 2980TIP3    H132919   1.695   6.260   8.556
 2980TIP3    H232920   1.581   6.251   8.652
 2981TIP3   OH232921   1.606   6.309   8.836
 2981TIP3    H132922   1.517   6.337   8.865
 2981TIP3    H232923   1.649   6.394   8.813
 2982TIP3   OH232924   0.051   6.122   9.152
 2982TIP3    H132925   0.134   6.134   9.202
 2982TIP3    H232926  -0.008   6.079   9.215
 2983TIP3   OH232927   1.834   5.715   9.369
 2983TIP3    H132928   1.869   5.649   9.307
 2983TIP3    H232929   1.843   5.797   9.314
 2984TIP3   OH232930   1.603   5.912   8.014
 2984TIP3    H132931   1.624   5.870   8.100
 2984TIP3    H232932   1.541   5.849   7.972
 2985TIP3   OH232933   0.152   5.991   8.479
 2985TIP3    H132934   0.201   5.909   8.500
 2985TIP3    H232935   0.207   6.061   8.518
 2986TIP3   OH232936   0.001   6.300   8.585
 2986TIP3    H132937   0.047   6.277   8.503
 2986TIP3    H232938   0.035   6.388   8.603
 2987TIP3   OH232939   1.785   5.925   9.204
 2987TIP3    H132940   1.691   5.951   9.199
 2987TIP3    H232941   1.788   5.869   9.124
 2988TIP3   OH232942   0.037   5.899   7.939
 2988TIP3    H132943  -0.056   5.922   7.951
 2988TIP3    H232944   0.075   5.978   7.896
 2989TIP3   OH232945   1.491   7.411   8.180
 2989TIP3    H132946   1.559   7.382   8.116
 2989TIP3    H232947   1.542   7.462   8.245
 2990TIP3   OH232948   0.028   5.796   8.827
 2990TIP3    H132949  -0.046   5.768   8.883
 2990TIP3    H232950  -0.026   5.858   8.772
 2991TIP3   OH232951   0.234   7.109   9.230
 2991TIP3    H132952   0.149   7.126   9.186
 2991TIP3    H232953   0.209   7.097   9.322
 2992TIP3   OH232954   0.519   7.203   8.853
 2992TIP3    H132955   0.490   7.292   8.829
 2992TIP3    H232956   0.615   7.211   8.830
 2993TIP3   OH232957   0.957   7.346   9.148
 2993TIP3    H132958   0.970   7.312   9.239
 2993TIP3    H232959   1.047   7.377   9.124
 2994TIP3   OH232960   1.185   7.473   9.079
 2994TIP3    H132961   1.259   7.416   9.055
 2994TIP3    H232962   1.221   7.518   9.158
 2995TIP3   OH232963   1.687   5.734   8.990
 2995TIP3    H132964   1.605   5.764   8.949
 2995TIP3    H232965   1.704   5.651   8.939
 2996TIP3   OH232966   0.263   7.522   8.858
 2996TIP3    H132967   0.191   7.578   8.820
 2996TIP3    H232968   0.232   7.511   8.949
 2997TIP3   OH232969   0.516   7.483   8.765
 2997TIP3    H132970   0.427   7.501   8.805
 2997TIP3    H232971   0.511   7.542   8.687
 2998TIP3   OH232972   0.985   7.476   8.682
 2998TIP3    H132973   0.939   7.531   8.617
 2998TIP3    H232974   0.999   7.540   8.755
 2999TIP3   OH232975   1.212   7.355   8.786
 2999TIP3    H132976   1.128   7.385   8.747
 2999TIP3    H232977   1.263   7.438   8.777
 3000TIP3   OH232978   1.464   7.512   8.804
 3000TIP3    H132979   1.466   7.609   8.784
 3000TIP3    H232980   1.494   7.475   8.719
 3001TIP3   OH232981   0.216   7.395   8.548
 3001TIP3    H132982   0.202   7.350   8.634
 3001TIP3    H232983   0.296   7.353   8.510
 3002TIP3   OH232984   0.420   7.261   8.415
 3002TIP3    H132985   0.405   7.168   8.440
 3002TIP3    H232986   0.505   7.279   8.461
 3003TIP3   OH232987   0.680   7.311   8.505
 3003TIP3    H132988   0.696   7.219   8.479
 3003TIP3    H232989   0.686   7.306   8.602
 3004TIP3   OH232990   1.026   5.876   8.419
 3004TIP3    H132991   0.959   5.813   8.447
 3004TIP3    H232992   1.081   5.823   8.360
 3005TIP3   OH232993   1.538   5.674   8.415
 3005TIP3    H132994   1.601   5.741   8.376
 3005TIP3    H232995   1.451   5.718   8.401
 3006TIP3   OH232996   1.707   5.806   8.250
 3006TIP3    H132997   1.778   5.752   8.209
 3006TIP3    H232998   1.756   5.891   8.266
 3007TIP3   OH232999   0.267   5.738   8.204
 3007TIP3    H133000   0.186   5.719   8.152
 3007TIP3    H233001   0.312   5.652   8.194
 3008TIP3   OH233002   0.148   5.715   7.786
 3008TIP3    H133003   0.182   5.773   7.717
 3008TIP3    H233004   0.083   5.773   7.831
 3009TIP3   OH233005   0.709   5.732   8.181
 3009TIP3    H133006   0.800   5.766   8.173
 3009TIP3    H233007   0.706   5.710   8.274
 3010TIP3   OH233008   1.286   5.730   8.343
 3010TIP3    H133009   1.274   5.747   8.248
 3010TIP3    H233010   1.240   5.644   8.357
 3011TIP3   OH233011   1.408   5.738   7.926
 3011TIP3    H133012   1.338   5.796   7.893
 3011TIP3    H233013   1.366   5.649   7.925
 3012TIP3   OH233014   0.137   7.318   7.874
 3012TIP3    H133015   0.068   7.307   7.808
 3012TIP3    H233016   0.130   7.412   7.892
 3013TIP3   OH233017   0.827   5.937   7.864
 3013TIP3    H133018   0.849   5.877   7.937
 3013TIP3    H233019   0.833   6.021   7.914
 3014TIP3   OH233020   1.019   7.431   7.706
 3014TIP3    H133021   1.107   7.470   7.689
 3014TIP3    H233022   0.997   7.394   7.620
 3015TIP3   OH233023   1.689   7.394   7.981
 3015TIP3    H133024   1.669   7.311   7.929
 3015TIP3    H233025   1.680   7.465   7.915
 3016TIP3   OH233026   0.249   5.797   9.155
 3016TIP3    H133027   0.211   5.713   9.187
 3016TIP3    H233028   0.342   5.788   9.187
 3017TIP3   OH233029   0.455   5.731   9.313
 3017TIP3    H133030   0.544   5.697   9.292
 3017TIP3    H233031   0.414   5.652   9.352
 3018TIP3   OH233032   1.292   5.660   9.328
 3018TIP3    H133033   1.301   5.612   9.413
 3018TIP3    H233034   1.384   5.657   9.294
 3019TIP3   OH233035   1.613   7.265   9.190
 3019TIP3    H133036   1.532   7.252   9.135
 3019TIP3    H233037   1.601   7.360   9.212
 3020TIP3   OH233038   3.045   6.662   8.192
 3020TIP3    H133039   3.046   6.761   8.184
 3020TIP3    H233040   2.974   6.641   8.127
 3021TIP3   OH233041   2.954   6.574   8.536
 3021TIP3    H133042   2.939   6.515   8.611
 3021TIP3    H233043   2.905   6.527   8.467
 3022TIP3   OH233044   2.179   6.546   8.692
 3022TIP3    H133045   2.186   6.477   8.761
 3022TIP3    H233046   2.253   6.603   8.716
 3023TIP3   OH233047   3.309   6.871   8.367
 3023TIP3    H133048   3.270   6.803   8.421
 3023TIP3    H233049   3.316   6.943   8.432
 3024TIP3   OH233050   2.271   6.991   8.542
 3024TIP3    H133051   2.240   6.903   8.512
 3024TIP3    H233052   2.367   6.973   8.547
 3025TIP3   OH233053   1.939   6.350   8.084
 3025TIP3    H133054   1.887   6.433   8.090
 3025TIP3    H233055   1.876   6.292   8.039
 3026TIP3   OH233056   2.006   6.570   8.304
 3026TIP3    H133057   2.033   6.488   8.350
 3026TIP3    H233058   2.077   6.582   8.240
 3027TIP3   OH233059   3.023   7.390   8.390
 3027TIP3    H133060   3.088   7.322   8.361
 3027TIP3    H233061   3.001   7.355   8.476
 3028TIP3   OH233062   2.780   6.817   8.589
 3028TIP3    H133063   2.812   6.757   8.520
 3028TIP3    H233064   2.863   6.835   8.637
 3029TIP3   OH233065   3.638   5.986   8.657
 3029TIP3    H133066   3.658   6.043   8.735
 3029TIP3    H233067   3.698   6.026   8.593
 3030TIP3   OH233068   3.102   6.267   8.617
 3030TIP3    H133069   3.113   6.170   8.619
 3030TIP3    H233070   3.085   6.278   8.523
 3031TIP3   OH233071   2.456   6.097   8.232
 3031TIP3    H133072   2.420   6.166   8.290
 3031TIP3    H233073   2.394   6.027   8.265
 3032TIP3   OH233074   3.180   6.089   8.182
 3032TIP3    H133075   3.246   6.049   8.244
 3032TIP3    H233076   3.240   6.135   8.121
 3033TIP3   OH233077   2.060   6.321   8.407
 3033TIP3    H133078   2.128   6.271   8.460
 3033TIP3    H233079   2.082   6.284   8.319
 3034TIP3   OH233080   2.589   6.471   8.345
 3034TIP3    H133081   2.652   6.410   8.386
 3034TIP3    H233082   2.536   6.408   8.292
 3035TIP3   OH233083   3.683   6.125   8.886
 3035TIP3    H133084   3.623   6.202   8.876
 3035TIP3    H233085   3.688   6.116   8.982
 3036TIP3   OH233086   2.301   5.966   8.756
 3036TIP3    H133087   2.277   6.009   8.670
 3036TIP3    H233088   2.226   5.990   8.814
 3037TIP3   OH233089   3.026   6.911   8.097
 3037TIP3    H133090   3.002   6.891   8.005
 3037TIP3    H233091   2.999   7.006   8.102
 3038TIP3   OH233092   2.551   6.729   8.766
 3038TIP3    H133093   2.480   6.793   8.790
 3038TIP3    H233094   2.621   6.788   8.737
 3039TIP3   OH233095   3.363   6.021   8.376
 3039TIP3    H133096   3.341   5.942   8.427
 3039TIP3    H233097   3.433   6.060   8.431
 3040TIP3   OH233098   2.238   6.203   8.555
 3040TIP3    H133099   2.324   6.231   8.590
 3040TIP3    H233100   2.274   6.135   8.492
 3041TIP3   OH233101   2.397   6.929   8.849
 3041TIP3    H133102   2.391   7.021   8.815
 3041TIP3    H233103   2.308   6.921   8.892
 3042TIP3   OH233104   1.996   6.888   7.925
 3042TIP3    H133105   1.979   6.925   7.836
 3042TIP3    H233106   2.011   6.969   7.976
 3043TIP3   OH233107   3.364   7.056   8.606
 3043TIP3    H133108   3.267   7.069   8.615
 3043TIP3    H233109   3.391   7.147   8.583
 3044TIP3   OH233110   3.397   5.885   8.743
 3044TIP3    H133111   3.324   5.948   8.732
 3044TIP3    H233112   3.468   5.927   8.691
 3045TIP3   OH233113   2.693   5.697   8.488
 3045TIP3    H133114   2.675   5.602   8.480
 3045TIP3    H233115   2.605   5.728   8.520
 3046TIP3   OH233116   3.192   7.237   8.266
 3046TIP3    H133117   3.231   7.165   8.213
 3046TIP3    H233118   3.235   7.315   8.225
 3047TIP3   OH233119   3.311   7.028   8.116
 3047TIP3    H133120   3.285   6.960   8.051
 3047TIP3    H233121   3.315   6.979   8.199
 3048TIP3   OH233122   3.470   6.886   8.962
 3048TIP3    H133123   3.492   6.827   8.888
 3048TIP3    H233124   3.492   6.973   8.923
 3049TIP3   OH233125   2.927   6.586   7.946
 3049TIP3    H133126   2.852   6.633   7.904
 3049TIP3    H233127   2.992   6.584   7.872
 3050TIP3   OH233128   2.924   6.425   7.658
 3050TIP3    H133129   3.008   6.429   7.705
 3050TIP3    H233130   2.953   6.374   7.580
 3051TIP3   OH233131   3.657   6.520   8.766
 3051TIP3    H133132   3.599   6.597   8.766
 3051TIP3    H233133   3.713   6.540   8.689
 3052TIP3   OH233134   3.272   6.597   8.025
 3052TIP3    H133135   3.206   6.642   8.082
 3052TIP3    H233136   3.333   6.540   8.077
 3053TIP3   OH233137   3.247   6.406   8.939
 3053TIP3    H133138   3.218   6.463   9.012
 3053TIP3    H233139   3.180   6.429   8.869
 3054TIP3   OH233140   2.429   6.665   8.224
 3054TIP3    H133141   2.397   6.625   8.140
 3054TIP3    H233142   2.491   6.595   8.256
 3055TIP3   OH233143   2.561   7.000   8.491
 3055TIP3    H133144   2.562   6.950   8.409
 3055TIP3    H233145   2.639   6.966   8.537
 3056TIP3   OH233146   2.462   6.541   8.591
 3056TIP3    H133147   2.516   6.550   8.510
 3056TIP3    H233148   2.502   6.607   8.652
 3057TIP3   OH233149   3.106   7.097   8.661
 3057TIP3    H133150   3.076   7.160   8.728
 3057TIP3    H233151   3.077   7.012   8.702
 3058TIP3   OH233152   2.558   6.982   9.060
 3058TIP3    H133153   2.515   7.055   9.109
 3058TIP3    H233154   2.490   6.961   8.990
 3059TIP3   OH233155   3.154   6.519   7.801
 3059TIP3    H133156   3.216   6.539   7.875
 3059TIP3    H233157   3.192   6.567   7.726
 3060TIP3   OH233158   2.253   6.598   8.976
 3060TIP3    H133159   2.257   6.666   9.046
 3060TIP3    H233160   2.159   6.604   8.954
 3061TIP3   OH233161   2.929   7.190   8.145
 3061TIP3    H133162   2.971   7.221   8.226
 3061TIP3    H233163   2.872   7.264   8.122
 3062TIP3   OH233164   2.382   7.184   9.134
 3062TIP3    H133165   2.375   7.175   9.037
 3062TIP3    H233166   2.289   7.170   9.161
 3063TIP3   OH233167   2.328   6.570   7.972
 3063TIP3    H133168   2.292   6.652   7.940
 3063TIP3    H233169   2.260   6.502   7.970
 3064TIP3   OH233170   3.642   7.131   7.630
 3064TIP3    H133171   3.659   7.226   7.637
 3064TIP3    H233172   3.731   7.092   7.620
 3065TIP3   OH233173   1.935   6.809   8.876
 3065TIP3    H133174   1.891   6.802   8.789
 3065TIP3    H233175   1.943   6.714   8.898
 3066TIP3   OH233176   1.911   7.081   8.554
 3066TIP3    H133177   2.007   7.074   8.551
 3066TIP3    H233178   1.900   7.167   8.600
 3067TIP3   OH233179   3.735   7.153   9.123
 3067TIP3    H133180   3.723   7.057   9.119
 3067TIP3    H233181   3.647   7.178   9.161
 3068TIP3   OH233182   2.830   7.107   9.008
 3068TIP3    H133183   2.836   7.191   9.059
 3068TIP3    H233184   2.742   7.072   9.032
 3069TIP3   OH233185   2.874   7.481   7.985
 3069TIP3    H133186   2.870   7.477   7.888
 3069TIP3    H233187   2.878   7.576   8.006
 3070TIP3   OH233188   2.241   7.367   8.170
 3070TIP3    H133189   2.254   7.330   8.260
 3070TIP3    H233190   2.154   7.329   8.149
 3071TIP3   OH233191   3.146   7.402   7.966
 3071TIP3    H133192   3.050   7.402   7.982
 3071TIP3    H233193   3.172   7.323   8.016
 3072TIP3   OH233194   3.451   6.300   9.167
 3072TIP3    H133195   3.398   6.339   9.097
 3072TIP3    H233196   3.449   6.206   9.143
 3073TIP3   OH233197   2.164   6.940   8.969
 3073TIP3    H133198   2.185   6.905   9.057
 3073TIP3    H233199   2.077   6.901   8.948
 3074TIP3   OH233200   2.438   5.748   8.591
 3074TIP3    H133201   2.359   5.761   8.533
 3074TIP3    H233202   2.434   5.844   8.610
 3075TIP3   OH233203   2.897   5.754   8.900
 3075TIP3    H133204   2.936   5.712   8.978
 3075TIP3    H233205   2.800   5.743   8.915
 3076TIP3   OH233206   3.226   6.141   8.993
 3076TIP3    H133207   3.167   6.115   9.068
 3076TIP3    H233208   3.202   6.232   8.969
 3077TIP3   OH233209   2.853   6.012   7.634
 3077TIP3    H133210   2.832   6.008   7.728
 3077TIP3    H233211   2.840   5.922   7.604
 3078TIP3   OH233212   2.447   6.290   8.694
 3078TIP3    H133213   2.369   6.284   8.752
 3078TIP3    H233214   2.434   6.378   8.651
 3079TIP3   OH233215   2.424   6.333   8.152
 3079TIP3    H133216   2.347   6.275   8.164
 3079TIP3    H233217   2.475   6.270   8.097
 3080TIP3   OH233218   3.006   6.360   8.062
 3080TIP3    H133219   2.948   6.426   8.016
 3080TIP3    H233220   3.054   6.324   7.984
 3081TIP3   OH233221   2.897   6.367   9.192
 3081TIP3    H133222   2.843   6.291   9.225
 3081TIP3    H233223   2.977   6.360   9.247
 3082TIP3   OH233224   3.101   6.302   8.331
 3082TIP3    H133225   3.045   6.340   8.262
 3082TIP3    H233226   3.104   6.210   8.297
 3083TIP3   OH233227   2.202   6.312   8.859
 3083TIP3    H133228   2.213   6.350   8.948
 3083TIP3    H233229   2.163   6.225   8.877
 3084TIP3   OH233230   1.867   6.019   8.255
 3084TIP3    H133231   1.935   6.016   8.326
 3084TIP3    H233232   1.917   5.985   8.179
 3085TIP3   OH233233   1.999   6.098   7.800
 3085TIP3    H133234   2.045   6.150   7.734
 3085TIP3    H233235   1.926   6.158   7.826
 3086TIP3   OH233236   3.019   6.454   8.796
 3086TIP3    H133237   3.049   6.384   8.734
 3086TIP3    H233238   2.963   6.403   8.858
 3087TIP3   OH233239   2.709   6.049   8.278
 3087TIP3    H133240   2.610   6.053   8.291
 3087TIP3    H233241   2.742   6.032   8.366
 3088TIP3   OH233242   2.171   6.209   8.166
 3088TIP3    H133243   2.084   6.218   8.123
 3088TIP3    H233244   2.205   6.125   8.128
 3089TIP3   OH233245   2.537   6.214   7.927
 3089TIP3    H133246   2.633   6.221   7.943
 3089TIP3    H233247   2.517   6.278   7.858
 3090TIP3   OH233248   3.133   5.977   8.601
 3090TIP3    H133249   3.065   5.980   8.671
 3090TIP3    H233250   3.083   5.949   8.523
 3091TIP3   OH233251   2.394   6.345   7.673
 3091TIP3    H133252   2.359   6.278   7.614
 3091TIP3    H233253   2.489   6.347   7.647
 3092TIP3   OH233254   3.453   7.539   9.234
 3092TIP3    H133255   3.479   7.577   9.148
 3092TIP3    H233256   3.526   7.571   9.288
 3093TIP3   OH233257   2.220   6.790   9.191
 3093TIP3    H133258   2.294   6.812   9.251
 3093TIP3    H233259   2.144   6.794   9.253
 3094TIP3   OH233260   2.826   6.331   8.469
 3094TIP3    H133261   2.875   6.269   8.413
 3094TIP3    H233262   2.803   6.274   8.544
 3095TIP3   OH233263   2.305   5.934   8.086
 3095TIP3    H133264   2.293   5.843   8.115
 3095TIP3    H233265   2.399   5.939   8.065
 3096TIP3   OH233266   2.690   6.163   8.707
 3096TIP3    H133267   2.604   6.211   8.715
 3096TIP3    H233268   2.741   6.197   8.782
 3097TIP3   OH233269   2.737   6.779   7.872
 3097TIP3    H133270   2.656   6.731   7.858
 3097TIP3    H233271   2.725   6.798   7.968
 3098TIP3   OH233272   3.459   6.702   8.760
 3098TIP3    H133273   3.519   6.750   8.698
 3098TIP3    H233274   3.377   6.710   8.707
 3099TIP3   OH233275   2.898   6.811   9.005
 3099TIP3    H133276   2.858   6.768   9.082
 3099TIP3    H233277   2.867   6.902   9.012
 3100TIP3   OH233278   3.200   6.260   7.874
 3100TIP3    H133279   3.292   6.237   7.893
 3100TIP3    H233280   3.208   6.328   7.804
 3101TIP3   OH233281   2.255   6.722   8.457
 3101TIP3    H133282   2.322   6.715   8.386
 3101TIP3    H233283   2.263   6.637   8.503
 3102TIP3   OH233284   2.958   6.926   7.786
 3102TIP3    H133285   2.923   7.014   7.809
 3102TIP3    H233286   2.881   6.869   7.801
 3103TIP3   OH233287   1.951   6.564   8.986
 3103TIP3    H133288   1.972   6.517   9.068
 3103TIP3    H233289   1.895   6.501   8.936
 3104TIP3   OH233290   2.657   6.520   9.201
 3104TIP3    H133291   2.624   6.487   9.116
 3104TIP3    H233292   2.749   6.488   9.202
 3105TIP3   OH233293   3.125   7.048   9.000
 3105TIP3    H133294   3.034   7.070   8.973
 3105TIP3    H233295   3.120   7.085   9.090
 3106TIP3   OH233296   3.698   6.272   7.826
 3106TIP3    H133297   3.634   6.239   7.761
 3106TIP3    H233298   3.695   6.368   7.809
 3107TIP3   OH233299   3.688   6.855   9.115
 3107TIP3    H133300   3.602   6.885   9.080
 3107TIP3    H233301   3.746   6.855   9.036
 3108TIP3   OH233302   3.516   7.156   7.875
 3108TIP3    H133303   3.485   7.071   7.908
 3108TIP3    H233304   3.547   7.133   7.784
 3109TIP3   OH233305   3.241   6.634   8.585
 3109TIP3    H133306   3.146   6.615   8.572
 3109TIP3    H233307   3.283   6.558   8.540
 3110TIP3   OH233308   2.493   7.068   8.196
 3110TIP3    H133309   2.542   7.149   8.175
 3110TIP3    H233310   2.405   7.091   8.162
 3111TIP3   OH233311   2.633   6.835   8.145
 3111TIP3    H133312   2.601   6.927   8.157
 3111TIP3    H233313   2.563   6.785   8.193
 3112TIP3   OH233314   2.679   7.253   8.790
 3112TIP3    H133315   2.726   7.333   8.760
 3112TIP3    H233316   2.741   7.218   8.856
 3113TIP3   OH233317   2.502   7.332   8.102
 3113TIP3    H133318   2.406   7.347   8.116
 3113TIP3    H233319   2.539   7.417   8.135
 3114TIP3   OH233320   3.032   6.853   8.749
 3114TIP3    H133321   2.998   6.835   8.839
 3114TIP3    H233322   3.093   6.781   8.731
 3115TIP3   OH233323   3.260   6.957   7.658
 3115TIP3    H133324   3.292   6.911   7.737
 3115TIP3    H233325   3.166   6.940   7.667
 3116TIP3   OH233326   3.313   7.311   8.999
 3116TIP3    H133327   3.244   7.262   8.952
 3116TIP3    H233328   3.331   7.381   8.933
 3117TIP3   OH233329   3.710   7.403   7.677
 3117TIP3    H133330   3.788   7.461   7.671
 3117TIP3    H233331   3.644   7.460   7.718
 3118TIP3   OH233332   2.119   6.038   8.940
 3118TIP3    H133333   2.028   6.071   8.934
 3118TIP3    H233334   2.109   5.951   8.981
 3119TIP3   OH233335   3.343   6.823   7.888
 3119TIP3    H133336   3.322   6.743   7.937
 3119TIP3    H233337   3.441   6.824   7.892
 3120TIP3   OH233338   2.081   7.212   8.782
 3120TIP3    H133339   2.114   7.120   8.783
 3120TIP3    H233340   2.107   7.245   8.868
 3121TIP3   OH233341   2.554   7.023   7.752
 3121TIP3    H133342   2.580   6.973   7.829
 3121TIP3    H233343   2.562   7.115   7.784
 3122TIP3   OH233344   2.993   6.014   8.836
 3122TIP3    H133345   3.065   6.020   8.899
 3122TIP3    H233346   2.954   5.926   8.857
 3123TIP3   OH233347   3.069   5.974   7.941
 3123TIP3    H133348   3.088   6.021   7.858
 3123TIP3    H233349   3.128   6.015   8.005
 3124TIP3   OH233350   2.833   7.183   7.824
 3124TIP3    H133351   2.754   7.238   7.832
 3124TIP3    H233352   2.891   7.237   7.768
 3125TIP3   OH233353   2.790   6.145   8.026
 3125TIP3    H133354   2.868   6.202   8.031
 3125TIP3    H233355   2.758   6.130   8.118
 3126TIP3   OH233356   2.844   6.246   8.944
 3126TIP3    H133357   2.850   6.302   9.024
 3126TIP3    H233358   2.912   6.179   8.955
 3127TIP3   OH233359   2.875   5.851   8.113
 3127TIP3    H133360   2.840   5.918   8.175
 3127TIP3    H233361   2.943   5.907   8.068
 3128TIP3   OH233362   2.569   7.295   7.823
 3128TIP3    H133363   2.600   7.377   7.786
 3128TIP3    H233364   2.547   7.319   7.916
 3129TIP3   OH233365   3.463   6.034   9.028
 3129TIP3    H133366   3.370   6.064   9.016
 3129TIP3    H233367   3.493   6.030   8.936
 3130TIP3   OH233368   3.322   6.416   8.428
 3130TIP3    H133369   3.242   6.364   8.409
 3130TIP3    H233370   3.375   6.349   8.478
 3131TIP3   OH233371   2.268   6.997   7.697
 3131TIP3    H133372   2.326   7.070   7.722
 3131TIP3    H233373   2.309   6.972   7.614
 3132TIP3   OH233374   3.432   7.338   8.596
 3132TIP3    H133375   3.422   7.408   8.528
 3132TIP3    H233376   3.528   7.344   8.614
 3133TIP3   OH233377   2.169   5.744   8.482
 3133TIP3    H133378   2.162   5.753   8.384
 3133TIP3    H233379   2.132   5.657   8.501
 3134TIP3   OH233380   2.075   7.145   8.092
 3134TIP3    H133381   1.989   7.188   8.087
 3134TIP3    H233382   2.122   7.189   8.021
 3135TIP3   OH233383   1.994   7.407   9.218
 3135TIP3    H133384   2.055   7.390   9.293
 3135TIP3    H233385   1.955   7.320   9.201
 3136TIP3   OH233386   2.468   7.302   9.381
 3136TIP3    H133387   2.541   7.248   9.411
 3136TIP3    H233388   2.461   7.274   9.288
 3137TIP3   OH233389   3.115   7.138   9.256
 3137TIP3    H133390   3.082   7.050   9.285
 3137TIP3    H233391   3.191   7.150   9.316
 3138TIP3   OH233392   1.983   6.784   9.323
 3138TIP3    H133393   2.004   6.696   9.288
 3138TIP3    H233394   1.915   6.815   9.260
 3139TIP3   OH233395   2.654   6.786   9.257
 3139TIP3    H133396   2.624   6.817   9.170
 3139TIP3    H233397   2.666   6.689   9.247
 3140TIP3   OH233398   3.232   6.769   8.995
 3140TIP3    H133399   3.304   6.836   8.992
 3140TIP3    H233400   3.157   6.833   9.003
 3141TIP3   OH233401   2.073   6.507   9.258
 3141TIP3    H133402   2.123   6.425   9.249
 3141TIP3    H233403   2.059   6.511   9.354
 3142TIP3   OH233404   2.469   6.403   8.993
 3142TIP3    H133405   2.409   6.476   9.017
 3142TIP3    H233406   2.509   6.440   8.912
 3143TIP3   OH233407   2.647   6.456   7.585
 3143TIP3    H133408   2.639   6.423   7.495
 3143TIP3    H233409   2.746   6.448   7.595
 3144TIP3   OH233410   2.980   6.644   9.305
 3144TIP3    H133411   3.071   6.668   9.327
 3144TIP3    H233412   2.959   6.594   9.386
 3145TIP3   OH233413   2.509   6.141   9.098
 3145TIP3    H133414   2.521   6.071   9.032
 3145TIP3    H233415   2.505   6.223   9.043
 3146TIP3   OH233416   2.551   5.980   8.852
 3146TIP3    H133417   2.600   6.026   8.781
 3146TIP3    H233418   2.461   5.972   8.813
 3147TIP3   OH233419   2.703   6.530   8.879
 3147TIP3    H133420   2.779   6.513   8.823
 3147TIP3    H233421   2.666   6.613   8.844
 3148TIP3   OH233422   3.144   6.303   9.366
 3148TIP3    H133423   3.168   6.209   9.369
 3148TIP3    H233424   3.228   6.348   9.383
 3149TIP3   OH233425   3.281   6.575   9.176
 3149TIP3    H133426   3.250   6.661   9.142
 3149TIP3    H233427   3.378   6.587   9.187
 3150TIP3   OH233428   2.355   6.267   9.291
 3150TIP3    H133429   2.279   6.208   9.274
 3150TIP3    H233430   2.421   6.229   9.228
 3151TIP3   OH233431   2.628   5.723   8.894
 3151TIP3    H133432   2.610   5.819   8.883
 3151TIP3    H233433   2.554   5.687   8.841
 3152TIP3   OH233434   2.755   6.155   9.257
 3152TIP3    H133435   2.723   6.132   9.346
 3152TIP3    H233436   2.678   6.135   9.202
 3153TIP3   OH233437   3.028   6.067   9.164
 3153TIP3    H133438   2.932   6.078   9.177
 3153TIP3    H233439   3.053   6.006   9.236
 3154TIP3   OH233440   3.186   5.933   9.355
 3154TIP3    H133441   3.182   5.835   9.359
 3154TIP3    H233442   3.162   5.963   9.445
 3155TIP3   OH233443   2.163   6.061   9.267
 3155TIP3    H133444   2.188   5.987   9.209
 3155TIP3    H233445   2.154   6.016   9.354
 3156TIP3   OH233446   2.650   5.663   9.163
 3156TIP3    H133447   2.718   5.593   9.162
 3156TIP3    H233448   2.638   5.676   9.067
 3157TIP3   OH233449   2.686   5.824   9.376
 3157TIP3    H133450   2.669   5.773   9.293
 3157TIP3    H233451   2.627   5.900   9.366
 3158TIP3   OH233452   1.994   6.961   7.646
 3158TIP3    H133453   2.089   6.987   7.655
 3158TIP3    H233454   1.993   6.920   7.559
 3159TIP3   OH233455   1.869   7.508   8.133
 3159TIP3    H133456   1.794   7.460   8.091
 3159TIP3    H233457   1.894   7.448   8.206
 3160TIP3   OH233458   1.951   7.323   8.323
 3160TIP3    H133459   1.912   7.238   8.347
 3160TIP3    H233460   1.970   7.361   8.411
 3161TIP3   OH233461   3.703   7.405   8.616
 3161TIP3    H133462   3.705   7.421   8.711
 3161TIP3    H233463   3.773   7.463   8.586
 3162TIP3   OH233464   3.660   7.363   8.912
 3162TIP3    H133465   3.613   7.287   8.873
 3162TIP3    H233466   3.708   7.317   8.983
 3163TIP3   OH233467   3.502   6.934   9.375
 3163TIP3    H133468   3.413   6.933   9.416
 3163TIP3    H233469   3.540   7.014   9.418
 3164TIP3   OH233470   3.631   6.778   7.934
 3164TIP3    H133471   3.723   6.807   7.932
 3164TIP3    H233472   3.640   6.695   7.983
 3165TIP3   OH233473   3.673   6.572   8.105
 3165TIP3    H133474   3.597   6.527   8.147
 3165TIP3    H233475   3.733   6.590   8.180
 3166TIP3   OH233476   3.647   6.844   8.612
 3166TIP3    H133477   3.727   6.808   8.569
 3166TIP3    H233478   3.661   6.939   8.592
 3167TIP3   OH233479   3.503   7.135   8.836
 3167TIP3    H133480   3.435   7.173   8.893
 3167TIP3    H233481   3.448   7.099   8.762
 3168TIP3   OH233482   3.438   6.428   8.168
 3168TIP3    H133483   3.444   6.330   8.163
 3168TIP3    H233484   3.430   6.442   8.265
 3169TIP3   OH233485   1.955   6.633   8.573
 3169TIP3    H133486   1.971   6.625   8.477
 3169TIP3    H233487   2.044   6.614   8.608
 3170TIP3   OH233488   3.540   6.621   9.126
 3170TIP3    H133489   3.600   6.547   9.151
 3170TIP3    H233490   3.601   6.698   9.138
 3171TIP3   OH233491   3.690   6.409   9.198
 3171TIP3    H133492   3.603   6.365   9.188
 3171TIP3    H233493   3.748   6.331   9.195
 3172TIP3   OH233494   3.421   6.184   8.013
 3172TIP3    H133495   3.448   6.090   8.025
 3172TIP3    H233496   3.501   6.221   7.975
 3173TIP3   OH233497   3.483   6.242   8.557
 3173TIP3    H133498   3.581   6.258   8.555
 3173TIP3    H233499   3.468   6.247   8.652
 3174TIP3   OH233500   3.492   6.309   8.840
 3174TIP3    H133501   3.399   6.332   8.861
 3174TIP3    H233502   3.536   6.391   8.807
 3175TIP3   OH233503   1.916   6.164   9.192
 3175TIP3    H133504   2.011   6.141   9.207
 3175TIP3    H233505   1.872   6.078   9.213
 3176TIP3   OH233506   3.719   5.716   9.369
 3176TIP3    H133507   3.754   5.649   9.307
 3176TIP3    H233508   3.729   5.797   9.314
 3177TIP3   OH233509   3.489   5.910   8.017
 3177TIP3    H133510   3.509   5.867   8.103
 3177TIP3    H233511   3.427   5.847   7.974
 3178TIP3   OH233512   2.034   5.993   8.476
 3178TIP3    H133513   2.086   5.911   8.494
 3178TIP3    H233514   2.095   6.060   8.510
 3179TIP3   OH233515   1.864   6.292   8.577
 3179TIP3    H133516   1.921   6.266   8.502
 3179TIP3    H233517   1.912   6.372   8.603
 3180TIP3   OH233518   3.671   5.925   9.204
 3180TIP3    H133519   3.577   5.953   9.199
 3180TIP3    H233520   3.673   5.870   9.125
 3181TIP3   OH233521   3.685   5.914   7.680
 3181TIP3    H133522   3.713   5.846   7.618
 3181TIP3    H233523   3.748   5.983   7.667
 3182TIP3   OH233524   1.900   5.919   7.985
 3182TIP3    H133525   1.806   5.938   7.971
 3182TIP3    H233526   1.943   5.963   7.910
 3183TIP3   OH233527   3.375   7.411   8.179
 3183TIP3    H133528   3.443   7.380   8.118
 3183TIP3    H233529   3.425   7.462   8.244
 3184TIP3   OH233530   1.896   5.783   8.814
 3184TIP3    H133531   1.829   5.763   8.882
 3184TIP3    H233532   1.850   5.850   8.759
 3185TIP3   OH233533   2.121   7.101   9.229
 3185TIP3    H133534   2.037   7.125   9.185
 3185TIP3    H233535   2.094   7.095   9.321
 3186TIP3   OH233536   2.409   7.204   8.858
 3186TIP3    H133537   2.377   7.291   8.830
 3186TIP3    H233538   2.502   7.212   8.827
 3187TIP3   OH233539   2.842   7.345   9.147
 3187TIP3    H133540   2.855   7.311   9.238
 3187TIP3    H233541   2.932   7.377   9.123
 3188TIP3   OH233542   3.070   7.473   9.079
 3188TIP3    H133543   3.145   7.416   9.055
 3188TIP3    H233544   3.106   7.518   9.159
 3189TIP3   OH233545   3.573   5.734   8.991
 3189TIP3    H133546   3.490   5.764   8.949
 3189TIP3    H233547   3.589   5.651   8.939
 3190TIP3   OH233548   2.151   7.522   8.858
 3190TIP3    H133549   2.083   7.577   8.816
 3190TIP3    H233550   2.118   7.511   8.948
 3191TIP3   OH233551   2.399   7.483   8.766
 3191TIP3    H133552   2.310   7.503   8.803
 3191TIP3    H233553   2.397   7.542   8.688
 3192TIP3   OH233554   2.871   7.476   8.682
 3192TIP3    H133555   2.825   7.531   8.617
 3192TIP3    H233556   2.884   7.540   8.755
 3193TIP3   OH233557   3.098   7.354   8.786
 3193TIP3    H133558   3.014   7.384   8.747
 3193TIP3    H233559   3.148   7.437   8.776
 3194TIP3   OH233560   3.354   7.512   8.806
 3194TIP3    H133561   3.350   7.608   8.784
 3194TIP3    H233562   3.378   7.475   8.718
 3195TIP3   OH233563   2.099   7.386   8.548
 3195TIP3    H133564   2.090   7.346   8.637
 3195TIP3    H233565   2.183   7.353   8.513
 3196TIP3   OH233566   2.309   7.261   8.415
 3196TIP3    H133567   2.291   7.169   8.441
 3196TIP3    H233568   2.393   7.278   8.462
 3197TIP3   OH233569   2.568   7.311   8.504
 3197TIP3    H133570   2.582   7.219   8.478
 3197TIP3    H233571   2.572   7.306   8.601
 3198TIP3   OH233572   2.916   5.877   8.420
 3198TIP3    H133573   2.845   5.816   8.446
 3198TIP3    H233574   2.966   5.823   8.358
 3199TIP3   OH233575   3.425   5.680   8.423
 3199TIP3    H133576   3.486   5.741   8.374
 3199TIP3    H233577   3.337   5.716   8.401
 3200TIP3   OH233578   3.592   5.806   8.254
 3200TIP3    H133579   3.660   5.749   8.212
 3200TIP3    H233580   3.643   5.890   8.263
 3201TIP3   OH233581   2.147   5.736   8.205
 3201TIP3    H133582   2.069   5.719   8.151
 3201TIP3    H233583   2.195   5.652   8.198
 3202TIP3   OH233584   2.598   5.726   8.179
 3202TIP3    H133585   2.685   5.769   8.176
 3202TIP3    H233586   2.589   5.714   8.274
 3203TIP3   OH233587   3.169   5.733   8.343
 3203TIP3    H133588   3.161   5.745   8.247
 3203TIP3    H233589   3.127   5.645   8.356
 3204TIP3   OH233590   3.297   5.736   7.916
 3204TIP3    H133591   3.223   5.795   7.893
 3204TIP3    H233592   3.251   5.651   7.932
 3205TIP3   OH233593   2.018   7.314   7.877
 3205TIP3    H133594   1.951   7.304   7.808
 3205TIP3    H233595   2.016   7.408   7.895
 3206TIP3   OH233596   2.717   5.931   7.869
 3206TIP3    H133597   2.738   5.878   7.947
 3206TIP3    H233598   2.716   6.019   7.911
 3207TIP3   OH233599   2.900   7.435   7.706
 3207TIP3    H133600   2.992   7.462   7.693
 3207TIP3    H233601   2.886   7.386   7.624
 3208TIP3   OH233602   3.572   7.393   7.980
 3208TIP3    H133603   3.555   7.311   7.927
 3208TIP3    H233604   3.567   7.465   7.918
 3209TIP3   OH233605   2.137   5.793   9.147
 3209TIP3    H133606   2.097   5.714   9.187
 3209TIP3    H233607   2.227   5.789   9.187
 3210TIP3   OH233608   2.336   5.733   9.314
 3210TIP3    H133609   2.425   5.699   9.293
 3210TIP3    H233610   2.299   5.651   9.353
 3211TIP3   OH233611   3.177   5.660   9.328
 3211TIP3    H133612   3.187   5.613   9.413
 3211TIP3    H233613   3.269   5.656   9.294
 3212TIP3   OH233614   3.499   7.266   9.190
 3212TIP3    H133615   3.418   7.253   9.135
 3212TIP3    H233616   3.487   7.361   9.212
 3213TIP3   OH233617   4.944   6.654   8.189
 3213TIP3    H133618   4.941   6.752   8.185
 3213TIP3    H233619   4.872   6.629   8.129
 3214TIP3   OH233620   4.827   6.579   8.538
 3214TIP3    H133621   4.828   6.514   8.610
 3214TIP3    H233622   4.792   6.527   8.464
 3215TIP3   OH233623   4.064   6.547   8.692
 3215TIP3    H133624   4.072   6.478   8.762
 3215TIP3    H233625   4.139   6.603   8.716
 3216TIP3   OH233626   5.196   6.873   8.367
 3216TIP3    H133627   5.156   6.801   8.417
 3216TIP3    H233628   5.200   6.944   8.435
 3217TIP3   OH233629   4.155   6.991   8.543
 3217TIP3    H133630   4.125   6.904   8.512
 3217TIP3    H233631   4.250   6.973   8.550
 3218TIP3   OH233632   3.821   6.343   8.090
 3218TIP3    H133633   3.779   6.432   8.091
 3218TIP3    H233634   3.760   6.294   8.034
 3219TIP3   OH233635   3.891   6.569   8.307
 3219TIP3    H133636   3.920   6.487   8.352
 3219TIP3    H233637   3.962   6.583   8.243
 3220TIP3   OH233638   4.911   7.365   8.396
 3220TIP3    H133639   4.980   7.301   8.366
 3220TIP3    H233640   4.893   7.333   8.486
 3221TIP3   OH233641   4.666   6.820   8.583
 3221TIP3    H133642   4.700   6.753   8.522
 3221TIP3    H233643   4.746   6.834   8.637
 3222TIP3   OH233644   5.525   5.985   8.658
 3222TIP3    H133645   5.543   6.043   8.735
 3222TIP3    H233646   5.583   6.026   8.592
 3223TIP3   OH233647   4.983   6.265   8.618
 3223TIP3    H133648   5.000   6.170   8.619
 3223TIP3    H233649   4.972   6.279   8.522
 3224TIP3   OH233650   4.294   6.074   8.339
 3224TIP3    H133651   4.306   6.157   8.289
 3224TIP3    H233652   4.255   6.017   8.270
 3225TIP3   OH233653   5.067   6.082   8.176
 3225TIP3    H133654   5.132   6.050   8.243
 3225TIP3    H233655   5.123   6.140   8.123
 3226TIP3   OH233656   3.956   6.316   8.412
 3226TIP3    H133657   4.023   6.262   8.458
 3226TIP3    H233658   3.967   6.285   8.322
 3227TIP3   OH233659   4.471   6.471   8.346
 3227TIP3    H133660   4.540   6.413   8.383
 3227TIP3    H233661   4.421   6.406   8.293
 3228TIP3   OH233662   5.568   6.125   8.887
 3228TIP3    H133663   5.511   6.203   8.876
 3228TIP3    H233664   5.574   6.122   8.984
 3229TIP3   OH233665   4.186   5.964   8.742
 3229TIP3    H133666   4.157   6.022   8.668
 3229TIP3    H233667   4.118   5.987   8.811
 3230TIP3   OH233668   4.904   6.910   8.099
 3230TIP3    H133669   4.893   6.887   8.005
 3230TIP3    H233670   4.887   7.007   8.101
 3231TIP3   OH233671   4.436   6.728   8.766
 3231TIP3    H133672   4.366   6.793   8.790
 3231TIP3    H233673   4.507   6.788   8.738
 3232TIP3   OH233674   5.249   6.018   8.375
 3232TIP3    H133675   5.227   5.940   8.428
 3232TIP3    H233676   5.317   6.060   8.431
 3233TIP3   OH233677   4.143   6.149   8.547
 3233TIP3    H133678   4.206   6.218   8.578
 3233TIP3    H233679   4.194   6.109   8.472
 3234TIP3   OH233680   4.281   6.929   8.848
 3234TIP3    H133681   4.277   7.021   8.815
 3234TIP3    H233682   4.193   6.921   8.892
 3235TIP3   OH233683   3.889   6.888   7.926
 3235TIP3    H133684   3.862   6.920   7.838
 3235TIP3    H233685   3.896   6.972   7.976
 3236TIP3   OH233686   5.250   7.057   8.604
 3236TIP3    H133687   5.153   7.069   8.616
 3236TIP3    H233688   5.276   7.149   8.583
 3237TIP3   OH233689   5.282   5.885   8.742
 3237TIP3    H133690   5.210   5.949   8.732
 3237TIP3    H233691   5.354   5.927   8.691
 3238TIP3   OH233692   4.578   5.698   8.489
 3238TIP3    H133693   4.563   5.602   8.481
 3238TIP3    H233694   4.490   5.729   8.520
 3239TIP3   OH233695   5.080   7.235   8.261
 3239TIP3    H133696   5.120   7.161   8.211
 3239TIP3    H233697   5.126   7.311   8.220
 3240TIP3   OH233698   5.199   7.028   8.114
 3240TIP3    H133699   5.165   6.960   8.054
 3240TIP3    H233700   5.201   6.978   8.198
 3241TIP3   OH233701   5.358   6.889   8.964
 3241TIP3    H133702   5.373   6.823   8.892
 3241TIP3    H233703   5.379   6.972   8.918
 3242TIP3   OH233704   4.808   6.582   7.938
 3242TIP3    H133705   4.742   6.637   7.895
 3242TIP3    H233706   4.881   6.579   7.872
 3243TIP3   OH233707   5.547   6.519   8.764
 3243TIP3    H133708   5.483   6.592   8.770
 3243TIP3    H233709   5.599   6.545   8.685
 3244TIP3   OH233710   5.155   6.597   8.033
 3244TIP3    H133711   5.081   6.622   8.092
 3244TIP3    H233712   5.202   6.531   8.088
 3245TIP3   OH233713   5.147   6.415   8.946
 3245TIP3    H133714   5.148   6.496   8.998
 3245TIP3    H233715   5.085   6.443   8.876
 3246TIP3   OH233716   4.316   6.664   8.225
 3246TIP3    H133717   4.281   6.624   8.142
 3246TIP3    H233718   4.374   6.592   8.259
 3247TIP3   OH233719   4.447   7.002   8.490
 3247TIP3    H133720   4.444   6.945   8.414
 3247TIP3    H233721   4.524   6.966   8.539
 3248TIP3   OH233722   4.347   6.539   8.591
 3248TIP3    H133723   4.402   6.548   8.510
 3248TIP3    H233724   4.387   6.605   8.652
 3249TIP3   OH233725   4.991   7.098   8.661
 3249TIP3    H133726   4.962   7.159   8.730
 3249TIP3    H233727   4.967   7.012   8.701
 3250TIP3   OH233728   4.443   6.982   9.060
 3250TIP3    H133729   4.400   7.055   9.109
 3250TIP3    H233730   4.376   6.961   8.990
 3251TIP3   OH233731   5.040   6.520   7.801
 3251TIP3    H133732   5.095   6.538   7.880
 3251TIP3    H233733   5.082   6.570   7.729
 3252TIP3   OH233734   4.137   6.597   8.974
 3252TIP3    H133735   4.143   6.664   9.045
 3252TIP3    H233736   4.043   6.606   8.954
 3253TIP3   OH233737   4.804   7.188   8.147
 3253TIP3    H133738   4.854   7.217   8.225
 3253TIP3    H233739   4.759   7.269   8.119
 3254TIP3   OH233740   4.268   7.184   9.134
 3254TIP3    H133741   4.261   7.175   9.038
 3254TIP3    H233742   4.175   7.171   9.162
 3255TIP3   OH233743   5.418   5.697   7.805
 3255TIP3    H133744   5.321   5.699   7.810
 3255TIP3    H233745   5.431   5.769   7.742
 3256TIP3   OH233746   4.216   6.565   7.980
 3256TIP3    H133747   4.181   6.645   7.934
 3256TIP3    H233748   4.143   6.503   7.970
 3257TIP3   OH233749   3.818   6.810   8.877
 3257TIP3    H133750   3.777   6.801   8.789
 3257TIP3    H233751   3.832   6.715   8.898
 3258TIP3   OH233752   3.797   7.082   8.553
 3258TIP3    H133753   3.894   7.072   8.549
 3258TIP3    H233754   3.789   7.164   8.603
 3259TIP3   OH233755   5.621   7.153   9.123
 3259TIP3    H133756   5.608   7.057   9.119
 3259TIP3    H233757   5.533   7.178   9.161
 3260TIP3   OH233758   4.716   7.107   9.008
 3260TIP3    H133759   4.722   7.191   9.059
 3260TIP3    H233760   4.628   7.072   9.032
 3261TIP3   OH233761   4.757   7.481   7.987
 3261TIP3    H133762   4.753   7.476   7.889
 3261TIP3    H233763   4.760   7.576   8.004
 3262TIP3   OH233764   4.127   7.367   8.172
 3262TIP3    H133765   4.138   7.328   8.261
 3262TIP3    H233766   4.040   7.330   8.148
 3263TIP3   OH233767   5.074   7.405   7.690
 3263TIP3    H133768   5.105   7.328   7.642
 3263TIP3    H233769   5.068   7.372   7.782
 3264TIP3   OH233770   5.035   7.398   7.971
 3264TIP3    H133771   4.938   7.401   7.979
 3264TIP3    H233772   5.059   7.319   8.020
 3265TIP3   OH233773   5.319   6.296   9.178
 3265TIP3    H133774   5.291   6.346   9.099
 3265TIP3    H233775   5.336   6.209   9.140
 3266TIP3   OH233776   4.050   6.939   8.970
 3266TIP3    H133777   4.071   6.904   9.059
 3266TIP3    H233778   3.962   6.901   8.948
 3267TIP3   OH233779   4.318   5.790   8.562
 3267TIP3    H133780   4.227   5.775   8.527
 3267TIP3    H233781   4.303   5.871   8.613
 3268TIP3   OH233782   4.782   5.754   8.900
 3268TIP3    H133783   4.821   5.712   8.979
 3268TIP3    H233784   4.685   5.744   8.915
 3269TIP3   OH233785   5.109   6.139   8.989
 3269TIP3    H133786   5.056   6.119   9.069
 3269TIP3    H233787   5.092   6.233   8.968
 3270TIP3   OH233788   5.184   6.624   7.579
 3270TIP3    H133789   5.183   6.606   7.485
 3270TIP3    H233790   5.267   6.673   7.588
 3271TIP3   OH233791   4.744   6.012   7.640
 3271TIP3    H133792   4.711   6.004   7.730
 3271TIP3    H233793   4.718   5.928   7.603
 3272TIP3   OH233794   4.327   6.286   8.691
 3272TIP3    H133795   4.254   6.286   8.754
 3272TIP3    H233796   4.323   6.377   8.652
 3273TIP3   OH233797   4.323   6.297   8.178
 3273TIP3    H133798   4.230   6.271   8.164
 3273TIP3    H233799   4.362   6.268   8.093
 3274TIP3   OH233800   4.877   6.347   8.049
 3274TIP3    H133801   4.837   6.430   8.015
 3274TIP3    H233802   4.944   6.329   7.980
 3275TIP3   OH233803   4.781   6.369   9.196
 3275TIP3    H133804   4.729   6.290   9.227
 3275TIP3    H233805   4.865   6.357   9.244
 3276TIP3   OH233806   4.980   6.297   8.338
 3276TIP3    H133807   4.951   6.353   8.264
 3276TIP3    H233808   4.988   6.212   8.292
 3277TIP3   OH233809   4.089   6.309   8.857
 3277TIP3    H133810   4.100   6.350   8.944
 3277TIP3    H233811   4.046   6.225   8.879
 3278TIP3   OH233812   3.757   6.021   8.257
 3278TIP3    H133813   3.824   6.016   8.328
 3278TIP3    H233814   3.801   5.982   8.179
 3279TIP3   OH233815   4.898   6.454   8.792
 3279TIP3    H133816   4.937   6.385   8.734
 3279TIP3    H233817   4.851   6.402   8.859
 3280TIP3   OH233818   4.580   6.054   8.277
 3280TIP3    H133819   4.486   6.053   8.305
 3280TIP3    H233820   4.627   6.034   8.358
 3281TIP3   OH233821   4.064   6.210   8.154
 3281TIP3    H133822   3.970   6.220   8.129
 3281TIP3    H233823   4.087   6.118   8.128
 3282TIP3   OH233824   4.420   6.216   7.924
 3282TIP3    H133825   4.516   6.218   7.943
 3282TIP3    H233826   4.410   6.283   7.856
 3283TIP3   OH233827   5.020   5.977   8.600
 3283TIP3    H133828   4.952   5.981   8.671
 3283TIP3    H233829   4.969   5.950   8.523
 3284TIP3   OH233830   5.337   7.542   9.234
 3284TIP3    H133831   5.365   7.577   9.148
 3284TIP3    H233832   5.412   7.571   9.288
 3285TIP3   OH233833   4.107   6.788   9.191
 3285TIP3    H133834   4.179   6.812   9.251
 3285TIP3    H233835   4.030   6.794   9.252
 3286TIP3   OH233836   4.707   6.328   8.466
 3286TIP3    H133837   4.768   6.275   8.414
 3286TIP3    H233838   4.692   6.273   8.544
 3287TIP3   OH233839   4.207   5.947   8.108
 3287TIP3    H133840   4.176   5.854   8.113
 3287TIP3    H233841   4.287   5.934   8.055
 3288TIP3   OH233842   4.571   6.160   8.707
 3288TIP3    H133843   4.489   6.213   8.716
 3288TIP3    H233844   4.627   6.196   8.779
 3289TIP3   OH233845   4.619   6.793   7.876
 3289TIP3    H133846   4.548   6.731   7.846
 3289TIP3    H233847   4.611   6.783   7.972
 3290TIP3   OH233848   5.349   6.704   8.757
 3290TIP3    H133849   5.406   6.752   8.694
 3290TIP3    H233850   5.263   6.708   8.711
 3291TIP3   OH233851   5.010   6.063   7.704
 3291TIP3    H133852   4.919   6.079   7.674
 3291TIP3    H233853   5.044   6.151   7.724
 3292TIP3   OH233854   4.779   6.811   9.002
 3292TIP3    H133855   4.745   6.767   9.081
 3292TIP3    H233856   4.752   6.903   9.014
 3293TIP3   OH233857   5.087   6.258   7.863
 3293TIP3    H133858   5.176   6.245   7.901
 3293TIP3    H233859   5.092   6.337   7.807
 3294TIP3   OH233860   4.140   6.723   8.457
 3294TIP3    H133861   4.207   6.713   8.387
 3294TIP3    H233862   4.147   6.638   8.504
 3295TIP3   OH233863   4.845   6.927   7.791
 3295TIP3    H133864   4.806   7.014   7.807
 3295TIP3    H233865   4.769   6.867   7.796
 3296TIP3   OH233866   3.834   6.564   8.984
 3296TIP3    H133867   3.857   6.519   9.068
 3296TIP3    H233868   3.780   6.498   8.938
 3297TIP3   OH233869   4.541   6.519   9.200
 3297TIP3    H133870   4.509   6.487   9.115
 3297TIP3    H233871   4.633   6.486   9.200
 3298TIP3   OH233872   5.010   7.054   8.996
 3298TIP3    H133873   4.917   7.071   8.973
 3298TIP3    H233874   5.007   7.082   9.090
 3299TIP3   OH233875   5.584   6.274   7.823
 3299TIP3    H133876   5.511   6.239   7.770
 3299TIP3    H233877   5.579   6.371   7.813
 3300TIP3   OH233878   5.576   6.859   9.117
 3300TIP3    H133879   5.486   6.877   9.081
 3300TIP3    H233880   5.629   6.849   9.036
 3301TIP3   OH233881   5.399   7.154   7.874
 3301TIP3    H133882   5.369   7.069   7.909
 3301TIP3    H233883   5.437   7.134   7.788
 3302TIP3   OH233884   5.126   6.635   8.585
 3302TIP3    H133885   5.032   6.615   8.573
 3302TIP3    H233886   5.170   6.560   8.541
 3303TIP3   OH233887   4.372   7.074   8.198
 3303TIP3    H133888   4.413   7.163   8.192
 3303TIP3    H233889   4.281   7.095   8.171
 3304TIP3   OH233890   4.516   6.826   8.152
 3304TIP3    H133891   4.491   6.907   8.196
 3304TIP3    H233892   4.447   6.767   8.194
 3305TIP3   OH233893   4.565   7.253   8.789
 3305TIP3    H133894   4.611   7.333   8.761
 3305TIP3    H233895   4.627   7.218   8.856
 3306TIP3   OH233896   4.390   7.331   8.108
 3306TIP3    H133897   4.293   7.345   8.117
 3306TIP3    H233898   4.422   7.420   8.132
 3307TIP3   OH233899   4.916   6.853   8.749
 3307TIP3    H133900   4.885   6.834   8.840
 3307TIP3    H233901   4.980   6.782   8.733
 3308TIP3   OH233902   5.150   6.959   7.657
 3308TIP3    H133903   5.175   6.911   7.738
 3308TIP3    H233904   5.054   6.944   7.665
 3309TIP3   OH233905   5.199   7.311   8.998
 3309TIP3    H133906   5.129   7.262   8.951
 3309TIP3    H233907   5.217   7.381   8.931
 3310TIP3   OH233908   5.599   7.399   7.686
 3310TIP3    H133909   5.673   7.459   7.663
 3310TIP3    H233910   5.530   7.462   7.715
 3311TIP3   OH233911   4.005   6.036   8.938
 3311TIP3    H133912   3.914   6.072   8.936
 3311TIP3    H233913   3.994   5.952   8.985
 3312TIP3   OH233914   5.227   6.826   7.889
 3312TIP3    H133915   5.203   6.744   7.937
 3312TIP3    H233916   5.324   6.826   7.901
 3313TIP3   OH233917   3.966   7.214   8.780
 3313TIP3    H133918   3.999   7.123   8.781
 3313TIP3    H233919   3.992   7.244   8.868
 3314TIP3   OH233920   4.435   7.020   7.757
 3314TIP3    H133921   4.473   6.965   7.824
 3314TIP3    H233922   4.451   7.114   7.778
 3315TIP3   OH233923   4.103   6.747   7.809
 3315TIP3    H133924   4.022   6.782   7.852
 3315TIP3    H233925   4.143   6.828   7.775
 3316TIP3   OH233926   4.878   6.014   8.836
 3316TIP3    H133927   4.950   6.020   8.900
 3316TIP3    H233928   4.840   5.926   8.857
 3317TIP3   OH233929   4.951   5.970   7.950
 3317TIP3    H133930   4.973   6.014   7.864
 3317TIP3    H233931   5.011   6.017   8.009
 3318TIP3   OH233932   4.717   7.186   7.830
 3318TIP3    H133933   4.638   7.243   7.826
 3318TIP3    H233934   4.774   7.233   7.765
 3319TIP3   OH233935   4.672   6.147   8.024
 3319TIP3    H133936   4.753   6.203   8.027
 3319TIP3    H233937   4.649   6.131   8.118
 3320TIP3   OH233938   4.731   6.248   8.945
 3320TIP3    H133939   4.738   6.303   9.025
 3320TIP3    H233940   4.798   6.179   8.954
 3321TIP3   OH233941   4.760   5.850   8.111
 3321TIP3    H133942   4.728   5.915   8.175
 3321TIP3    H233943   4.831   5.905   8.068
 3322TIP3   OH233944   4.462   7.288   7.833
 3322TIP3    H133945   4.468   7.366   7.771
 3322TIP3    H233946   4.431   7.331   7.914
 3323TIP3   OH233947   4.323   5.966   7.791
 3323TIP3    H133948   4.327   6.055   7.826
 3323TIP3    H233949   4.415   5.936   7.806
 3324TIP3   OH233950   5.347   6.035   9.029
 3324TIP3    H133951   5.255   6.067   9.016
 3324TIP3    H233952   5.379   6.034   8.937
 3325TIP3   OH233953   5.211   6.414   8.429
 3325TIP3    H133954   5.128   6.369   8.402
 3325TIP3    H233955   5.257   6.346   8.482
 3326TIP3   OH233956   4.154   7.002   7.696
 3326TIP3    H133957   4.214   7.075   7.720
 3326TIP3    H233958   4.197   6.969   7.617
 3327TIP3   OH233959   5.315   7.339   8.595
 3327TIP3    H133960   5.310   7.409   8.527
 3327TIP3    H233961   5.411   7.344   8.614
 3328TIP3   OH233962   4.065   5.752   8.478
 3328TIP3    H133963   4.046   5.753   8.381
 3328TIP3    H233964   4.025   5.666   8.503
 3329TIP3   OH233965   3.962   7.145   8.093
 3329TIP3    H133966   3.875   7.187   8.089
 3329TIP3    H233967   4.005   7.191   8.019
 3330TIP3   OH233968   3.881   7.408   9.219
 3330TIP3    H133969   3.941   7.390   9.293
 3330TIP3    H233970   3.841   7.321   9.202
 3331TIP3   OH233971   4.351   7.302   9.379
 3331TIP3    H133972   4.426   7.251   9.414
 3331TIP3    H233973   4.347   7.273   9.286
 3332TIP3   OH233974   5.000   7.139   9.257
 3332TIP3    H133975   4.970   7.050   9.285
 3332TIP3    H233976   5.078   7.150   9.315
 3333TIP3   OH233977   3.873   6.787   9.320
 3333TIP3    H133978   3.888   6.695   9.291
 3333TIP3    H233979   3.799   6.813   9.263
 3334TIP3   OH233980   4.544   6.786   9.258
 3334TIP3    H133981   4.511   6.818   9.172
 3334TIP3    H233982   4.550   6.688   9.247
 3335TIP3   OH233983   5.114   6.771   8.997
 3335TIP3    H133984   5.193   6.829   8.993
 3335TIP3    H233985   5.045   6.838   9.003
 3336TIP3   OH233986   3.963   6.509   9.258
 3336TIP3    H133987   4.007   6.423   9.250
 3336TIP3    H233988   3.942   6.510   9.353
 3337TIP3   OH233989   4.431   6.624   7.762
 3337TIP3    H133990   4.379   6.573   7.828
 3337TIP3    H233991   4.463   6.553   7.700
 3338TIP3   OH233992   4.354   6.403   8.993
 3338TIP3    H133993   4.295   6.475   9.018
 3338TIP3    H233994   4.395   6.440   8.913
 3339TIP3   OH233995   4.535   6.446   7.585
 3339TIP3    H133996   4.521   6.421   7.492
 3339TIP3    H233997   4.633   6.447   7.590
 3340TIP3   OH233998   4.862   6.662   9.328
 3340TIP3    H133999   4.958   6.660   9.314
 3340TIP3    H234000   4.846   6.584   9.383
 3341TIP3   OH234001   4.396   6.141   9.098
 3341TIP3    H134002   4.407   6.071   9.031
 3341TIP3    H234003   4.390   6.222   9.044
 3342TIP3   OH234004   4.436   5.979   8.854
 3342TIP3    H134005   4.486   6.026   8.783
 3342TIP3    H234006   4.346   5.972   8.814
 3343TIP3   OH234007   4.589   6.529   8.879
 3343TIP3    H134008   4.665   6.513   8.822
 3343TIP3    H234009   4.552   6.612   8.844
 3344TIP3   OH234010   5.030   6.303   9.373
 3344TIP3    H134011   5.056   6.210   9.364
 3344TIP3    H234012   5.116   6.348   9.377
 3345TIP3   OH234013   5.163   6.583   9.191
 3345TIP3    H134014   5.140   6.656   9.130
 3345TIP3    H234015   5.260   6.581   9.176
 3346TIP3   OH234016   4.241   6.267   9.290
 3346TIP3    H134017   4.164   6.208   9.274
 3346TIP3    H234018   4.306   6.229   9.228
 3347TIP3   OH234019   4.515   5.723   8.892
 3347TIP3    H134020   4.495   5.819   8.883
 3347TIP3    H234021   4.440   5.686   8.842
 3348TIP3   OH234022   4.641   6.156   9.257
 3348TIP3    H134023   4.609   6.132   9.346
 3348TIP3    H234024   4.564   6.135   9.202
 3349TIP3   OH234025   4.914   6.071   9.167
 3349TIP3    H134026   4.817   6.076   9.177
 3349TIP3    H234027   4.940   6.007   9.236
 3350TIP3   OH234028   5.070   5.932   9.354
 3350TIP3    H134029   5.067   5.834   9.358
 3350TIP3    H234030   5.048   5.961   9.445
 3351TIP3   OH234031   4.049   6.061   9.267
 3351TIP3    H134032   4.073   5.987   9.209
 3351TIP3    H234033   4.039   6.016   9.354
 3352TIP3   OH234034   4.536   5.664   9.163
 3352TIP3    H134035   4.603   5.593   9.162
 3352TIP3    H234036   4.524   5.676   9.067
 3353TIP3   OH234037   4.572   5.824   9.376
 3353TIP3    H134038   4.554   5.773   9.293
 3353TIP3    H234039   4.512   5.900   9.366
 3354TIP3   OH234040   4.519   7.522   7.701
 3354TIP3    H134041   4.616   7.528   7.697
 3354TIP3    H234042   4.491   7.569   7.620
 3355TIP3   OH234043   3.880   6.978   7.640
 3355TIP3    H134044   3.976   6.984   7.658
 3355TIP3    H234045   3.875   6.912   7.569
 3356TIP3   OH234046   3.753   7.508   8.133
 3356TIP3    H134047   3.680   7.459   8.090
 3356TIP3    H234048   3.780   7.445   8.203
 3357TIP3   OH234049   3.834   7.324   8.323
 3357TIP3    H134050   3.799   7.237   8.344
 3357TIP3    H234051   3.857   7.358   8.412
 3358TIP3   OH234052   5.588   7.405   8.616
 3358TIP3    H134053   5.591   7.421   8.712
 3358TIP3    H234054   5.659   7.463   8.586
 3359TIP3   OH234055   5.546   7.363   8.912
 3359TIP3    H134056   5.499   7.287   8.872
 3359TIP3    H234057   5.594   7.317   8.983
 3360TIP3   OH234058   5.381   6.961   9.362
 3360TIP3    H134059   5.304   6.930   9.413
 3360TIP3    H234060   5.428   7.018   9.426
 3361TIP3   OH234061   5.526   6.763   7.914
 3361TIP3    H134062   5.608   6.807   7.941
 3361TIP3    H234063   5.519   6.698   7.988
 3362TIP3   OH234064   5.559   6.575   8.106
 3362TIP3    H134065   5.482   6.528   8.146
 3362TIP3    H234066   5.617   6.590   8.183
 3363TIP3   OH234067   5.533   6.845   8.609
 3363TIP3    H134068   5.614   6.808   8.570
 3363TIP3    H234069   5.548   6.941   8.592
 3364TIP3   OH234070   5.389   7.136   8.834
 3364TIP3    H134071   5.320   7.171   8.893
 3364TIP3    H234072   5.334   7.097   8.763
 3365TIP3   OH234073   5.584   6.552   7.741
 3365TIP3    H134074   5.536   6.603   7.674
 3365TIP3    H234075   5.585   6.623   7.811
 3366TIP3   OH234076   5.340   6.423   8.166
 3366TIP3    H134077   5.325   6.328   8.164
 3366TIP3    H234078   5.308   6.445   8.256
 3367TIP3   OH234079   3.840   6.631   8.572
 3367TIP3    H134080   3.858   6.625   8.476
 3367TIP3    H234081   3.930   6.614   8.608
 3368TIP3   OH234082   5.425   6.621   9.131
 3368TIP3    H134083   5.484   6.545   9.151
 3368TIP3    H234084   5.487   6.697   9.140
 3369TIP3   OH234085   5.567   6.372   9.115
 3369TIP3    H134086   5.491   6.375   9.177
 3369TIP3    H234087   5.629   6.339   9.184
 3370TIP3   OH234088   5.307   6.183   8.014
 3370TIP3    H134089   5.335   6.089   8.024
 3370TIP3    H234090   5.388   6.221   7.977
 3371TIP3   OH234091   5.370   6.237   8.559
 3371TIP3    H134092   5.467   6.260   8.557
 3371TIP3    H234093   5.354   6.251   8.653
 3372TIP3   OH234094   5.376   6.308   8.831
 3372TIP3    H134095   5.289   6.337   8.867
 3372TIP3    H234096   5.422   6.394   8.816
 3373TIP3   OH234097   3.803   6.162   9.190
 3373TIP3    H134098   3.897   6.140   9.208
 3373TIP3    H234099   3.756   6.080   9.215
 3374TIP3   OH234100   5.606   5.716   9.369
 3374TIP3    H134101   5.640   5.649   9.307
 3374TIP3    H234102   5.613   5.797   9.314
 3375TIP3   OH234103   5.369   5.913   8.018
 3375TIP3    H134104   5.396   5.868   8.101
 3375TIP3    H234105   5.314   5.846   7.973
 3376TIP3   OH234106   3.922   5.992   8.474
 3376TIP3    H134107   3.968   5.909   8.499
 3376TIP3    H234108   3.979   6.061   8.512
 3377TIP3   OH234109   3.750   6.292   8.576
 3377TIP3    H134110   3.806   6.266   8.501
 3377TIP3    H234111   3.800   6.371   8.602
 3378TIP3   OH234112   5.555   5.921   9.205
 3378TIP3    H134113   5.464   5.955   9.199
 3378TIP3    H234114   5.558   5.869   9.123
 3379TIP3   OH234115   5.555   5.921   7.666
 3379TIP3    H134116   5.595   5.843   7.625
 3379TIP3    H234117   5.630   5.977   7.682
 3380TIP3   OH234118   3.785   5.919   7.981
 3380TIP3    H134119   3.690   5.936   7.970
 3380TIP3    H234120   3.825   5.967   7.911
 3381TIP3   OH234121   5.259   7.412   8.181
 3381TIP3    H134122   5.327   7.382   8.117
 3381TIP3    H234123   5.314   7.462   8.243
 3382TIP3   OH234124   3.781   5.783   8.812
 3382TIP3    H134125   3.715   5.764   8.881
 3382TIP3    H234126   3.735   5.851   8.759
 3383TIP3   OH234127   4.006   7.101   9.229
 3383TIP3    H134128   3.923   7.125   9.186
 3383TIP3    H234129   3.979   7.095   9.321
 3384TIP3   OH234130   4.296   7.204   8.858
 3384TIP3    H134131   4.264   7.291   8.831
 3384TIP3    H234132   4.389   7.211   8.827
 3385TIP3   OH234133   4.727   7.346   9.147
 3385TIP3    H134134   4.741   7.311   9.238
 3385TIP3    H234135   4.818   7.378   9.123
 3386TIP3   OH234136   4.956   7.473   9.079
 3386TIP3    H134137   5.030   7.416   9.055
 3386TIP3    H234138   4.992   7.518   9.158
 3387TIP3   OH234139   5.458   5.735   8.991
 3387TIP3    H134140   5.376   5.764   8.949
 3387TIP3    H234141   5.476   5.653   8.940
 3388TIP3   OH234142   4.035   7.522   8.857
 3388TIP3    H134143   3.966   7.578   8.818
 3388TIP3    H234144   4.005   7.510   8.948
 3389TIP3   OH234145   4.285   7.482   8.765
 3389TIP3    H134146   4.197   7.503   8.804
 3389TIP3    H234147   4.282   7.542   8.688
 3390TIP3   OH234148   4.763   7.479   8.674
 3390TIP3    H134149   4.701   7.532   8.622
 3390TIP3    H234150   4.770   7.537   8.755
 3391TIP3   OH234151   4.985   7.355   8.783
 3391TIP3    H134152   4.899   7.385   8.750
 3391TIP3    H234153   5.034   7.438   8.780
 3392TIP3   OH234154   5.236   7.512   8.804
 3392TIP3    H134155   5.237   7.609   8.785
 3392TIP3    H234156   5.266   7.476   8.718
 3393TIP3   OH234157   3.985   7.392   8.550
 3393TIP3    H134158   3.976   7.347   8.637
 3393TIP3    H234159   4.066   7.353   8.512
 3394TIP3   OH234160   4.194   7.261   8.414
 3394TIP3    H134161   4.175   7.170   8.443
 3394TIP3    H234162   4.276   7.281   8.464
 3395TIP3   OH234163   4.457   7.310   8.501
 3395TIP3    H134164   4.465   7.216   8.480
 3395TIP3    H234165   4.454   7.306   8.598
 3396TIP3   OH234166   4.797   5.877   8.415
 3396TIP3    H134167   4.730   5.813   8.447
 3396TIP3    H234168   4.853   5.822   8.360
 3397TIP3   OH234169   5.311   5.680   8.422
 3397TIP3    H134170   5.372   5.740   8.373
 3397TIP3    H234171   5.222   5.717   8.401
 3398TIP3   OH234172   5.477   5.808   8.251
 3398TIP3    H134173   5.546   5.749   8.211
 3398TIP3    H234174   5.529   5.890   8.263
 3399TIP3   OH234175   4.035   5.740   8.204
 3399TIP3    H134176   3.955   5.721   8.152
 3399TIP3    H234177   4.080   5.654   8.197
 3400TIP3   OH234178   3.908   5.716   7.769
 3400TIP3    H134179   3.962   5.782   7.721
 3400TIP3    H234180   3.858   5.769   7.833
 3401TIP3   OH234181   4.483   5.729   8.180
 3401TIP3    H134182   4.571   5.768   8.174
 3401TIP3    H234183   4.478   5.710   8.274
 3402TIP3   OH234184   5.054   5.733   8.343
 3402TIP3    H134185   5.047   5.746   8.248
 3402TIP3    H234186   5.016   5.643   8.356
 3403TIP3   OH234187   5.178   5.735   7.910
 3403TIP3    H134188   5.105   5.797   7.894
 3403TIP3    H234189   5.134   5.651   7.936
 3404TIP3   OH234190   3.904   7.312   7.876
 3404TIP3    H134191   3.838   7.306   7.805
 3404TIP3    H234192   3.908   7.408   7.889
 3405TIP3   OH234193   4.089   5.901   7.638
 3405TIP3    H134194   4.140   5.856   7.568
 3405TIP3    H234195   4.166   5.935   7.686
 3406TIP3   OH234196   4.592   5.933   7.871
 3406TIP3    H134197   4.622   5.876   7.942
 3406TIP3    H234198   4.606   6.021   7.913
 3407TIP3   OH234199   4.794   7.437   7.711
 3407TIP3    H134200   4.885   7.464   7.687
 3407TIP3    H234201   4.769   7.395   7.626
 3408TIP3   OH234202   5.456   7.394   7.983
 3408TIP3    H134203   5.440   7.315   7.927
 3408TIP3    H234204   5.452   7.467   7.917
 3409TIP3   OH234205   4.023   5.794   9.148
 3409TIP3    H134206   3.982   5.714   9.187
 3409TIP3    H234207   4.113   5.789   9.187
 3410TIP3   OH234208   4.222   5.732   9.314
 3410TIP3    H134209   4.311   5.699   9.292
 3410TIP3    H234210   4.185   5.651   9.353
 3411TIP3   OH234211   5.063   5.660   9.328
 3411TIP3    H134212   5.072   5.613   9.413
 3411TIP3    H234213   5.155   5.657   9.294
 3412TIP3   OH234214   5.385   7.268   9.188
 3412TIP3    H134215   5.304   7.253   9.135
 3412TIP3    H234216   5.371   7.362   9.212
 3413TIP3   OH234217   6.831   6.654   8.185
 3413TIP3    H134218   6.827   6.752   8.185
 3413TIP3    H234219   6.755   6.631   8.128
 3414TIP3   OH234220   6.715   6.578   8.538
 3414TIP3    H134221   6.713   6.514   8.611
 3414TIP3    H234222   6.678   6.526   8.464
 3415TIP3   OH234223   5.951   6.546   8.692
 3415TIP3    H134224   5.957   6.478   8.762
 3415TIP3    H234225   6.025   6.604   8.716
 3416TIP3   OH234226   7.082   6.873   8.367
 3416TIP3    H134227   7.041   6.801   8.417
 3416TIP3    H234228   7.085   6.944   8.435
 3417TIP3   OH234229   6.041   6.992   8.542
 3417TIP3    H134230   6.011   6.904   8.512
 3417TIP3    H234231   6.137   6.974   8.547
 3418TIP3   OH234232   5.709   6.346   8.084
 3418TIP3    H134233   5.664   6.433   8.089
 3418TIP3    H234234   5.644   6.291   8.041
 3419TIP3   OH234235   5.777   6.569   8.308
 3419TIP3    H134236   5.806   6.487   8.353
 3419TIP3    H234237   5.845   6.581   8.241
 3420TIP3   OH234238   6.794   7.390   8.391
 3420TIP3    H134239   6.859   7.322   8.361
 3420TIP3    H234240   6.772   7.354   8.477
 3421TIP3   OH234241   6.552   6.817   8.587
 3421TIP3    H134242   6.585   6.756   8.520
 3421TIP3    H234243   6.633   6.834   8.637
 3422TIP3   OH234244   7.418   5.994   8.662
 3422TIP3    H134245   7.431   6.053   8.741
 3422TIP3    H234246   7.478   6.041   8.601
 3423TIP3   OH234247   6.868   6.266   8.618
 3423TIP3    H134248   6.883   6.170   8.620
 3423TIP3    H234249   6.858   6.279   8.522
 3424TIP3   OH234250   6.178   6.074   8.338
 3424TIP3    H134251   6.191   6.157   8.288
 3424TIP3    H234252   6.140   6.017   8.268
 3425TIP3   OH234253   6.955   6.079   8.178
 3425TIP3    H134254   7.020   6.050   8.245
 3425TIP3    H234255   7.009   6.139   8.123
 3426TIP3   OH234256   5.842   6.316   8.412
 3426TIP3    H134257   5.909   6.262   8.458
 3426TIP3    H234258   5.854   6.284   8.321
 3427TIP3   OH234259   6.356   6.470   8.349
 3427TIP3    H134260   6.426   6.412   8.384
 3427TIP3    H234261   6.307   6.407   8.293
 3428TIP3   OH234262   7.455   6.127   8.887
 3428TIP3    H134263   7.396   6.205   8.877
 3428TIP3    H234264   7.460   6.120   8.983
 3429TIP3   OH234265   6.072   5.964   8.742
 3429TIP3    H134266   6.043   6.022   8.668
 3429TIP3    H234267   6.004   5.987   8.811
 3430TIP3   OH234268   6.800   6.911   8.097
 3430TIP3    H134269   6.767   6.886   8.010
 3430TIP3    H234270   6.769   7.004   8.105
 3431TIP3   OH234271   6.321   6.728   8.766
 3431TIP3    H134272   6.252   6.793   8.789
 3431TIP3    H234273   6.392   6.788   8.737
 3432TIP3   OH234274   7.142   6.013   8.375
 3432TIP3    H134275   7.104   5.944   8.430
 3432TIP3    H234276   7.196   6.067   8.435
 3433TIP3   OH234277   6.028   6.149   8.547
 3433TIP3    H134278   6.091   6.219   8.577
 3433TIP3    H234279   6.079   6.109   8.472
 3434TIP3   OH234280   6.167   6.930   8.848
 3434TIP3    H134281   6.161   7.021   8.815
 3434TIP3    H234282   6.079   6.921   8.893
 3435TIP3   OH234283   5.771   6.889   7.928
 3435TIP3    H134284   5.753   6.921   7.839
 3435TIP3    H234285   5.782   6.972   7.978
 3436TIP3   OH234286   7.135   7.057   8.604
 3436TIP3    H134287   7.038   7.069   8.616
 3436TIP3    H234288   7.162   7.149   8.583
 3437TIP3   OH234289   7.169   5.886   8.732
 3437TIP3    H134290   7.093   5.946   8.737
 3437TIP3    H234291   7.239   5.944   8.700
 3438TIP3   OH234292   6.463   5.698   8.489
 3438TIP3    H134293   6.448   5.602   8.481
 3438TIP3    H234294   6.376   5.729   8.520
 3439TIP3   OH234295   6.964   7.236   8.266
 3439TIP3    H134296   7.004   7.164   8.213
 3439TIP3    H234297   7.006   7.314   8.224
 3440TIP3   OH234298   7.084   7.028   8.116
 3440TIP3    H134299   7.055   6.959   8.054
 3440TIP3    H234300   7.086   6.979   8.199
 3441TIP3   OH234301   7.244   6.889   8.964
 3441TIP3    H134302   7.258   6.822   8.893
 3441TIP3    H234303   7.266   6.972   8.918
 3442TIP3   OH234304   6.693   6.579   7.940
 3442TIP3    H134305   6.621   6.635   7.903
 3442TIP3    H234306   6.764   6.585   7.873
 3443TIP3   OH234307   6.701   6.429   7.644
 3443TIP3    H134308   6.774   6.431   7.708
 3443TIP3    H234309   6.737   6.364   7.583
 3444TIP3   OH234310   7.433   6.520   8.767
 3444TIP3    H134311   7.367   6.593   8.772
 3444TIP3    H234312   7.482   6.545   8.687
 3445TIP3   OH234313   7.043   6.597   8.033
 3445TIP3    H134314   6.967   6.621   8.092
 3445TIP3    H234315   7.088   6.530   8.087
 3446TIP3   OH234316   7.033   6.414   8.945
 3446TIP3    H134317   7.033   6.497   8.997
 3446TIP3    H234318   6.970   6.443   8.876
 3447TIP3   OH234319   6.199   6.663   8.224
 3447TIP3    H134320   6.169   6.626   8.137
 3447TIP3    H234321   6.261   6.594   8.257
 3448TIP3   OH234322   6.331   7.001   8.492
 3448TIP3    H134323   6.331   6.950   8.410
 3448TIP3    H234324   6.410   6.966   8.538
 3449TIP3   OH234325   6.232   6.538   8.591
 3449TIP3    H134326   6.287   6.547   8.510
 3449TIP3    H234327   6.273   6.605   8.651
 3450TIP3   OH234328   6.876   7.096   8.662
 3450TIP3    H134329   6.847   7.160   8.728
 3450TIP3    H234330   6.850   7.011   8.703
 3451TIP3   OH234331   6.328   6.981   9.061
 3451TIP3    H134332   6.286   7.054   9.109
 3451TIP3    H234333   6.262   6.961   8.990
 3452TIP3   OH234334   6.925   6.523   7.802
 3452TIP3    H134335   6.984   6.537   7.880
 3452TIP3    H234336   6.972   6.564   7.728
 3453TIP3   OH234337   6.022   6.598   8.975
 3453TIP3    H134338   6.027   6.662   9.047
 3453TIP3    H234339   5.927   6.604   8.956
 3454TIP3   OH234340   6.701   7.192   8.143
 3454TIP3    H134341   6.741   7.221   8.226
 3454TIP3    H234342   6.641   7.265   8.121
 3455TIP3   OH234343   6.154   7.184   9.134
 3455TIP3    H134344   6.147   7.176   9.037
 3455TIP3    H234345   6.061   7.171   9.161
 3456TIP3   OH234346   7.300   5.695   7.797
 3456TIP3    H134347   7.202   5.698   7.809
 3456TIP3    H234348   7.312   5.770   7.738
 3457TIP3   OH234349   6.098   6.563   7.983
 3457TIP3    H134350   6.070   6.644   7.933
 3457TIP3    H234351   6.029   6.500   7.962
 3458TIP3   OH234352   7.412   7.125   7.631
 3458TIP3    H134353   7.424   7.221   7.638
 3458TIP3    H234354   7.503   7.101   7.613
 3459TIP3   OH234355   5.704   6.808   8.878
 3459TIP3    H134356   5.662   6.800   8.791
 3459TIP3    H234357   5.714   6.713   8.900
 3460TIP3   OH234358   5.682   7.082   8.554
 3460TIP3    H134359   5.779   7.072   8.550
 3460TIP3    H234360   5.674   7.165   8.603
 3461TIP3   OH234361   7.506   7.153   9.122
 3461TIP3    H134362   7.494   7.057   9.119
 3461TIP3    H234363   7.419   7.178   9.161
 3462TIP3   OH234364   6.601   7.107   9.008
 3462TIP3    H134365   6.607   7.191   9.059
 3462TIP3    H234366   6.513   7.072   9.032
 3463TIP3   OH234367   6.646   7.480   7.984
 3463TIP3    H134368   6.635   7.481   7.890
 3463TIP3    H234369   6.647   7.575   8.008
 3464TIP3   OH234370   6.010   7.369   8.172
 3464TIP3    H134371   6.025   7.327   8.259
 3464TIP3    H234372   5.926   7.328   8.147
 3465TIP3   OH234373   6.919   7.396   7.960
 3465TIP3    H134374   6.825   7.402   7.985
 3465TIP3    H234375   6.947   7.323   8.018
 3466TIP3   OH234376   7.222   6.298   9.166
 3466TIP3    H134377   7.172   6.344   9.096
 3466TIP3    H234378   7.218   6.205   9.137
 3467TIP3   OH234379   5.935   6.939   8.969
 3467TIP3    H134380   5.956   6.904   9.058
 3467TIP3    H234381   5.848   6.901   8.948
 3468TIP3   OH234382   6.203   5.789   8.563
 3468TIP3    H134383   6.113   5.775   8.527
 3468TIP3    H234384   6.189   5.871   8.613
 3469TIP3   OH234385   6.668   5.754   8.900
 3469TIP3    H134386   6.707   5.711   8.979
 3469TIP3    H234387   6.571   5.744   8.915
 3470TIP3   OH234388   6.996   6.140   8.990
 3470TIP3    H134389   6.939   6.118   9.068
 3470TIP3    H234390   6.977   6.233   8.968
 3471TIP3   OH234391   6.214   6.286   8.692
 3471TIP3    H134392   6.139   6.286   8.755
 3471TIP3    H234393   6.208   6.376   8.652
 3472TIP3   OH234394   6.209   6.295   8.175
 3472TIP3    H134395   6.115   6.272   8.162
 3472TIP3    H234396   6.246   6.267   8.089
 3473TIP3   OH234397   6.761   6.344   8.051
 3473TIP3    H134398   6.722   6.429   8.019
 3473TIP3    H234399   6.830   6.329   7.984
 3474TIP3   OH234400   6.666   6.369   9.196
 3474TIP3    H134401   6.614   6.290   9.227
 3474TIP3    H234402   6.750   6.357   9.244
 3475TIP3   OH234403   6.866   6.297   8.338
 3475TIP3    H134404   6.836   6.353   8.264
 3475TIP3    H234405   6.874   6.212   8.290
 3476TIP3   OH234406   5.975   6.309   8.857
 3476TIP3    H134407   5.985   6.351   8.944
 3476TIP3    H234408   5.931   6.226   8.879
 3477TIP3   OH234409   5.642   6.021   8.257
 3477TIP3    H134410   5.710   6.016   8.327
 3477TIP3    H234411   5.686   5.983   8.178
 3478TIP3   OH234412   5.763   6.094   7.787
 3478TIP3    H134413   5.827   6.151   7.745
 3478TIP3    H234414   5.702   6.155   7.834
 3479TIP3   OH234415   6.784   6.455   8.792
 3479TIP3    H134416   6.822   6.386   8.734
 3479TIP3    H234417   6.737   6.402   8.859
 3480TIP3   OH234418   6.463   6.054   8.278
 3480TIP3    H134419   6.369   6.053   8.308
 3480TIP3    H234420   6.512   6.034   8.359
 3481TIP3   OH234421   5.946   6.208   8.161
 3481TIP3    H134422   5.857   6.222   8.124
 3481TIP3    H234423   5.976   6.123   8.125
 3482TIP3   OH234424   6.306   6.216   7.927
 3482TIP3    H134425   6.402   6.221   7.943
 3482TIP3    H234426   6.287   6.281   7.859
 3483TIP3   OH234427   6.906   5.977   8.600
 3483TIP3    H134428   6.838   5.981   8.672
 3483TIP3    H234429   6.853   5.951   8.523
 3484TIP3   OH234430   6.177   6.325   7.684
 3484TIP3    H134431   6.128   6.294   7.607
 3484TIP3    H234432   6.260   6.355   7.642
 3485TIP3   OH234433   7.224   7.539   9.234
 3485TIP3    H134434   7.250   7.577   9.148
 3485TIP3    H234435   7.297   7.571   9.288
 3486TIP3   OH234436   5.992   6.790   9.190
 3486TIP3    H134437   6.065   6.812   9.251
 3486TIP3    H234438   5.915   6.792   9.251
 3487TIP3   OH234439   6.592   6.329   8.466
 3487TIP3    H134440   6.653   6.275   8.413
 3487TIP3    H234441   6.578   6.273   8.544
 3488TIP3   OH234442   6.094   5.942   8.111
 3488TIP3    H134443   6.063   5.850   8.107
 3488TIP3    H234444   6.172   5.936   8.054
 3489TIP3   OH234445   6.456   6.160   8.707
 3489TIP3    H134446   6.374   6.213   8.716
 3489TIP3    H234447   6.512   6.196   8.779
 3490TIP3   OH234448   6.515   6.778   7.882
 3490TIP3    H134449   6.433   6.736   7.849
 3490TIP3    H234450   6.491   6.798   7.974
 3491TIP3   OH234451   7.235   6.704   8.757
 3491TIP3    H134452   7.290   6.753   8.693
 3491TIP3    H234453   7.149   6.707   8.712
 3492TIP3   OH234454   6.665   6.811   9.002
 3492TIP3    H134455   6.630   6.767   9.080
 3492TIP3    H234456   6.638   6.903   9.013
 3493TIP3   OH234457   6.971   6.255   7.863
 3493TIP3    H134458   7.061   6.243   7.901
 3493TIP3    H234459   6.981   6.332   7.804
 3494TIP3   OH234460   6.027   6.724   8.457
 3494TIP3    H134461   6.093   6.714   8.386
 3494TIP3    H234462   6.033   6.638   8.504
 3495TIP3   OH234463   5.727   6.563   8.981
 3495TIP3    H134464   5.740   6.518   9.067
 3495TIP3    H234465   5.661   6.502   8.943
 3496TIP3   OH234466   6.427   6.519   9.200
 3496TIP3    H134467   6.394   6.487   9.115
 3496TIP3    H234468   6.519   6.486   9.200
 3497TIP3   OH234469   6.896   7.053   8.997
 3497TIP3    H134470   6.804   7.070   8.973
 3497TIP3    H234471   6.892   7.082   9.090
 3498TIP3   OH234472   7.468   6.269   7.826
 3498TIP3    H134473   7.397   6.244   7.763
 3498TIP3    H234474   7.466   6.365   7.813
 3499TIP3   OH234475   7.461   6.857   9.115
 3499TIP3    H134476   7.371   6.879   9.079
 3499TIP3    H234477   7.515   6.851   9.034
 3500TIP3   OH234478   7.293   7.154   7.873
 3500TIP3    H134479   7.255   7.072   7.909
 3500TIP3    H234480   7.321   7.131   7.782
 3501TIP3   OH234481   7.013   6.635   8.586
 3501TIP3    H134482   6.919   6.615   8.574
 3501TIP3    H234483   7.055   6.560   8.541
 3502TIP3   OH234484   6.261   7.070   8.201
 3502TIP3    H134485   6.314   7.147   8.174
 3502TIP3    H234486   6.175   7.092   8.162
 3503TIP3   OH234487   6.405   6.835   8.148
 3503TIP3    H134488   6.372   6.927   8.156
 3503TIP3    H234489   6.333   6.785   8.192
 3504TIP3   OH234490   6.449   7.254   8.790
 3504TIP3    H134491   6.497   7.333   8.760
 3504TIP3    H234492   6.512   7.218   8.856
 3505TIP3   OH234493   6.275   7.333   8.102
 3505TIP3    H134494   6.178   7.345   8.115
 3505TIP3    H234495   6.309   7.418   8.136
 3506TIP3   OH234496   6.801   6.852   8.750
 3506TIP3    H134497   6.770   6.833   8.841
 3506TIP3    H234498   6.866   6.781   8.733
 3507TIP3   OH234499   7.026   6.961   7.661
 3507TIP3    H134500   7.069   6.914   7.736
 3507TIP3    H234501   6.937   6.934   7.677
 3508TIP3   OH234502   7.085   7.311   8.998
 3508TIP3    H134503   7.015   7.262   8.952
 3508TIP3    H234504   7.103   7.381   8.932
 3509TIP3   OH234505   7.480   7.396   7.681
 3509TIP3    H134506   7.551   7.460   7.666
 3509TIP3    H234507   7.410   7.458   7.713
 3510TIP3   OH234508   5.891   6.036   8.938
 3510TIP3    H134509   5.800   6.072   8.937
 3510TIP3    H234510   5.879   5.952   8.985
 3511TIP3   OH234511   7.111   6.824   7.888
 3511TIP3    H134512   7.089   6.743   7.938
 3511TIP3    H234513   7.207   6.828   7.902
 3512TIP3   OH234514   5.850   7.212   8.782
 3512TIP3    H134515   5.884   7.121   8.782
 3512TIP3    H234516   5.879   7.244   8.868
 3513TIP3   OH234517   6.330   7.022   7.754
 3513TIP3    H134518   6.350   6.969   7.832
 3513TIP3    H234519   6.331   7.116   7.783
 3514TIP3   OH234520   5.984   6.744   7.814
 3514TIP3    H134521   5.907   6.787   7.855
 3514TIP3    H234522   6.027   6.821   7.772
 3515TIP3   OH234523   6.764   6.014   8.835
 3515TIP3    H134524   6.835   6.020   8.900
 3515TIP3    H234525   6.726   5.926   8.857
 3516TIP3   OH234526   6.841   5.971   7.936
 3516TIP3    H134527   6.861   6.025   7.859
 3516TIP3    H234528   6.894   6.014   8.004
 3517TIP3   OH234529   6.605   7.187   7.817
 3517TIP3    H134530   6.522   7.237   7.832
 3517TIP3    H234531   6.660   7.244   7.764
 3518TIP3   OH234532   6.560   6.145   8.024
 3518TIP3    H134533   6.638   6.204   8.027
 3518TIP3    H234534   6.533   6.132   8.117
 3519TIP3   OH234535   6.617   6.249   8.945
 3519TIP3    H134536   6.624   6.303   9.025
 3519TIP3    H234537   6.683   6.179   8.954
 3520TIP3   OH234538   6.646   5.851   8.111
 3520TIP3    H134539   6.612   5.916   8.175
 3520TIP3    H234540   6.715   5.906   8.067
 3521TIP3   OH234541   6.348   7.290   7.830
 3521TIP3    H134542   6.355   7.370   7.773
 3521TIP3    H234543   6.316   7.326   7.914
 3522TIP3   OH234544   6.216   5.963   7.784
 3522TIP3    H134545   6.206   6.051   7.822
 3522TIP3    H234546   6.305   5.937   7.814
 3523TIP3   OH234547   7.233   6.033   9.028
 3523TIP3    H134548   7.141   6.068   9.018
 3523TIP3    H234549   7.264   6.036   8.937
 3524TIP3   OH234550   7.096   6.414   8.428
 3524TIP3    H134551   7.014   6.369   8.402
 3524TIP3    H234552   7.143   6.347   8.481
 3525TIP3   OH234553   6.044   6.999   7.699
 3525TIP3    H134554   6.104   7.072   7.718
 3525TIP3    H234555   6.083   6.964   7.616
 3526TIP3   OH234556   7.202   7.339   8.596
 3526TIP3    H134557   7.193   7.408   8.527
 3526TIP3    H234558   7.298   7.345   8.614
 3527TIP3   OH234559   5.951   5.752   8.479
 3527TIP3    H134560   5.933   5.753   8.382
 3527TIP3    H234561   5.910   5.666   8.503
 3528TIP3   OH234562   5.847   7.144   8.091
 3528TIP3    H134563   5.761   7.189   8.088
 3528TIP3    H234564   5.893   7.189   8.020
 3529TIP3   OH234565   5.766   7.409   9.219
 3529TIP3    H134566   5.827   7.390   9.294
 3529TIP3    H234567   5.727   7.322   9.202
 3530TIP3   OH234568   6.237   7.301   9.380
 3530TIP3    H134569   6.311   7.251   9.414
 3530TIP3    H234570   6.233   7.273   9.287
 3531TIP3   OH234571   6.885   7.140   9.256
 3531TIP3    H134572   6.853   7.051   9.284
 3531TIP3    H234573   6.962   7.152   9.315
 3532TIP3   OH234574   5.758   6.789   9.319
 3532TIP3    H134575   5.772   6.695   9.294
 3532TIP3    H234576   5.683   6.811   9.262
 3533TIP3   OH234577   6.429   6.786   9.258
 3533TIP3    H134578   6.396   6.818   9.172
 3533TIP3    H234579   6.436   6.688   9.247
 3534TIP3   OH234580   6.999   6.771   8.998
 3534TIP3    H134581   7.078   6.828   8.993
 3534TIP3    H234582   6.929   6.839   9.001
 3535TIP3   OH234583   5.864   6.512   9.260
 3535TIP3    H134584   5.889   6.420   9.250
 3535TIP3    H234585   5.818   6.509   9.346
 3536TIP3   OH234586   6.320   6.620   7.769
 3536TIP3    H134587   6.261   6.569   7.827
 3536TIP3    H234588   6.341   6.557   7.697
 3537TIP3   OH234589   6.239   6.403   8.993
 3537TIP3    H134590   6.180   6.476   9.018
 3537TIP3    H234591   6.280   6.440   8.913
 3538TIP3   OH234592   6.418   6.433   7.583
 3538TIP3    H134593   6.405   6.440   7.488
 3538TIP3    H234594   6.515   6.449   7.593
 3539TIP3   OH234595   6.748   6.661   9.328
 3539TIP3    H134596   6.843   6.658   9.313
 3539TIP3    H234597   6.731   6.584   9.384
 3540TIP3   OH234598   6.285   6.141   9.098
 3540TIP3    H134599   6.293   6.071   9.031
 3540TIP3    H234600   6.276   6.223   9.043
 3541TIP3   OH234601   6.321   5.979   8.854
 3541TIP3    H134602   6.372   6.026   8.784
 3541TIP3    H234603   6.232   5.972   8.815
 3542TIP3   OH234604   6.475   6.530   8.879
 3542TIP3    H134605   6.550   6.513   8.822
 3542TIP3    H234606   6.438   6.612   8.844
 3543TIP3   OH234607   6.914   6.303   9.373
 3543TIP3    H134608   6.938   6.210   9.365
 3543TIP3    H234609   7.000   6.348   9.378
 3544TIP3   OH234610   7.050   6.583   9.192
 3544TIP3    H134611   7.024   6.655   9.130
 3544TIP3    H234612   7.145   6.580   9.173
 3545TIP3   OH234613   6.128   6.265   9.292
 3545TIP3    H134614   6.049   6.210   9.275
 3545TIP3    H234615   6.192   6.229   9.228
 3546TIP3   OH234616   6.400   5.723   8.892
 3546TIP3    H134617   6.380   5.819   8.883
 3546TIP3    H234618   6.325   5.686   8.842
 3547TIP3   OH234619   6.528   6.156   9.257
 3547TIP3    H134620   6.495   6.132   9.346
 3547TIP3    H234621   6.450   6.136   9.202
 3548TIP3   OH234622   6.799   6.071   9.166
 3548TIP3    H134623   6.703   6.076   9.177
 3548TIP3    H234624   6.825   6.006   9.235
 3549TIP3   OH234625   6.957   5.932   9.354
 3549TIP3    H134626   6.953   5.834   9.358
 3549TIP3    H234627   6.933   5.961   9.444
 3550TIP3   OH234628   5.936   6.060   9.267
 3550TIP3    H134629   5.959   5.985   9.209
 3550TIP3    H234630   5.924   6.016   9.354
 3551TIP3   OH234631   6.421   5.664   9.163
 3551TIP3    H134632   6.489   5.593   9.162
 3551TIP3    H234633   6.410   5.676   9.067
 3552TIP3   OH234634   6.458   5.824   9.376
 3552TIP3    H134635   6.440   5.773   9.293
 3552TIP3    H234636   6.398   5.900   9.366
 3553TIP3   OH234637   6.411   7.516   7.694
 3553TIP3    H134638   6.505   7.533   7.697
 3553TIP3    H234639   6.381   7.571   7.620
 3554TIP3   OH234640   5.638   7.510   8.136
 3554TIP3    H134641   5.567   7.462   8.089
 3554TIP3    H234642   5.665   7.445   8.203
 3555TIP3   OH234643   5.720   7.324   8.323
 3555TIP3    H134644   5.684   7.237   8.344
 3555TIP3    H234645   5.743   7.358   8.412
 3556TIP3   OH234646   7.467   7.406   8.615
 3556TIP3    H134647   7.476   7.420   8.711
 3556TIP3    H234648   7.543   7.459   8.585
 3557TIP3   OH234649   7.433   7.363   8.912
 3557TIP3    H134650   7.384   7.287   8.873
 3557TIP3    H234651   7.481   7.317   8.983
 3558TIP3   OH234652   7.276   6.935   9.379
 3558TIP3    H134653   7.185   6.933   9.414
 3558TIP3    H234654   7.313   7.017   9.419
 3559TIP3   OH234655   7.413   6.765   7.915
 3559TIP3    H134656   7.494   6.810   7.943
 3559TIP3    H234657   7.406   6.698   7.986
 3560TIP3   OH234658   7.442   6.578   8.106
 3560TIP3    H134659   7.367   6.527   8.145
 3560TIP3    H234660   7.501   6.588   8.183
 3561TIP3   OH234661   7.418   6.845   8.608
 3561TIP3    H134662   7.499   6.807   8.570
 3561TIP3    H234663   7.433   6.940   8.591
 3562TIP3   OH234664   7.274   7.137   8.834
 3562TIP3    H134665   7.206   7.171   8.893
 3562TIP3    H234666   7.220   7.097   8.763
 3563TIP3   OH234667   7.319   6.280   7.598
 3563TIP3    H134668   7.304   6.350   7.533
 3563TIP3    H234669   7.281   6.204   7.550
 3564TIP3   OH234670   7.225   6.424   8.169
 3564TIP3    H134671   7.210   6.329   8.161
 3564TIP3    H234672   7.193   6.443   8.260
 3565TIP3   OH234673   5.726   6.633   8.573
 3565TIP3    H134674   5.743   6.624   8.477
 3565TIP3    H234675   5.816   6.614   8.608
 3566TIP3   OH234676   7.312   6.619   9.137
 3566TIP3    H134677   7.374   6.544   9.149
 3566TIP3    H234678   7.372   6.697   9.136
 3567TIP3   OH234679   7.462   6.408   9.201
 3567TIP3    H134680   7.374   6.368   9.186
 3567TIP3    H234681   7.520   6.330   9.194
 3568TIP3   OH234682   7.191   6.182   8.011
 3568TIP3    H134683   7.219   6.089   8.024
 3568TIP3    H234684   7.272   6.222   7.977
 3569TIP3   OH234685   7.257   6.230   8.558
 3569TIP3    H134686   7.351   6.262   8.555
 3569TIP3    H234687   7.236   6.254   8.650
 3570TIP3   OH234688   7.262   6.307   8.829
 3570TIP3    H134689   7.175   6.336   8.865
 3570TIP3    H234690   7.306   6.393   8.812
 3571TIP3   OH234691   5.692   6.153   9.186
 3571TIP3    H134692   5.784   6.137   9.212
 3571TIP3    H234693   5.642   6.076   9.219
 3572TIP3   OH234694   7.491   5.716   9.369
 3572TIP3    H134695   7.526   5.650   9.306
 3572TIP3    H234696   7.499   5.797   9.315
 3573TIP3   OH234697   7.258   5.909   8.016
 3573TIP3    H134698   7.279   5.866   8.101
 3573TIP3    H234699   7.196   5.845   7.973
 3574TIP3   OH234700   5.808   5.992   8.474
 3574TIP3    H134701   5.853   5.909   8.498
 3574TIP3    H234702   5.864   6.060   8.512
 3575TIP3   OH234703   5.635   6.292   8.574
 3575TIP3    H134704   5.694   6.267   8.500
 3575TIP3    H234705   5.682   6.371   8.605
 3576TIP3   OH234706   7.442   5.925   9.205
 3576TIP3    H134707   7.348   5.953   9.199
 3576TIP3    H234708   7.445   5.870   9.125
 3577TIP3   OH234709   5.671   5.922   7.984
 3577TIP3    H134710   5.576   5.936   7.971
 3577TIP3    H234711   5.713   5.966   7.909
 3578TIP3   OH234712   7.145   7.411   8.179
 3578TIP3    H134713   7.214   7.381   8.116
 3578TIP3    H234714   7.196   7.462   8.243
 3579TIP3   OH234715   5.667   5.782   8.813
 3579TIP3    H134716   5.601   5.763   8.882
 3579TIP3    H234717   5.621   5.850   8.759
 3580TIP3   OH234718   5.891   7.102   9.229
 3580TIP3    H134719   5.807   7.123   9.186
 3580TIP3    H234720   5.865   7.095   9.321
 3581TIP3   OH234721   6.181   7.203   8.858
 3581TIP3    H134722   6.150   7.291   8.831
 3581TIP3    H234723   6.273   7.211   8.828
 3582TIP3   OH234724   6.613   7.346   9.147
 3582TIP3    H134725   6.626   7.311   9.238
 3582TIP3    H234726   6.704   7.377   9.124
 3583TIP3   OH234727   6.841   7.473   9.079
 3583TIP3    H134728   6.915   7.415   9.055
 3583TIP3    H234729   6.877   7.518   9.159
 3584TIP3   OH234730   7.347   5.735   8.987
 3584TIP3    H134731   7.260   5.762   8.952
 3584TIP3    H234732   7.360   5.649   8.941
 3585TIP3   OH234733   5.921   7.522   8.857
 3585TIP3    H134734   5.852   7.578   8.818
 3585TIP3    H234735   5.890   7.510   8.948
 3586TIP3   OH234736   6.168   7.477   8.766
 3586TIP3    H134737   6.082   7.505   8.804
 3586TIP3    H234738   6.169   7.540   8.690
 3587TIP3   OH234739   6.643   7.477   8.682
 3587TIP3    H134740   6.595   7.531   8.617
 3587TIP3    H234741   6.654   7.542   8.755
 3588TIP3   OH234742   6.869   7.355   8.786
 3588TIP3    H134743   6.785   7.385   8.747
 3588TIP3    H234744   6.919   7.438   8.776
 3589TIP3   OH234745   7.125   7.512   8.805
 3589TIP3    H134746   7.121   7.608   8.784
 3589TIP3    H234747   7.150   7.475   8.718
 3590TIP3   OH234748   5.871   7.391   8.551
 3590TIP3    H134749   5.861   7.346   8.638
 3590TIP3    H234750   5.952   7.353   8.513
 3591TIP3   OH234751   6.078   7.263   8.416
 3591TIP3    H134752   6.062   7.170   8.441
 3591TIP3    H234753   6.163   7.279   8.462
 3592TIP3   OH234754   6.339   7.312   8.505
 3592TIP3    H134755   6.353   7.219   8.479
 3592TIP3    H234756   6.342   7.306   8.602
 3593TIP3   OH234757   6.683   5.876   8.418
 3593TIP3    H134758   6.615   5.813   8.447
 3593TIP3    H234759   6.738   5.822   8.360
 3594TIP3   OH234760   7.200   5.694   8.432
 3594TIP3    H134761   7.252   5.734   8.359
 3594TIP3    H234762   7.107   5.712   8.402
 3595TIP3   OH234763   7.368   5.803   8.262
 3595TIP3    H134764   7.430   5.746   8.209
 3595TIP3    H234765   7.416   5.890   8.257
 3596TIP3   OH234766   5.919   5.738   8.206
 3596TIP3    H134767   5.841   5.720   8.151
 3596TIP3    H234768   5.966   5.653   8.195
 3597TIP3   OH234769   5.800   5.714   7.779
 3597TIP3    H134770   5.844   5.778   7.723
 3597TIP3    H234771   5.737   5.766   7.831
 3598TIP3   OH234772   6.366   5.730   8.183
 3598TIP3    H134773   6.455   5.766   8.172
 3598TIP3    H234774   6.364   5.709   8.276
 3599TIP3   OH234775   6.946   5.731   8.342
 3599TIP3    H134776   6.931   5.746   8.248
 3599TIP3    H234777   6.900   5.644   8.356
 3600TIP3   OH234778   7.064   5.736   7.920
 3600TIP3    H134779   6.991   5.795   7.895
 3600TIP3    H234780   7.020   5.649   7.932
 3601TIP3   OH234781   5.787   7.309   7.878
 3601TIP3    H134782   5.724   7.309   7.803
 3601TIP3    H234783   5.792   7.405   7.891
 3602TIP3   OH234784   6.476   5.933   7.866
 3602TIP3    H134785   6.507   5.875   7.937
 3602TIP3    H234786   6.492   6.020   7.910
 3603TIP3   OH234787   7.343   7.394   7.982
 3603TIP3    H134788   7.326   7.313   7.927
 3603TIP3    H234789   7.339   7.466   7.916
 3604TIP3   OH234790   5.908   5.793   9.148
 3604TIP3    H134791   5.868   5.714   9.187
 3604TIP3    H234792   5.999   5.789   9.187
 3605TIP3   OH234793   6.108   5.732   9.313
 3605TIP3    H134794   6.197   5.698   9.292
 3605TIP3    H234795   6.071   5.651   9.353
 3606TIP3   OH234796   6.948   5.660   9.328
 3606TIP3    H134797   6.958   5.613   9.413
 3606TIP3    H234798   7.040   5.658   9.294
 3607TIP3   OH234799   7.270   7.266   9.190
 3607TIP3    H134800   7.189   7.252   9.135
 3607TIP3    H234801   7.257   7.360   9.212
 3608TIP3   OH234802   7.832   6.549   8.696
 3608TIP3    H134803   7.847   6.477   8.761
 3608TIP3    H234804   7.912   6.600   8.714
 3609TIP3   OH234805   7.908   6.977   8.559
 3609TIP3    H134806   7.892   6.894   8.511
 3609TIP3    H234807   8.006   6.981   8.551
 3610TIP3   OH234808   7.590   6.347   8.090
 3610TIP3    H134809   7.547   6.435   8.089
 3610TIP3    H234810   7.528   6.293   8.041
 3611TIP3   OH234811   7.662   6.570   8.306
 3611TIP3    H134812   7.690   6.488   8.352
 3611TIP3    H234813   7.735   6.582   8.243
 3612TIP3   OH234814   7.723   6.313   8.412
 3612TIP3    H134815   7.793   6.263   8.458
 3612TIP3    H234816   7.742   6.285   8.321
 3613TIP3   OH234817   7.935   5.963   8.740
 3613TIP3    H134818   7.924   6.026   8.666
 3613TIP3    H234819   7.876   5.996   8.810
 3614TIP3   OH234820   7.900   6.135   8.536
 3614TIP3    H134821   7.955   6.208   8.578
 3614TIP3    H234822   7.960   6.107   8.465
 3615TIP3   OH234823   8.033   6.965   8.849
 3615TIP3    H134824   8.026   7.051   8.809
 3615TIP3    H234825   7.947   6.946   8.892
 3616TIP3   OH234826   7.661   6.891   7.924
 3616TIP3    H134827   7.641   6.929   7.839
 3616TIP3    H234828   7.667   6.971   7.981
 3617TIP3   OH234829   7.897   6.596   8.977
 3617TIP3    H134830   7.907   6.661   9.048
 3617TIP3    H234831   7.804   6.606   8.954
 3618TIP3   OH234832   8.037   7.184   9.137
 3618TIP3    H134833   8.033   7.170   9.042
 3618TIP3    H234834   7.943   7.171   9.161
 3619TIP3   OH234835   7.979   6.570   7.984
 3619TIP3    H134836   7.955   6.648   7.930
 3619TIP3    H234837   7.911   6.507   7.963
 3620TIP3   OH234838   7.589   6.808   8.877
 3620TIP3    H134839   7.547   6.800   8.789
 3620TIP3    H234840   7.602   6.713   8.898
 3621TIP3   OH234841   7.568   7.083   8.555
 3621TIP3    H134842   7.664   7.072   8.551
 3621TIP3    H234843   7.562   7.167   8.603
 3622TIP3   OH234844   7.884   7.360   8.173
 3622TIP3    H134845   7.900   7.322   8.261
 3622TIP3    H234846   7.798   7.320   8.151
 3623TIP3   OH234847   7.809   6.945   8.976
 3623TIP3    H134848   7.839   6.900   9.058
 3623TIP3    H234849   7.728   6.897   8.949
 3624TIP3   OH234850   7.860   6.312   8.860
 3624TIP3    H134851   7.864   6.351   8.949
 3624TIP3    H234852   7.822   6.225   8.877
 3625TIP3   OH234853   7.522   6.013   8.259
 3625TIP3    H134854   7.594   6.019   8.326
 3625TIP3    H234855   7.571   5.989   8.179
 3626TIP3   OH234856   7.827   6.212   8.161
 3626TIP3    H134857   7.738   6.220   8.124
 3626TIP3    H234858   7.860   6.125   8.134
 3627TIP3   OH234859   7.876   6.795   9.188
 3627TIP3    H134860   7.946   6.813   9.250
 3627TIP3    H234861   7.798   6.797   9.248
 3628TIP3   OH234862   7.928   5.937   8.089
 3628TIP3    H134863   7.926   5.844   8.118
 3628TIP3    H234864   8.024   5.946   8.084
 3629TIP3   OH234865   7.907   6.723   8.449
 3629TIP3    H134866   7.984   6.718   8.390
 3629TIP3    H234867   7.917   6.642   8.503
 3630TIP3   OH234868   7.611   6.561   8.983
 3630TIP3    H134869   7.627   6.517   9.069
 3630TIP3    H234870   7.548   6.501   8.938
 3631TIP3   OH234871   7.774   6.036   8.943
 3631TIP3    H134872   7.684   6.072   8.935
 3631TIP3    H234873   7.761   5.949   8.984
 3632TIP3   OH234874   7.746   7.215   8.779
 3632TIP3    H134875   7.760   7.119   8.785
 3632TIP3    H234876   7.762   7.246   8.869
 3633TIP3   OH234877   7.859   6.747   7.796
 3633TIP3    H134878   7.800   6.790   7.860
 3633TIP3    H234879   7.917   6.823   7.773
 3634TIP3   OH234880   7.921   6.998   7.696
 3634TIP3    H134881   7.981   7.071   7.717
 3634TIP3    H234882   7.966   6.967   7.615
 3635TIP3   OH234883   7.828   5.755   8.480
 3635TIP3    H134884   7.826   5.755   8.382
 3635TIP3    H234885   7.800   5.665   8.504
 3636TIP3   OH234886   7.725   7.142   8.089
 3636TIP3    H134887   7.642   7.192   8.087
 3636TIP3    H234888   7.778   7.189   8.024
 3637TIP3   OH234889   7.651   7.410   9.217
 3637TIP3    H134890   7.710   7.391   9.293
 3637TIP3    H234891   7.611   7.323   9.202
 3638TIP3   OH234892   7.644   6.786   9.319
 3638TIP3    H134893   7.658   6.694   9.291
 3638TIP3    H234894   7.569   6.812   9.263
 3639TIP3   OH234895   7.737   6.510   9.259
 3639TIP3    H134896   7.777   6.424   9.247
 3639TIP3    H234897   7.716   6.510   9.353
 3640TIP3   OH234898   7.999   6.283   9.303
 3640TIP3    H134899   7.929   6.217   9.283
 3640TIP3    H234900   8.069   6.252   9.243
 3641TIP3   OH234901   7.820   6.059   9.266
 3641TIP3    H134902   7.842   5.984   9.207
 3641TIP3    H234903   7.814   6.017   9.354
 3642TIP3   OH234904   7.523   7.510   8.135
 3642TIP3    H134905   7.451   7.461   8.089
 3642TIP3    H234906   7.552   7.446   8.203
 3643TIP3   OH234907   7.605   7.323   8.323
 3643TIP3    H134908   7.569   7.236   8.344
 3643TIP3    H234909   7.631   7.356   8.411
 3644TIP3   OH234910   7.613   6.638   8.572
 3644TIP3    H134911   7.632   6.622   8.477
 3644TIP3    H234912   7.701   6.615   8.609
 3645TIP3   OH234913   7.571   6.163   9.188
 3645TIP3    H134914   7.665   6.141   9.206
 3645TIP3    H234915   7.526   6.080   9.215
 3646TIP3   OH234916   7.685   5.990   8.480
 3646TIP3    H134917   7.743   5.910   8.493
 3646TIP3    H234918   7.750   6.059   8.506
 3647TIP3   OH234919   7.519   6.292   8.576
 3647TIP3    H134920   7.579   6.269   8.502
 3647TIP3    H234921   7.565   6.372   8.605
 3648TIP3   OH234922   7.554   5.919   7.983
 3648TIP3    H134923   7.459   5.935   7.971
 3648TIP3    H234924   7.595   5.967   7.912
 3649TIP3   OH234925   7.549   5.780   8.811
 3649TIP3    H134926   7.486   5.763   8.884
 3649TIP3    H234927   7.509   5.856   8.765
 3650TIP3   OH234928   7.774   7.104   9.230
 3650TIP3    H134929   7.691   7.126   9.184
 3650TIP3    H234930   7.745   7.093   9.321
 3651TIP3   OH234931   7.808   7.526   8.860
 3651TIP3    H134932   7.736   7.577   8.817
 3651TIP3    H234933   7.771   7.511   8.948
 3652TIP3   OH234934   8.036   7.449   8.737
 3652TIP3    H134935   7.969   7.486   8.798
 3652TIP3    H234936   8.057   7.532   8.690
 3653TIP3   OH234937   7.745   7.392   8.554
 3653TIP3    H134938   7.750   7.348   8.642
 3653TIP3    H234939   7.828   7.358   8.514
 3654TIP3   OH234940   7.944   7.263   8.433
 3654TIP3    H134941   7.938   7.166   8.446
 3654TIP3    H234942   8.034   7.275   8.467
 3655TIP3   OH234943   7.797   5.734   8.208
 3655TIP3    H134944   7.720   5.714   8.151
 3655TIP3    H234945   7.852   5.654   8.201
 3656TIP3   OH234946   7.689   5.714   7.782
 3656TIP3    H134947   7.727   5.774   7.716
 3656TIP3    H234948   7.624   5.766   7.831
 3657TIP3   OH234949   7.674   7.312   7.874
 3657TIP3    H134950   7.605   7.310   7.806
 3657TIP3    H234951   7.679   7.407   7.890
 3658TIP3   OH234952   7.800   5.794   9.145
 3658TIP3    H134953   7.760   5.716   9.186
 3658TIP3    H234954   7.890   5.789   9.185
 3659TIP3   OH234955   7.993   5.728   9.314
 3659TIP3    H134956   8.081   5.697   9.287
 3659TIP3    H234957   7.957   5.647   9.354
 3660TIP3   OH234958   1.733   7.899   8.647
 3660TIP3    H134959   1.774   7.919   8.734
 3660TIP3    H234960   1.812   7.905   8.592
 3661TIP3   OH234961   0.524   7.959   8.339
 3661TIP3    H134962   0.536   8.041   8.289
 3661TIP3    H234963   0.488   7.900   8.269
 3662TIP3   OH234964   1.300   7.963   8.171
 3662TIP3    H134965   1.363   7.938   8.244
 3662TIP3    H234966   1.360   8.021   8.122
 3663TIP3   OH234967   1.797   7.983   8.884
 3663TIP3    H134968   1.765   8.071   8.856
 3663TIP3    H234969   1.819   7.994   8.978
 3664TIP3   OH234970   0.417   7.838   8.751
 3664TIP3    H134971   0.389   7.893   8.673
 3664TIP3    H234972   0.347   7.866   8.815
 3665TIP3   OH234973   1.469   7.889   8.370
 3665TIP3    H134974   1.458   7.820   8.436
 3665TIP3    H234975   1.533   7.948   8.416
 3666TIP3   OH234976   0.386   8.000   8.560
 3666TIP3    H134977   0.425   8.086   8.583
 3666TIP3    H234978   0.427   7.985   8.471
 3667TIP3   OH234979   1.509   7.775   8.745
 3667TIP3    H134980   1.435   7.836   8.729
 3667TIP3    H234981   1.582   7.813   8.690
 3668TIP3   OH234982   0.807   7.582   8.489
 3668TIP3    H134983   0.791   7.487   8.482
 3668TIP3    H234984   0.720   7.614   8.521
 3669TIP3   OH234985   1.640   7.578   7.781
 3669TIP3    H134986   1.546   7.585   7.813
 3669TIP3    H234987   1.655   7.670   7.755
 3670TIP3   OH234988   0.549   7.676   8.562
 3670TIP3    H134989   0.457   7.660   8.529
 3670TIP3    H234990   0.534   7.756   8.616
 3671TIP3   OH234991   1.011   7.639   8.901
 3671TIP3    H134992   1.050   7.596   8.980
 3671TIP3    H234993   0.913   7.629   8.916
 3672TIP3   OH234994   1.340   8.026   8.994
 3672TIP3    H134995   1.280   8.002   9.069
 3672TIP3    H234996   1.310   8.113   8.966
 3673TIP3   OH234997   0.012   7.939   8.265
 3673TIP3    H134998   0.062   7.902   8.341
 3673TIP3    H234999   0.023   7.871   8.198
 3674TIP3   OH235000   0.092   7.953   7.774
 3674TIP3    H135001   0.155   8.023   7.745
 3674TIP3    H235002   0.044   8.018   7.828
 3675TIP3   OH235003   0.806   7.925   8.276
 3675TIP3    H135004   0.713   7.934   8.306
 3675TIP3    H235005   0.858   7.920   8.357
 3676TIP3   OH235006   1.251   7.860   8.603
 3676TIP3    H135007   1.180   7.872   8.670
 3676TIP3    H235008   1.200   7.837   8.524
 3677TIP3   OH235009   0.441   7.827   8.112
 3677TIP3    H135010   0.406   7.736   8.109
 3677TIP3    H235011   0.520   7.821   8.056
 3678TIP3   OH235012   0.803   8.024   8.695
 3678TIP3    H135013   0.729   8.087   8.700
 3678TIP3    H235014   0.857   8.065   8.766
 3679TIP3   OH235015   0.232   7.920   8.941
 3679TIP3    H135016   0.143   7.958   8.936
 3679TIP3    H235017   0.214   7.834   8.984
 3680TIP3   OH235018   1.101   7.894   8.833
 3680TIP3    H135019   1.173   7.907   8.896
 3680TIP3    H235020   1.068   7.806   8.857
 3681TIP3   OH235021   1.180   7.865   7.948
 3681TIP3    H135022   1.200   7.903   7.860
 3681TIP3    H235023   1.243   7.902   8.012
 3682TIP3   OH235024   0.913   8.022   8.024
 3682TIP3    H135025   0.980   8.093   8.028
 3682TIP3    H235026   0.876   8.021   8.114
 3683TIP3   OH235027   0.993   7.736   8.120
 3683TIP3    H135028   0.956   7.803   8.182
 3683TIP3    H235029   1.057   7.791   8.067
 3684TIP3   OH235030   1.579   7.919   9.026
 3684TIP3    H135031   1.485   7.950   9.019
 3684TIP3    H235032   1.607   7.917   8.933
 3685TIP3   OH235033   0.298   7.638   8.474
 3685TIP3    H135034   0.272   7.640   8.379
 3685TIP3    H235035   0.257   7.553   8.502
 3686TIP3   OH235036   0.566   7.997   9.084
 3686TIP3    H135037   0.626   7.940   9.032
 3686TIP3    H235038   0.600   8.086   9.063
 3687TIP3   OH235039   0.662   7.866   8.855
 3687TIP3    H135040   0.717   7.906   8.784
 3687TIP3    H235041   0.573   7.861   8.813
 3688TIP3   OH235042   0.743   7.611   8.891
 3688TIP3    H135043   0.722   7.706   8.885
 3688TIP3    H235044   0.668   7.574   8.841
 3689TIP3   OH235045   0.898   7.986   9.289
 3689TIP3    H135046   0.864   8.018   9.375
 3689TIP3    H235047   0.814   7.994   9.243
 3690TIP3   OH235048   1.142   7.945   9.153
 3690TIP3    H135049   1.051   7.963   9.181
 3690TIP3    H235050   1.172   7.896   9.232
 3691TIP3   OH235051   1.299   7.816   9.357
 3691TIP3    H135052   1.292   7.718   9.355
 3691TIP3    H235053   1.276   7.842   9.448
 3692TIP3   OH235054   0.287   7.948   9.274
 3692TIP3    H135055   0.303   7.877   9.208
 3692TIP3    H235056   0.276   7.893   9.354
 3693TIP3   OH235057   0.765   7.548   9.162
 3693TIP3    H135058   0.832   7.476   9.161
 3693TIP3    H235059   0.754   7.563   9.067
 3694TIP3   OH235060   0.799   7.702   9.378
 3694TIP3    H135061   0.785   7.654   9.292
 3694TIP3    H235062   0.747   7.784   9.365
 3695TIP3   OH235063   1.558   8.051   8.047
 3695TIP3    H135064   1.575   7.957   8.023
 3695TIP3    H235065   1.610   8.095   7.977
 3696TIP3   OH235066   0.041   8.023   9.168
 3696TIP3    H135067   0.132   8.014   9.200
 3696TIP3    H235068  -0.006   7.954   9.214
 3697TIP3   OH235069   1.834   7.596   9.368
 3697TIP3    H135070   1.870   7.532   9.304
 3697TIP3    H235071   1.840   7.679   9.317
 3698TIP3   OH235072   1.607   7.790   8.010
 3698TIP3    H135073   1.626   7.753   8.099
 3698TIP3    H235074   1.540   7.728   7.975
 3699TIP3   OH235075   0.158   7.874   8.470
 3699TIP3    H135076   0.200   7.792   8.499
 3699TIP3    H235077   0.201   7.938   8.527
 3700TIP3   OH235078   1.783   7.806   9.205
 3700TIP3    H135079   1.692   7.839   9.196
 3700TIP3    H235080   1.791   7.756   9.122
 3701TIP3   OH235081   0.033   7.776   7.944
 3701TIP3    H135082  -0.059   7.806   7.956
 3701TIP3    H235083   0.071   7.855   7.900
 3702TIP3   OH235084   0.031   7.684   8.827
 3702TIP3    H135085  -0.043   7.655   8.882
 3702TIP3    H235086  -0.026   7.742   8.771
 3703TIP3   OH235087   1.680   7.614   8.995
 3703TIP3    H135088   1.605   7.649   8.945
 3703TIP3    H235089   1.706   7.537   8.939
 3704TIP3   OH235090   1.026   7.759   8.416
 3704TIP3    H135091   0.959   7.695   8.447
 3704TIP3    H235092   1.082   7.703   8.360
 3705TIP3   OH235093   1.539   7.567   8.424
 3705TIP3    H135094   1.604   7.624   8.377
 3705TIP3    H235095   1.453   7.608   8.400
 3706TIP3   OH235096   1.704   7.688   8.248
 3706TIP3    H135097   1.777   7.632   8.213
 3706TIP3    H235098   1.755   7.768   8.269
 3707TIP3   OH235099   0.266   7.623   8.204
 3707TIP3    H135100   0.185   7.604   8.153
 3707TIP3    H235101   0.312   7.538   8.195
 3708TIP3   OH235102   0.138   7.599   7.769
 3708TIP3    H135103   0.183   7.670   7.724
 3708TIP3    H235104   0.087   7.650   7.837
 3709TIP3   OH235105   0.711   7.612   8.182
 3709TIP3    H135106   0.800   7.652   8.173
 3709TIP3    H235107   0.704   7.603   8.277
 3710TIP3   OH235108   1.281   7.617   8.344
 3710TIP3    H135109   1.277   7.629   8.249
 3710TIP3    H235110   1.240   7.528   8.356
 3711TIP3   OH235111   1.407   7.623   7.908
 3711TIP3    H135112   1.333   7.684   7.897
 3711TIP3    H235113   1.363   7.538   7.931
 3712TIP3   OH235114   0.816   7.818   7.869
 3712TIP3    H135115   0.853   7.762   7.937
 3712TIP3    H235116   0.833   7.905   7.912
 3713TIP3   OH235117   0.247   7.684   9.155
 3713TIP3    H135118   0.212   7.598   9.186
 3713TIP3    H235119   0.342   7.675   9.184
 3714TIP3   OH235120   0.454   7.616   9.313
 3714TIP3    H135121   0.542   7.582   9.291
 3714TIP3    H235122   0.414   7.536   9.352
 3715TIP3   OH235123   1.291   7.544   9.329
 3715TIP3    H135124   1.302   7.498   9.414
 3715TIP3    H235125   1.382   7.545   9.294
 3716TIP3   OH235126   3.640   7.871   8.649
 3716TIP3    H135127   3.659   7.919   8.733
 3716TIP3    H235128   3.699   7.916   8.589
 3717TIP3   OH235129   2.409   7.960   8.339
 3717TIP3    H135130   2.422   8.041   8.289
 3717TIP3    H235131   2.372   7.900   8.269
 3718TIP3   OH235132   3.185   7.965   8.169
 3718TIP3    H135133   3.246   7.937   8.241
 3718TIP3    H235134   3.248   8.021   8.122
 3719TIP3   OH235135   3.681   7.981   8.882
 3719TIP3    H135136   3.652   8.071   8.857
 3719TIP3    H235137   3.704   7.995   8.977
 3720TIP3   OH235138   2.305   7.841   8.753
 3720TIP3    H135139   2.274   7.891   8.674
 3720TIP3    H235140   2.231   7.865   8.815
 3721TIP3   OH235141   3.357   7.889   8.370
 3721TIP3    H135142   3.341   7.821   8.436
 3721TIP3    H235143   3.416   7.949   8.417
 3722TIP3   OH235144   2.276   8.001   8.562
 3722TIP3    H135145   2.314   8.089   8.581
 3722TIP3    H235146   2.312   7.984   8.472
 3723TIP3   OH235147   3.396   7.774   8.743
 3723TIP3    H135148   3.320   7.833   8.730
 3723TIP3    H235149   3.467   7.815   8.689
 3724TIP3   OH235150   2.693   7.582   8.489
 3724TIP3    H135151   2.676   7.486   8.481
 3724TIP3    H235152   2.606   7.614   8.521
 3725TIP3   OH235153   2.437   7.676   8.567
 3725TIP3    H135154   2.347   7.658   8.530
 3725TIP3    H235155   2.417   7.756   8.616
 3726TIP3   OH235156   2.896   7.638   8.901
 3726TIP3    H135157   2.936   7.596   8.980
 3726TIP3    H235158   2.799   7.629   8.916
 3727TIP3   OH235159   3.226   8.026   8.994
 3727TIP3    H135160   3.166   8.002   9.068
 3727TIP3    H235161   3.196   8.113   8.966
 3728TIP3   OH235162   2.873   7.888   7.643
 3728TIP3    H135163   2.823   7.894   7.726
 3728TIP3    H235164   2.830   7.812   7.601
 3729TIP3   OH235165   2.552   7.918   7.600
 3729TIP3    H135166   2.475   7.883   7.644
 3729TIP3    H235167   2.513   7.961   7.518
 3730TIP3   OH235168   1.869   7.909   8.252
 3730TIP3    H135169   1.931   7.901   8.329
 3730TIP3    H235170   1.917   7.866   8.180
 3731TIP3   OH235171   1.979   7.950   7.791
 3731TIP3    H135172   2.039   8.017   7.751
 3731TIP3    H235173   1.925   8.019   7.833
 3732TIP3   OH235174   2.690   7.925   8.275
 3732TIP3    H135175   2.597   7.934   8.306
 3732TIP3    H235176   2.743   7.920   8.356
 3733TIP3   OH235177   3.137   7.860   8.603
 3733TIP3    H135178   3.066   7.872   8.670
 3733TIP3    H235179   3.085   7.837   8.524
 3734TIP3   OH235180   2.324   7.826   8.118
 3734TIP3    H135181   2.291   7.735   8.111
 3734TIP3    H235182   2.398   7.824   8.055
 3735TIP3   OH235183   2.688   8.024   8.695
 3735TIP3    H135184   2.615   8.086   8.700
 3735TIP3    H235185   2.743   8.065   8.766
 3736TIP3   OH235186   3.135   7.952   7.711
 3736TIP3    H135187   3.042   7.960   7.677
 3736TIP3    H235188   3.160   8.045   7.716
 3737TIP3   OH235189   2.119   7.924   8.947
 3737TIP3    H135190   2.028   7.956   8.934
 3737TIP3    H235191   2.104   7.835   8.984
 3738TIP3   OH235192   2.987   7.894   8.832
 3738TIP3    H135193   3.058   7.908   8.896
 3738TIP3    H235194   2.953   7.806   8.858
 3739TIP3   OH235195   3.062   7.862   7.947
 3739TIP3    H135196   3.092   7.900   7.862
 3739TIP3    H235197   3.122   7.899   8.014
 3740TIP3   OH235198   2.799   8.023   8.023
 3740TIP3    H135199   2.866   8.093   8.029
 3740TIP3    H235200   2.760   8.022   8.112
 3741TIP3   OH235201   2.876   7.738   8.118
 3741TIP3    H135202   2.843   7.804   8.182
 3741TIP3    H235203   2.944   7.791   8.068
 3742TIP3   OH235204   2.435   7.838   7.807
 3742TIP3    H135205   2.432   7.933   7.823
 3742TIP3    H235206   2.533   7.823   7.811
 3743TIP3   OH235207   3.464   7.918   9.027
 3743TIP3    H135208   3.370   7.949   9.020
 3743TIP3    H235209   3.492   7.918   8.934
 3744TIP3   OH235210   2.196   7.628   8.473
 3744TIP3    H135211   2.159   7.642   8.384
 3744TIP3    H235212   2.134   7.559   8.504
 3745TIP3   OH235213   2.453   7.997   9.085
 3745TIP3    H135214   2.511   7.940   9.032
 3745TIP3    H235215   2.486   8.086   9.063
 3746TIP3   OH235216   2.549   7.866   8.855
 3746TIP3    H135217   2.603   7.906   8.784
 3746TIP3    H235218   2.459   7.861   8.813
 3747TIP3   OH235219   2.628   7.611   8.892
 3747TIP3    H135220   2.607   7.706   8.884
 3747TIP3    H235221   2.553   7.573   8.841
 3748TIP3   OH235222   2.783   7.986   9.289
 3748TIP3    H135223   2.749   8.018   9.375
 3748TIP3    H235224   2.700   7.995   9.242
 3749TIP3   OH235225   3.027   7.946   9.153
 3749TIP3    H135226   2.936   7.962   9.181
 3749TIP3    H235227   3.059   7.897   9.231
 3750TIP3   OH235228   3.185   7.816   9.357
 3750TIP3    H135229   3.177   7.718   9.355
 3750TIP3    H235230   3.162   7.842   9.448
 3751TIP3   OH235231   2.171   7.947   9.272
 3751TIP3    H135232   2.187   7.874   9.209
 3751TIP3    H235233   2.156   7.894   9.352
 3752TIP3   OH235234   2.651   7.550   9.161
 3752TIP3    H135235   2.717   7.477   9.160
 3752TIP3    H235236   2.639   7.563   9.065
 3753TIP3   OH235237   2.682   7.699   9.381
 3753TIP3    H135238   2.671   7.655   9.293
 3753TIP3    H235239   2.634   7.784   9.366
 3754TIP3   OH235240   3.472   7.892   7.507
 3754TIP3    H135241   3.516   7.881   7.590
 3754TIP3    H235242   3.377   7.887   7.528
 3755TIP3   OH235243   3.441   8.052   8.046
 3755TIP3    H135244   3.460   7.957   8.028
 3755TIP3    H235245   3.497   8.095   7.979
 3756TIP3   OH235246   1.918   8.027   9.165
 3756TIP3    H135247   2.009   8.017   9.199
 3756TIP3    H235248   1.870   7.953   9.209
 3757TIP3   OH235249   3.719   7.596   9.368
 3757TIP3    H135250   3.756   7.532   9.305
 3757TIP3    H235251   3.726   7.679   9.317
 3758TIP3   OH235252   3.491   7.788   8.010
 3758TIP3    H135253   3.509   7.752   8.100
 3758TIP3    H235254   3.426   7.726   7.974
 3759TIP3   OH235255   2.053   7.885   8.455
 3759TIP3    H135256   2.068   7.796   8.495
 3759TIP3    H235257   2.087   7.941   8.525
 3760TIP3   OH235258   3.669   7.806   9.206
 3760TIP3    H135259   3.577   7.840   9.197
 3760TIP3    H235260   3.675   7.755   9.124
 3761TIP3   OH235261   1.896   7.793   7.979
 3761TIP3    H135262   1.804   7.823   7.972
 3761TIP3    H235263   1.941   7.851   7.914
 3762TIP3   OH235264   1.901   7.696   8.857
 3762TIP3    H135265   1.823   7.648   8.888
 3762TIP3    H235266   1.871   7.721   8.766
 3763TIP3   OH235267   3.574   7.619   8.990
 3763TIP3    H135268   3.491   7.647   8.948
 3763TIP3    H235269   3.591   7.536   8.940
 3764TIP3   OH235270   2.912   7.759   8.417
 3764TIP3    H135271   2.845   7.695   8.447
 3764TIP3    H235272   2.967   7.703   8.361
 3765TIP3   OH235273   3.424   7.569   8.427
 3765TIP3    H135274   3.486   7.625   8.375
 3765TIP3    H235275   3.336   7.606   8.399
 3766TIP3   OH235276   3.591   7.687   8.250
 3766TIP3    H135277   3.662   7.631   8.208
 3766TIP3    H235278   3.641   7.770   8.266
 3767TIP3   OH235279   2.152   7.625   8.200
 3767TIP3    H135280   2.068   7.605   8.155
 3767TIP3    H235281   2.194   7.537   8.198
 3768TIP3   OH235282   2.010   7.607   7.760
 3768TIP3    H135283   2.081   7.670   7.736
 3768TIP3    H235284   1.971   7.654   7.838
 3769TIP3   OH235285   2.598   7.613   8.180
 3769TIP3    H135286   2.686   7.653   8.174
 3769TIP3    H235287   2.589   7.603   8.275
 3770TIP3   OH235288   3.165   7.617   8.345
 3770TIP3    H135289   3.161   7.629   8.249
 3770TIP3    H235290   3.125   7.528   8.357
 3771TIP3   OH235291   3.294   7.619   7.902
 3771TIP3    H135292   3.220   7.683   7.900
 3771TIP3    H235293   3.250   7.537   7.936
 3772TIP3   OH235294   2.708   7.817   7.868
 3772TIP3    H135295   2.739   7.763   7.942
 3772TIP3    H235296   2.718   7.906   7.911
 3773TIP3   OH235297   2.136   7.681   9.152
 3773TIP3    H135298   2.098   7.598   9.187
 3773TIP3    H235299   2.229   7.674   9.185
 3774TIP3   OH235300   2.337   7.617   9.315
 3774TIP3    H135301   2.426   7.584   9.292
 3774TIP3    H235302   2.300   7.535   9.354
 3775TIP3   OH235303   3.176   7.544   9.329
 3775TIP3    H135304   3.187   7.497   9.414
 3775TIP3    H235305   3.267   7.545   9.294
 3776TIP3   OH235306   5.525   7.871   8.649
 3776TIP3    H135307   5.545   7.919   8.733
 3776TIP3    H235308   5.585   7.916   8.589
 3777TIP3   OH235309   4.296   7.959   8.339
 3777TIP3    H135310   4.307   8.041   8.290
 3777TIP3    H235311   4.258   7.900   8.269
 3778TIP3   OH235312   5.070   7.963   8.170
 3778TIP3    H135313   5.133   7.940   8.243
 3778TIP3    H235314   5.132   8.021   8.123
 3779TIP3   OH235315   5.567   7.981   8.883
 3779TIP3    H135316   5.539   8.071   8.856
 3779TIP3    H235317   5.589   7.995   8.977
 3780TIP3   OH235318   4.187   7.837   8.751
 3780TIP3    H135319   4.161   7.893   8.674
 3780TIP3    H235320   4.118   7.867   8.816
 3781TIP3   OH235321   5.239   7.889   8.372
 3781TIP3    H135322   5.232   7.820   8.438
 3781TIP3    H235323   5.302   7.950   8.416
 3782TIP3   OH235324   4.158   7.999   8.560
 3782TIP3    H135325   4.197   8.086   8.582
 3782TIP3    H235326   4.198   7.984   8.471
 3783TIP3   OH235327   5.281   7.773   8.741
 3783TIP3    H135328   5.207   7.835   8.732
 3783TIP3    H235329   5.353   7.815   8.688
 3784TIP3   OH235330   4.581   7.580   8.487
 3784TIP3    H135331   4.558   7.485   8.483
 3784TIP3    H235332   4.493   7.615   8.520
 3785TIP3   OH235333   5.407   7.572   7.782
 3785TIP3    H135334   5.316   7.590   7.813
 3785TIP3    H235335   5.433   7.661   7.750
 3786TIP3   OH235336   4.323   7.674   8.563
 3786TIP3    H135337   4.231   7.658   8.530
 3786TIP3    H235338   4.306   7.755   8.615
 3787TIP3   OH235339   4.781   7.635   8.898
 3787TIP3    H135340   4.822   7.597   8.977
 3787TIP3    H235341   4.684   7.630   8.917
 3788TIP3   OH235342   5.111   8.026   8.994
 3788TIP3    H135343   5.051   8.002   9.068
 3788TIP3    H235344   5.081   8.113   8.966
 3789TIP3   OH235345   4.743   7.903   7.641
 3789TIP3    H135346   4.710   7.894   7.732
 3789TIP3    H235347   4.717   7.816   7.603
 3790TIP3   OH235348   4.466   7.901   7.579
 3790TIP3    H135349   4.399   7.875   7.646
 3790TIP3    H235350   4.408   7.933   7.513
 3791TIP3   OH235351   3.755   7.905   8.255
 3791TIP3    H135352   3.820   7.902   8.328
 3791TIP3    H235353   3.802   7.869   8.178
 3792TIP3   OH235354   3.873   7.981   7.784
 3792TIP3    H135355   3.933   8.042   7.742
 3792TIP3    H235356   3.812   8.039   7.833
 3793TIP3   OH235357   4.576   7.920   8.275
 3793TIP3    H135358   4.483   7.937   8.304
 3793TIP3    H235359   4.627   7.926   8.358
 3794TIP3   OH235360   5.021   7.854   8.604
 3794TIP3    H135361   4.952   7.873   8.672
 3794TIP3    H235362   4.968   7.845   8.524
 3795TIP3   OH235363   4.208   7.827   8.113
 3795TIP3    H135364   4.177   7.734   8.107
 3795TIP3    H235365   4.285   7.822   8.055
 3796TIP3   OH235366   4.574   8.024   8.695
 3796TIP3    H135367   4.500   8.087   8.701
 3796TIP3    H235368   4.628   8.065   8.766
 3797TIP3   OH235369   4.003   7.920   8.942
 3797TIP3    H135370   3.913   7.957   8.936
 3797TIP3    H235371   3.990   7.836   8.987
 3798TIP3   OH235372   4.873   7.892   8.830
 3798TIP3    H135373   4.943   7.907   8.895
 3798TIP3    H235374   4.838   7.806   8.859
 3799TIP3   OH235375   4.947   7.863   7.946
 3799TIP3    H135376   4.975   7.902   7.862
 3799TIP3    H235377   5.010   7.898   8.011
 3800TIP3   OH235378   4.687   8.020   8.024
 3800TIP3    H135379   4.750   8.094   8.029
 3800TIP3    H235380   4.644   8.024   8.110
 3801TIP3   OH235381   4.774   7.736   8.131
 3801TIP3    H135382   4.723   7.807   8.176
 3801TIP3    H235383   4.827   7.791   8.067
 3802TIP3   OH235384   4.327   7.848   7.788
 3802TIP3    H135385   4.319   7.935   7.828
 3802TIP3    H235386   4.419   7.821   7.811
 3803TIP3   OH235387   5.349   7.918   9.027
 3803TIP3    H135388   5.256   7.949   9.020
 3803TIP3    H235389   5.377   7.919   8.934
 3804TIP3   OH235390   4.067   7.636   8.479
 3804TIP3    H135391   4.048   7.640   8.383
 3804TIP3    H235392   4.025   7.551   8.502
 3805TIP3   OH235393   4.339   7.997   9.085
 3805TIP3    H135394   4.398   7.940   9.031
 3805TIP3    H235395   4.372   8.086   9.062
 3806TIP3   OH235396   4.433   7.866   8.855
 3806TIP3    H135397   4.488   7.906   8.784
 3806TIP3    H235398   4.344   7.861   8.813
 3807TIP3   OH235399   4.514   7.611   8.891
 3807TIP3    H135400   4.493   7.706   8.885
 3807TIP3    H235401   4.439   7.574   8.841
 3808TIP3   OH235402   4.669   7.986   9.289
 3808TIP3    H135403   4.634   8.018   9.375
 3808TIP3    H235404   4.585   7.995   9.243
 3809TIP3   OH235405   4.913   7.945   9.152
 3809TIP3    H135406   4.822   7.963   9.181
 3809TIP3    H235407   4.944   7.897   9.231
 3810TIP3   OH235408   5.071   7.816   9.357
 3810TIP3    H135409   5.063   7.718   9.355
 3810TIP3    H235410   5.047   7.842   9.448
 3811TIP3   OH235411   4.055   7.947   9.271
 3811TIP3    H135412   4.073   7.873   9.210
 3811TIP3    H235413   4.043   7.895   9.353
 3812TIP3   OH235414   4.537   7.550   9.161
 3812TIP3    H135415   4.603   7.477   9.161
 3812TIP3    H235416   4.525   7.563   9.065
 3813TIP3   OH235417   4.570   7.702   9.378
 3813TIP3    H135418   4.556   7.656   9.292
 3813TIP3    H235419   4.518   7.785   9.365
 3814TIP3   OH235420   5.324   8.054   8.045
 3814TIP3    H135421   5.346   7.959   8.028
 3814TIP3    H235422   5.383   8.096   7.980
 3815TIP3   OH235423   3.804   8.027   9.164
 3815TIP3    H135424   3.894   8.017   9.200
 3815TIP3    H235425   3.755   7.954   9.210
 3816TIP3   OH235426   5.605   7.596   9.368
 3816TIP3    H135427   5.641   7.532   9.305
 3816TIP3    H235428   5.612   7.679   9.317
 3817TIP3   OH235429   5.377   7.793   8.014
 3817TIP3    H135430   5.396   7.752   8.102
 3817TIP3    H235431   5.315   7.729   7.974
 3818TIP3   OH235432   3.925   7.876   8.468
 3818TIP3    H135433   3.969   7.793   8.497
 3818TIP3    H235434   3.973   7.941   8.520
 3819TIP3   OH235435   5.554   7.807   9.206
 3819TIP3    H135436   5.463   7.840   9.197
 3819TIP3    H235437   5.561   7.755   9.124
 3820TIP3   OH235438   5.555   7.794   7.671
 3820TIP3    H135439   5.600   7.728   7.618
 3820TIP3    H235440   5.622   7.865   7.679
 3821TIP3   OH235441   3.784   7.794   7.974
 3821TIP3    H135442   3.691   7.824   7.973
 3821TIP3    H235443   3.829   7.853   7.912
 3822TIP3   OH235444   3.782   7.666   8.813
 3822TIP3    H135445   3.716   7.651   8.883
 3822TIP3    H235446   3.737   7.734   8.759
 3823TIP3   OH235447   5.459   7.619   8.990
 3823TIP3    H135448   5.377   7.647   8.948
 3823TIP3    H235449   5.477   7.536   8.940
 3824TIP3   OH235450   4.797   7.767   8.430
 3824TIP3    H135451   4.720   7.709   8.447
 3824TIP3    H235452   4.840   7.741   8.347
 3825TIP3   OH235453   5.312   7.569   8.426
 3825TIP3    H135454   5.377   7.623   8.374
 3825TIP3    H235455   5.227   7.609   8.400
 3826TIP3   OH235456   5.478   7.687   8.252
 3826TIP3    H135457   5.548   7.633   8.209
 3826TIP3    H235458   5.527   7.771   8.265
 3827TIP3   OH235459   4.035   7.622   8.208
 3827TIP3    H135460   3.957   7.607   8.151
 3827TIP3    H235461   4.081   7.537   8.196
 3828TIP3   OH235462   3.895   7.606   7.761
 3828TIP3    H135463   3.968   7.661   7.728
 3828TIP3    H235464   3.860   7.658   7.836
 3829TIP3   OH235465   4.486   7.613   8.181
 3829TIP3    H135466   4.572   7.656   8.176
 3829TIP3    H235467   4.470   7.603   8.275
 3830TIP3   OH235468   5.066   7.620   8.334
 3830TIP3    H135469   5.069   7.634   8.238
 3830TIP3    H235470   5.061   7.524   8.349
 3831TIP3   OH235471   5.178   7.624   7.920
 3831TIP3    H135472   5.106   7.681   7.891
 3831TIP3    H235473   5.138   7.535   7.931
 3832TIP3   OH235474   4.596   7.823   7.867
 3832TIP3    H135475   4.618   7.761   7.937
 3832TIP3    H235476   4.604   7.907   7.918
 3833TIP3   OH235477   4.021   7.682   9.152
 3833TIP3    H135478   3.984   7.598   9.187
 3833TIP3    H235479   4.114   7.674   9.185
 3834TIP3   OH235480   4.222   7.617   9.314
 3834TIP3    H135481   4.311   7.584   9.292
 3834TIP3    H235482   4.185   7.536   9.353
 3835TIP3   OH235483   5.062   7.544   9.329
 3835TIP3    H135484   5.073   7.497   9.414
 3835TIP3    H235485   5.154   7.545   9.294
 3836TIP3   OH235486   7.409   7.873   8.649
 3836TIP3    H135487   7.430   7.920   8.733
 3836TIP3    H235488   7.472   7.915   8.589
 3837TIP3   OH235489   6.161   7.967   8.329
 3837TIP3    H135490   6.195   8.044   8.284
 3837TIP3    H235491   6.140   7.901   8.259
 3838TIP3   OH235492   6.958   7.963   8.167
 3838TIP3    H135493   7.017   7.938   8.242
 3838TIP3    H235494   7.021   8.020   8.121
 3839TIP3   OH235495   7.453   7.980   8.883
 3839TIP3    H135496   7.425   8.070   8.857
 3839TIP3    H235497   7.475   7.994   8.978
 3840TIP3   OH235498   6.063   7.833   8.753
 3840TIP3    H135499   6.051   7.892   8.675
 3840TIP3    H235500   5.999   7.871   8.816
 3841TIP3   OH235501   7.128   7.889   8.370
 3841TIP3    H135502   7.113   7.820   8.436
 3841TIP3    H235503   7.188   7.949   8.417
 3842TIP3   OH235504   6.029   8.002   8.558
 3842TIP3    H135505   6.084   8.079   8.585
 3842TIP3    H235506   6.085   7.979   8.479
 3843TIP3   OH235507   7.170   7.775   8.745
 3843TIP3    H135508   7.091   7.830   8.730
 3843TIP3    H235509   7.239   7.815   8.688
 3844TIP3   OH235510   6.465   7.580   8.488
 3844TIP3    H135511   6.444   7.485   8.482
 3844TIP3    H235512   6.379   7.618   8.521
 3845TIP3   OH235513   7.300   7.572   7.788
 3845TIP3    H135514   7.208   7.591   7.813
 3845TIP3    H235515   7.318   7.658   7.745
 3846TIP3   OH235516   6.195   7.652   8.571
 3846TIP3    H135517   6.108   7.659   8.528
 3846TIP3    H235518   6.203   7.746   8.604
 3847TIP3   OH235519   6.668   7.637   8.902
 3847TIP3    H135520   6.707   7.594   8.981
 3847TIP3    H235521   6.570   7.630   8.915
 3848TIP3   OH235522   7.000   8.028   8.996
 3848TIP3    H135523   6.938   7.999   9.068
 3848TIP3    H235524   6.964   8.112   8.969
 3849TIP3   OH235525   6.610   7.900   7.638
 3849TIP3    H135526   6.600   7.891   7.734
 3849TIP3    H235527   6.611   7.811   7.602
 3850TIP3   OH235528   5.640   7.904   8.256
 3850TIP3    H135529   5.705   7.901   8.329
 3850TIP3    H235530   5.688   7.869   8.178
 3851TIP3   OH235531   5.749   7.951   7.779
 3851TIP3    H135532   5.814   8.017   7.747
 3851TIP3    H235533   5.699   8.017   7.830
 3852TIP3   OH235534   6.460   7.924   8.276
 3852TIP3    H135535   6.369   7.933   8.311
 3852TIP3    H235536   6.512   7.921   8.358
 3853TIP3   OH235537   6.909   7.863   8.603
 3853TIP3    H135538   6.836   7.870   8.669
 3853TIP3    H235539   6.857   7.838   8.525
 3854TIP3   OH235540   6.092   7.825   8.110
 3854TIP3    H135541   6.065   7.732   8.108
 3854TIP3    H235542   6.171   7.824   8.056
 3855TIP3   OH235543   6.507   8.086   8.706
 3855TIP3    H135544   6.409   8.077   8.697
 3855TIP3    H235545   6.517   8.073   8.799
 3856TIP3   OH235546   6.893   7.959   7.720
 3856TIP3    H135547   6.815   7.969   7.662
 3856TIP3    H235548   6.933   8.045   7.709
 3857TIP3   OH235549   5.888   7.922   8.947
 3857TIP3    H135550   5.798   7.956   8.936
 3857TIP3    H235551   5.876   7.835   8.987
 3858TIP3   OH235552   6.761   7.896   8.835
 3858TIP3    H135553   6.832   7.904   8.899
 3858TIP3    H235554   6.723   7.809   8.856
 3859TIP3   OH235555   6.831   7.862   7.950
 3859TIP3    H135556   6.862   7.897   7.862
 3859TIP3    H235557   6.896   7.899   8.011
 3860TIP3   OH235558   6.570   8.020   8.025
 3860TIP3    H135559   6.636   8.092   8.027
 3860TIP3    H235560   6.531   8.022   8.114
 3861TIP3   OH235561   6.647   7.737   8.114
 3861TIP3    H135562   6.614   7.802   8.181
 3861TIP3    H235563   6.716   7.792   8.069
 3862TIP3   OH235564   6.216   7.845   7.781
 3862TIP3    H135565   6.204   7.932   7.822
 3862TIP3    H235566   6.306   7.820   7.810
 3863TIP3   OH235567   7.236   7.922   9.027
 3863TIP3    H135568   7.141   7.948   9.020
 3863TIP3    H235569   7.263   7.917   8.934
 3864TIP3   OH235570   5.948   7.638   8.479
 3864TIP3    H135571   5.934   7.641   8.381
 3864TIP3    H235572   5.910   7.551   8.502
 3865TIP3   OH235573   6.227   7.997   9.090
 3865TIP3    H135574   6.280   7.940   9.030
 3865TIP3    H235575   6.256   8.085   9.060
 3866TIP3   OH235576   6.321   7.871   8.864
 3866TIP3    H135577   6.371   7.898   8.785
 3866TIP3    H235578   6.234   7.860   8.817
 3867TIP3   OH235579   6.398   7.611   8.893
 3867TIP3    H135580   6.379   7.707   8.884
 3867TIP3    H235581   6.325   7.575   8.840
 3868TIP3   OH235582   6.555   7.985   9.290
 3868TIP3    H135583   6.520   8.017   9.376
 3868TIP3    H235584   6.472   7.995   9.243
 3869TIP3   OH235585   6.800   7.948   9.150
 3869TIP3    H135586   6.708   7.964   9.180
 3869TIP3    H235587   6.830   7.898   9.229
 3870TIP3   OH235588   6.956   7.816   9.357
 3870TIP3    H135589   6.949   7.718   9.355
 3870TIP3    H235590   6.933   7.842   9.448
 3871TIP3   OH235591   5.941   7.947   9.271
 3871TIP3    H135592   5.961   7.874   9.209
 3871TIP3    H235593   5.928   7.894   9.353
 3872TIP3   OH235594   6.422   7.549   9.162
 3872TIP3    H135595   6.489   7.477   9.161
 3872TIP3    H235596   6.410   7.561   9.066
 3873TIP3   OH235597   6.455   7.702   9.378
 3873TIP3    H135598   6.442   7.656   9.292
 3873TIP3    H235599   6.404   7.785   9.365
 3874TIP3   OH235600   7.208   7.880   7.617
 3874TIP3    H135601   7.298   7.865   7.583
 3874TIP3    H235602   7.158   7.878   7.532
 3875TIP3   OH235603   7.215   8.052   8.049
 3875TIP3    H135604   7.231   7.957   8.026
 3875TIP3    H235605   7.265   8.095   7.976
 3876TIP3   OH235606   5.689   8.027   9.165
 3876TIP3    H135607   5.780   8.017   9.200
 3876TIP3    H235608   5.641   7.954   9.210
 3877TIP3   OH235609   7.490   7.595   9.368
 3877TIP3    H135610   7.527   7.532   9.304
 3877TIP3    H235611   7.498   7.679   9.317
 3878TIP3   OH235612   7.260   7.792   8.012
 3878TIP3    H135613   7.280   7.751   8.099
 3878TIP3    H235614   7.198   7.727   7.972
 3879TIP3   OH235615   5.807   7.876   8.470
 3879TIP3    H135616   5.855   7.794   8.496
 3879TIP3    H235617   5.861   7.940   8.518
 3880TIP3   OH235618   7.440   7.807   9.206
 3880TIP3    H135619   7.348   7.840   9.197
 3880TIP3    H235620   7.447   7.755   9.125
 3881TIP3   OH235621   7.458   7.779   7.681
 3881TIP3    H135622   7.487   7.729   7.606
 3881TIP3    H235623   7.502   7.866   7.674
 3882TIP3   OH235624   5.667   7.801   7.983
 3882TIP3    H135625   5.574   7.820   7.967
 3882TIP3    H235626   5.713   7.849   7.912
 3883TIP3   OH235627   5.667   7.667   8.813
 3883TIP3    H135628   5.601   7.651   8.883
 3883TIP3    H235629   5.622   7.735   8.759
 3884TIP3   OH235630   7.345   7.619   8.990
 3884TIP3    H135631   7.262   7.647   8.948
 3884TIP3    H235632   7.362   7.536   8.940
 3885TIP3   OH235633   6.687   7.758   8.416
 3885TIP3    H135634   6.615   7.699   8.446
 3885TIP3    H235635   6.739   7.701   8.359
 3886TIP3   OH235636   7.194   7.569   8.426
 3886TIP3    H135637   7.258   7.625   8.373
 3886TIP3    H235638   7.107   7.606   8.400
 3887TIP3   OH235639   7.362   7.686   8.252
 3887TIP3    H135640   7.433   7.632   8.209
 3887TIP3    H235641   7.412   7.771   8.263
 3888TIP3   OH235642   5.920   7.623   8.207
 3888TIP3    H135643   5.841   7.606   8.152
 3888TIP3    H235644   5.966   7.538   8.197
 3889TIP3   OH235645   5.789   7.599   7.773
 3889TIP3    H135646   5.847   7.660   7.726
 3889TIP3    H235647   5.737   7.656   7.832
 3890TIP3   OH235648   6.373   7.609   8.179
 3890TIP3    H135649   6.458   7.657   8.177
 3890TIP3    H235650   6.359   7.605   8.274
 3891TIP3   OH235651   6.938   7.617   8.343
 3891TIP3    H135652   6.933   7.628   8.247
 3891TIP3    H235653   6.898   7.528   8.356
 3892TIP3   OH235654   7.064   7.622   7.911
 3892TIP3    H135655   6.992   7.684   7.896
 3892TIP3    H235656   7.020   7.537   7.933
 3893TIP3   OH235657   6.474   7.819   7.871
 3893TIP3    H135658   6.508   7.763   7.942
 3893TIP3    H235659   6.489   7.907   7.913
 3894TIP3   OH235660   5.907   7.681   9.152
 3894TIP3    H135661   5.869   7.598   9.187
 3894TIP3    H235662   5.999   7.674   9.185
 3895TIP3   OH235663   6.107   7.617   9.314
 3895TIP3    H135664   6.196   7.584   9.292
 3895TIP3    H235665   6.070   7.536   9.353
 3896TIP3   OH235666   6.948   7.544   9.329
 3896TIP3    H135667   6.959   7.497   9.414
 3896TIP3    H235668   7.039   7.545   9.294
 3897TIP3   OH235669   7.930   7.836   8.741
 3897TIP3    H135670   7.932   7.904   8.670
 3897TIP3    H235671   7.882   7.879   8.813
 3898TIP3   OH235672   7.941   8.010   8.555
 3898TIP3    H135673   7.969   8.101   8.572
 3898TIP3    H235674   7.971   7.994   8.464
 3899TIP3   OH235675   7.526   7.904   8.258
 3899TIP3    H135676   7.592   7.901   8.330
 3899TIP3    H235677   7.574   7.870   8.179
 3900TIP3   OH235678   7.634   7.951   7.777
 3900TIP3    H135679   7.701   8.017   7.749
 3900TIP3    H235680   7.585   8.014   7.832
 3901TIP3   OH235681   7.926   7.818   8.095
 3901TIP3    H135682   7.925   7.723   8.117
 3901TIP3    H235683   8.021   7.831   8.084
 3902TIP3   OH235684   7.773   7.923   8.947
 3902TIP3    H135685   7.683   7.957   8.932
 3902TIP3    H235686   7.760   7.836   8.987
 3903TIP3   OH235687   7.836   7.636   8.480
 3903TIP3    H135688   7.824   7.641   8.383
 3903TIP3    H235689   7.796   7.550   8.503
 3904TIP3   OH235690   7.822   7.943   9.273
 3904TIP3    H135691   7.845   7.870   9.211
 3904TIP3    H235692   7.811   7.891   9.355
 3905TIP3   OH235693   7.575   8.027   9.163
 3905TIP3    H135694   7.665   8.017   9.201
 3905TIP3    H235695   7.525   7.955   9.209
 3906TIP3   OH235696   7.695   7.876   8.471
 3906TIP3    H135697   7.742   7.792   8.494
 3906TIP3    H235698   7.749   7.941   8.518
 3907TIP3   OH235699   7.556   7.801   7.985
 3907TIP3    H135700   7.462   7.818   7.970
 3907TIP3    H235701   7.596   7.849   7.911
 3908TIP3   OH235702   7.551   7.666   8.813
 3908TIP3    H135703   7.484   7.652   8.882
 3908TIP3    H235704   7.508   7.734   8.758
 3909TIP3   OH235705   7.797   7.617   8.209
 3909TIP3    H135706   7.720   7.601   8.152
 3909TIP3    H235707   7.851   7.536   8.199
 3910TIP3   OH235708   7.683   7.602   7.788
 3910TIP3    H135709   7.723   7.670   7.735
 3910TIP3    H235710   7.619   7.655   7.839
 3911TIP3   OH235711   7.799   7.684   9.151
 3911TIP3    H135712   7.761   7.601   9.185
 3911TIP3    H235713   7.891   7.673   9.183
 3912TIP3   OH235714   7.993   7.616   9.314
 3912TIP3    H135715   8.081   7.584   9.287
 3912TIP3    H235716   7.957   7.535   9.356
 3913TIP3   OH235717   1.173   0.997  10.072
 3913TIP3    H135718   1.170   1.095  10.072
 3913TIP3    H235719   1.099   0.973  10.014
 3914TIP3   OH235720   1.058   0.921  10.424
 3914TIP3    H135721   1.056   0.856  10.496
 3914TIP3    H235722   1.022   0.870  10.349
 3915TIP3   OH235723   0.306   0.884  10.569
 3915TIP3    H135724   0.300   0.823  10.646
 3915TIP3    H235725   0.370   0.948  10.601
 3916TIP3   OH235726   1.425   1.217  10.252
 3916TIP3    H135727   1.384   1.146  10.302
 3916TIP3    H235728   1.428   1.287  10.320
 3917TIP3   OH235729   0.383   1.334  10.424
 3917TIP3    H135730   0.354   1.244  10.399
 3917TIP3    H235731   0.478   1.317  10.435
 3918TIP3   OH235732   0.056   0.695   9.965
 3918TIP3    H135733   0.006   0.779   9.974
 3918TIP3    H235734  -0.010   0.635   9.930
 3919TIP3   OH235735   0.122   0.908  10.191
 3919TIP3    H135736   0.147   0.825  10.238
 3919TIP3    H235737   0.192   0.918  10.125
 3920TIP3   OH235738   1.138   1.732  10.276
 3920TIP3    H135739   1.203   1.664  10.246
 3920TIP3    H235740   1.119   1.697  10.363
 3921TIP3   OH235741   0.894   1.163  10.474
 3921TIP3    H135742   0.927   1.101  10.408
 3921TIP3    H235743   0.976   1.178  10.524
 3922TIP3   OH235744   1.759   0.323  10.548
 3922TIP3    H135745   1.772   0.388  10.619
 3922TIP3    H235746   1.810   0.368  10.479
 3923TIP3   OH235747   1.208   0.606  10.506
 3923TIP3    H135748   1.229   0.511  10.505
 3923TIP3    H235749   1.200   0.622  10.410
 3924TIP3   OH235750   0.577   0.446  10.218
 3924TIP3    H135751   0.535   0.522  10.175
 3924TIP3    H235752   0.512   0.377  10.186
 3925TIP3   OH235753   1.296   0.425  10.062
 3925TIP3    H135754   1.360   0.393  10.129
 3925TIP3    H235755   1.353   0.483  10.009
 3926TIP3   OH235756   0.199   0.662  10.296
 3926TIP3    H135757   0.257   0.598  10.342
 3926TIP3    H235758   0.196   0.624  10.207
 3927TIP3   OH235759   0.699   0.813  10.231
 3927TIP3    H135760   0.768   0.756  10.269
 3927TIP3    H235761   0.649   0.747  10.179
 3928TIP3   OH235762   1.817   0.488  10.771
 3928TIP3    H135763   1.735   0.543  10.759
 3928TIP3    H235764   1.798   0.457  10.861
 3929TIP3   OH235765   0.418   0.309  10.625
 3929TIP3    H135766   0.385   0.367  10.553
 3929TIP3    H235767   0.349   0.328  10.692
 3930TIP3   OH235768   1.144   1.254   9.983
 3930TIP3    H135769   1.116   1.226   9.894
 3930TIP3    H235770   1.112   1.347   9.990
 3931TIP3   OH235771   0.667   1.072  10.655
 3931TIP3    H135772   0.595   1.137  10.674
 3931TIP3    H235773   0.736   1.132  10.622
 3932TIP3   OH235774   1.476   0.365  10.263
 3932TIP3    H135775   1.454   0.285  10.314
 3932TIP3    H235776   1.547   0.402  10.317
 3933TIP3   OH235777   0.372   0.503  10.432
 3933TIP3    H135778   0.441   0.565  10.461
 3933TIP3    H235779   0.416   0.451  10.359
 3934TIP3   OH235780   0.510   1.273  10.733
 3934TIP3    H135781   0.503   1.366  10.705
 3934TIP3    H235782   0.423   1.264  10.779
 3935TIP3   OH235783   0.116   1.234   9.810
 3935TIP3    H135784   0.088   1.268   9.725
 3935TIP3    H235785   0.125   1.314   9.864
 3936TIP3   OH235786   1.478   1.401  10.490
 3936TIP3    H135787   1.381   1.412  10.501
 3936TIP3    H235788   1.505   1.492  10.469
 3937TIP3   OH235789   1.513   0.238  10.644
 3937TIP3    H135790   1.435   0.290  10.618
 3937TIP3    H235791   1.579   0.263  10.576
 3938TIP3   OH235792   0.800   0.051  10.340
 3938TIP3    H135793   0.807  -0.039  10.374
 3938TIP3    H235794   0.727   0.079  10.398
 3939TIP3   OH235795   1.304   1.579  10.148
 3939TIP3    H135796   1.348   1.506  10.099
 3939TIP3    H235797   1.352   1.657  10.112
 3940TIP3   OH235798   1.424   1.373   9.999
 3940TIP3    H135799   1.397   1.301   9.940
 3940TIP3    H235800   1.429   1.324  10.083
 3941TIP3   OH235801   1.590   1.228  10.847
 3941TIP3    H135802   1.603   1.170  10.770
 3941TIP3    H235803   1.612   1.316  10.810
 3942TIP3   OH235804   1.037   0.918   9.824
 3942TIP3    H135805   0.968   0.977   9.790
 3942TIP3    H235806   1.109   0.930   9.759
 3943TIP3   OH235807   1.046   0.778   9.526
 3943TIP3    H135808   1.116   0.776   9.593
 3943TIP3    H235809   1.076   0.705   9.470
 3944TIP3   OH235810   1.777   0.861  10.652
 3944TIP3    H135811   1.712   0.934  10.658
 3944TIP3    H235812   1.826   0.887  10.571
 3945TIP3   OH235813   1.383   0.939   9.917
 3945TIP3    H135814   1.309   0.965   9.977
 3945TIP3    H235815   1.431   0.873   9.971
 3946TIP3   OH235816   1.373   0.755  10.828
 3946TIP3    H135817   1.375   0.834  10.883
 3946TIP3    H235818   1.310   0.787  10.759
 3947TIP3   OH235819   0.546   1.010  10.109
 3947TIP3    H135820   0.511   0.969  10.027
 3947TIP3    H235821   0.605   0.938  10.143
 3948TIP3   OH235822   0.675   1.344  10.377
 3948TIP3    H135823   0.675   1.293  10.295
 3948TIP3    H235824   0.754   1.309  10.422
 3949TIP3   OH235825   0.578   0.881  10.474
 3949TIP3    H135826   0.632   0.893  10.394
 3949TIP3    H235827   0.614   0.946  10.537
 3950TIP3   OH235828   1.219   1.439  10.548
 3950TIP3    H135829   1.189   1.505  10.610
 3950TIP3    H235830   1.191   1.354  10.590
 3951TIP3   OH235831   0.684   1.347  10.935
 3951TIP3    H135832   0.636   1.401  10.999
 3951TIP3    H235833   0.609   1.313  10.880
 3952TIP3   OH235834   1.271   0.862   9.683
 3952TIP3    H135835   1.326   0.879   9.764
 3952TIP3    H235836   1.317   0.911   9.612
 3953TIP3   OH235837   0.364   0.937  10.870
 3953TIP3    H135838   0.370   1.008  10.934
 3953TIP3    H235839   0.273   0.948  10.837
 3954TIP3   OH235840   1.047   1.539  10.025
 3954TIP3    H135841   1.082   1.560  10.113
 3954TIP3    H235842   0.981   1.608  10.012
 3955TIP3   OH235843   1.646   0.042   9.685
 3955TIP3    H135844   1.548   0.047   9.695
 3955TIP3    H235845   1.666   0.118   9.626
 3956TIP3   OH235846   0.444   0.910   9.870
 3956TIP3    H135847   0.411   0.988   9.821
 3956TIP3    H235848   0.378   0.843   9.850
 3957TIP3   OH235849   1.755   1.469   9.511
 3957TIP3    H135850   1.771   1.563   9.527
 3957TIP3    H235851   1.847   1.437   9.510
 3958TIP3   OH235852   0.100   1.103  10.732
 3958TIP3    H135853   0.024   1.142  10.686
 3958TIP3    H235854   0.055   1.037  10.786
 3959TIP3   OH235855   0.051   1.450  10.421
 3959TIP3    H135856   0.138   1.415  10.443
 3959TIP3    H235857   0.031   1.506  10.498
 3960TIP3   OH235858   0.933   1.424  10.870
 3960TIP3    H135859   0.943   1.515  10.904
 3960TIP3    H235860   0.847   1.397  10.910
 3961TIP3   OH235861   1.005   1.825   9.861
 3961TIP3    H135862   0.957   1.830   9.777
 3961TIP3    H235863   0.989   1.917   9.895
 3962TIP3   OH235864   0.359   1.709  10.053
 3962TIP3    H135865   0.368   1.672  10.143
 3962TIP3    H235866   0.272   1.671  10.030
 3963TIP3   OH235867   1.287   1.738   9.574
 3963TIP3    H135868   1.344   1.673   9.524
 3963TIP3    H235869   1.322   1.723   9.663
 3964TIP3   OH235870   1.267   1.737   9.853
 3964TIP3    H135871   1.178   1.757   9.889
 3964TIP3    H235872   1.297   1.667   9.914
 3965TIP3   OH235873   0.277   1.287  10.854
 3965TIP3    H135874   0.297   1.246  10.938
 3965TIP3    H235875   0.194   1.244  10.825
 3966TIP3   OH235876   0.548   0.134  10.446
 3966TIP3    H135877   0.462   0.135  10.400
 3966TIP3    H235878   0.532   0.215  10.499
 3967TIP3   OH235879   1.011   0.111  10.796
 3967TIP3    H135880   1.046   0.055  10.865
 3967TIP3    H235881   0.915   0.089  10.804
 3968TIP3   OH235882   1.318   0.475  10.871
 3968TIP3    H135883   1.292   0.467  10.964
 3968TIP3    H235884   1.327   0.571  10.854
 3969TIP3   OH235885   1.415   0.965   9.468
 3969TIP3    H135886   1.412   0.947   9.372
 3969TIP3    H235887   1.501   1.010   9.472
 3970TIP3   OH235888   0.975   0.358   9.518
 3970TIP3    H135889   0.943   0.349   9.609
 3970TIP3    H235890   0.942   0.272   9.486
 3971TIP3   OH235891   0.557   0.632  10.578
 3971TIP3    H135892   0.481   0.628  10.639
 3971TIP3    H235893   0.547   0.720  10.536
 3972TIP3   OH235894   0.550   0.650  10.057
 3972TIP3    H135895   0.458   0.616  10.049
 3972TIP3    H235896   0.588   0.609   9.977
 3973TIP3   OH235897   1.105   0.692   9.939
 3973TIP3    H135898   1.066   0.774   9.901
 3973TIP3    H235899   1.174   0.673   9.873
 3974TIP3   OH235900   1.209   0.641  10.224
 3974TIP3    H135901   1.179   0.697  10.150
 3974TIP3    H235902   1.217   0.555  10.178
 3975TIP3   OH235903   0.314   0.655  10.746
 3975TIP3    H135904   0.324   0.694  10.835
 3975TIP3    H235905   0.274   0.570  10.766
 3976TIP3   OH235906   0.655   0.396   9.427
 3976TIP3    H135907   0.611   0.353   9.504
 3976TIP3    H235908   0.582   0.438   9.380
 3977TIP3   OH235909   0.015   0.399  10.152
 3977TIP3    H135910   0.065   0.363  10.228
 3977TIP3    H235911   0.034   0.334  10.086
 3978TIP3   OH235912   0.113   0.448   9.685
 3978TIP3    H135913   0.162   0.500   9.618
 3978TIP3    H235914   0.039   0.505   9.704
 3979TIP3   OH235915   1.132   0.796  10.686
 3979TIP3    H135916   1.167   0.730  10.622
 3979TIP3    H235917   1.078   0.742  10.746
 3980TIP3   OH235918   0.821   0.394  10.161
 3980TIP3    H135919   0.724   0.398  10.183
 3980TIP3    H235920   0.858   0.377  10.248
 3981TIP3   OH235921   0.295   0.555  10.042
 3981TIP3    H135922   0.203   0.563  10.012
 3981TIP3    H235923   0.316   0.463  10.015
 3982TIP3   OH235924   0.654   0.558   9.812
 3982TIP3    H135925   0.750   0.567   9.827
 3982TIP3    H235926   0.630   0.625   9.746
 3983TIP3   OH235927   1.251   0.325  10.485
 3983TIP3    H135928   1.180   0.324  10.553
 3983TIP3    H235929   1.203   0.289  10.408
 3984TIP3   OH235930   0.524   0.674   9.570
 3984TIP3    H135931   0.470   0.634   9.500
 3984TIP3    H235932   0.606   0.694   9.523
 3985TIP3   OH235933   0.937   0.673  10.352
 3985TIP3    H135934   0.995   0.618  10.297
 3985TIP3    H235935   0.922   0.616  10.429
 3986TIP3   OH235936   0.436   0.282   9.939
 3986TIP3    H135937   0.409   0.207   9.997
 3986TIP3    H235938   0.531   0.270   9.936
 3987TIP3   OH235939   0.798   0.502  10.593
 3987TIP3    H135940   0.717   0.557  10.597
 3987TIP3    H235941   0.856   0.541  10.662
 3988TIP3   OH235942   0.859   1.123   9.765
 3988TIP3    H135943   0.778   1.079   9.730
 3988TIP3    H235944   0.834   1.139   9.858
 3989TIP3   OH235945   1.580   1.041  10.644
 3989TIP3    H135946   1.634   1.095  10.582
 3989TIP3    H235947   1.493   1.049  10.599
 3990TIP3   OH235948   1.239   0.406   9.582
 3990TIP3    H135949   1.145   0.425   9.565
 3990TIP3    H235950   1.276   0.491   9.615
 3991TIP3   OH235951   1.008   1.154  10.878
 3991TIP3    H135952   0.975   1.111  10.958
 3991TIP3    H235953   0.978   1.246  10.889
 3992TIP3   OH235954   1.315   0.599   9.742
 3992TIP3    H135955   1.402   0.587   9.784
 3992TIP3    H235956   1.326   0.681   9.691
 3993TIP3   OH235957   0.369   1.066  10.343
 3993TIP3    H135958   0.435   1.059  10.272
 3993TIP3    H235959   0.377   0.979  10.387
 3994TIP3   OH235960   1.066   1.275   9.666
 3994TIP3    H135961   1.030   1.355   9.706
 3994TIP3    H235962   0.997   1.209   9.688
 3995TIP3   OH235963   0.081   0.887  10.865
 3995TIP3    H135964   0.083   0.859  10.957
 3995TIP3    H235965   0.001   0.846  10.828
 3996TIP3   OH235966   1.234   1.396  10.883
 3996TIP3    H135967   1.143   1.413  10.856
 3996TIP3    H235968   1.239   1.422  10.976
 3997TIP3   OH235969   1.804   0.616   9.721
 3997TIP3    H135970   1.749   0.585   9.646
 3997TIP3    H235971   1.811   0.710   9.696
 3998TIP3   OH235972   1.624   1.497   9.757
 3998TIP3    H135973   1.600   1.412   9.796
 3998TIP3    H235974   1.668   1.474   9.674
 3999TIP3   OH235975   1.356   0.977  10.472
 3999TIP3    H135976   1.262   0.957  10.459
 3999TIP3    H235977   1.398   0.903  10.425
 4000TIP3   OH235978   0.608   1.411  10.082
 4000TIP3    H135979   0.657   1.492  10.061
 4000TIP3    H235980   0.520   1.434  10.049
 4001TIP3   OH235981   0.181   0.895   9.542
 4001TIP3    H135982   0.243   0.960   9.579
 4001TIP3    H235983   0.096   0.929   9.570
 4002TIP3   OH235984   0.748   1.179  10.032
 4002TIP3    H135985   0.715   1.270  10.043
 4002TIP3    H235986   0.678   1.128  10.077
 4003TIP3   OH235987   0.791   1.602  10.677
 4003TIP3    H135988   0.844   1.677  10.646
 4003TIP3    H235989   0.853   1.556  10.736
 4004TIP3   OH235990   0.618   1.677   9.981
 4004TIP3    H135991   0.522   1.688   9.999
 4004TIP3    H235992   0.651   1.760  10.020
 4005TIP3   OH235993   1.146   1.196  10.632
 4005TIP3    H135994   1.114   1.178  10.722
 4005TIP3    H235995   1.210   1.124  10.619
 4006TIP3   OH235996   1.380   1.307   9.546
 4006TIP3    H135997   1.411   1.256   9.624
 4006TIP3    H235998   1.286   1.282   9.551
 4007TIP3   OH235999   1.404   1.680  10.864
 4007TIP3    H136000   1.357   1.612  10.814
 4007TIP3    H236001   1.445   1.735  10.793
 4008TIP3   OH236002   1.826   1.739   9.571
 4008TIP3    H136003   1.895   1.806   9.549
 4008TIP3    H236004   1.754   1.800   9.599
 4009TIP3   OH236005   0.233   0.384  10.822
 4009TIP3    H136006   0.141   0.415  10.820
 4009TIP3    H236007   0.225   0.300  10.869
 4010TIP3   OH236008   1.457   1.167   9.769
 4010TIP3    H136009   1.433   1.088   9.822
 4010TIP3    H236010   1.553   1.171   9.786
 4011TIP3   OH236011   0.196   1.556  10.662
 4011TIP3    H136012   0.227   1.464  10.667
 4011TIP3    H236013   0.219   1.587  10.751
 4012TIP3   OH236014   0.801   1.410   9.401
 4012TIP3    H136015   0.802   1.338   9.336
 4012TIP3    H236016   0.746   1.367   9.471
 4013TIP3   OH236017   0.674   1.364   9.640
 4013TIP3    H136018   0.693   1.310   9.718
 4013TIP3    H236019   0.677   1.456   9.675
 4014TIP3   OH236020   0.325   1.087   9.689
 4014TIP3    H136021   0.252   1.126   9.743
 4014TIP3    H236022   0.372   1.167   9.658
 4015TIP3   OH236023   1.102   0.355  10.715
 4015TIP3    H136024   1.175   0.359  10.778
 4015TIP3    H236025   1.066   0.266  10.731
 4016TIP3   OH236026   1.189   0.309   9.833
 4016TIP3    H136027   1.203   0.358   9.749
 4016TIP3    H236028   1.238   0.365   9.894
 4017TIP3   OH236029   0.954   1.543   9.716
 4017TIP3    H136030   0.862   1.577   9.716
 4017TIP3    H236031   0.983   1.565   9.626
 4018TIP3   OH236032   0.905   0.488   9.911
 4018TIP3    H136033   0.982   0.548   9.917
 4018TIP3    H236034   0.876   0.476  10.004
 4019TIP3   OH236035   0.973   0.601  10.823
 4019TIP3    H136036   0.965   0.646  10.907
 4019TIP3    H236037   1.018   0.517  10.840
 4020TIP3   OH236038   0.992   0.196  10.005
 4020TIP3    H136039   0.956   0.264  10.064
 4020TIP3    H236040   1.057   0.251   9.956
 4021TIP3   OH236041   0.699   1.633   9.713
 4021TIP3    H136042   0.698   1.714   9.655
 4021TIP3    H236043   0.661   1.668   9.797
 4022TIP3   OH236044   0.556   0.305   9.663
 4022TIP3    H136045   0.546   0.390   9.711
 4022TIP3    H236046   0.645   0.281   9.695
 4023TIP3   OH236047   1.582   0.414  10.860
 4023TIP3    H136048   1.485   0.411  10.872
 4023TIP3    H236049   1.597   0.362  10.779
 4024TIP3   OH236050   1.439   0.757  10.314
 4024TIP3    H136051   1.357   0.712  10.288
 4024TIP3    H236052   1.488   0.689  10.366
 4025TIP3   OH236053   0.379   1.349   9.573
 4025TIP3    H136054   0.446   1.411   9.606
 4025TIP3    H236055   0.432   1.301   9.506
 4026TIP3   OH236056   0.213   0.617   9.488
 4026TIP3    H136057   0.213   0.713   9.510
 4026TIP3    H236058   0.124   0.600   9.458
 4027TIP3   OH236059   1.545   1.683  10.481
 4027TIP3    H136060   1.536   1.752  10.412
 4027TIP3    H236061   1.642   1.689  10.498
 4028TIP3   OH236062   0.226   0.089  10.376
 4028TIP3    H136063   0.260   0.111  10.285
 4028TIP3    H236064   0.258  -0.000  10.391
 4029TIP3   OH236065   0.192   1.484   9.976
 4029TIP3    H136066   0.108   1.532   9.973
 4029TIP3    H236067   0.240   1.534   9.909
 4030TIP3   OH236068   0.999   1.593   9.419
 4030TIP3    H136069   0.922   1.530   9.423
 4030TIP3    H236070   1.064   1.535   9.376
 4031TIP3   OH236071   1.449   1.571   9.428
 4031TIP3    H136072   1.479   1.491   9.475
 4031TIP3    H236073   1.523   1.591   9.369
 4032TIP3   OH236074   0.536   1.165   9.406
 4032TIP3    H136075   0.549   1.089   9.464
 4032TIP3    H236076   0.612   1.153   9.345
 4033TIP3   OH236077   1.081   1.277   9.386
 4033TIP3    H136078   1.052   1.281   9.479
 4033TIP3    H236079   1.062   1.182   9.369
 4034TIP3   OH236080   1.341   1.114  10.869
 4034TIP3    H136081   1.420   1.171  10.874
 4034TIP3    H236082   1.273   1.181  10.888
 4035TIP3   OH236083   0.656   0.967   9.651
 4035TIP3    H136084   0.605   0.912   9.713
 4035TIP3    H236085   0.688   0.900   9.586
 4036TIP3   OH236086   0.584   0.762  10.868
 4036TIP3    H136087   0.519   0.827  10.897
 4036TIP3    H236088   0.622   0.797  10.786
 4037TIP3   OH236089   0.764   0.789   9.470
 4037TIP3    H136090   0.749   0.780   9.374
 4037TIP3    H236091   0.862   0.793   9.477
 4038TIP3   OH236092   1.695   1.021   9.412
 4038TIP3    H136093   1.678   0.984   9.324
 4038TIP3    H236094   1.706   1.117   9.393
 4039TIP3   OH236095   0.593   0.529  10.957
 4039TIP3    H136096   0.643   0.457  10.917
 4039TIP3    H236097   0.622   0.605  10.903
 4040TIP3   OH236098   0.662   0.318  10.737
 4040TIP3    H136099   0.714   0.370  10.671
 4040TIP3    H236100   0.572   0.313  10.696
 4041TIP3   OH236101   0.819   0.866  10.761
 4041TIP3    H136102   0.896   0.855  10.705
 4041TIP3    H236103   0.782   0.952  10.733
 4042TIP3   OH236104   0.749   0.080  10.788
 4042TIP3    H136105   0.728   0.176  10.780
 4042TIP3    H236106   0.672   0.039  10.745
 4043TIP3   OH236107   0.745   1.861   9.581
 4043TIP3    H136108   0.842   1.868   9.580
 4043TIP3    H236109   0.730   1.918   9.504
 4044TIP3   OH236110   0.106   1.314   9.526
 4044TIP3    H136111   0.203   1.326   9.543
 4044TIP3    H236112   0.111   1.249   9.454
 4045TIP3   OH236113  -0.005   1.865  10.010
 4045TIP3    H136114  -0.085   1.817   9.981
 4045TIP3    H236115   0.015   1.804  10.084
 4046TIP3   OH236116   0.085   1.671  10.202
 4046TIP3    H136117   0.037   1.587  10.218
 4046TIP3    H236118   0.095   1.707  10.292
 4047TIP3   OH236119   1.818   1.746  10.504
 4047TIP3    H136120   1.822   1.762  10.600
 4047TIP3    H236121   1.886   1.805  10.472
 4048TIP3   OH236122   1.776   1.708  10.794
 4048TIP3    H136123   1.728   1.632  10.757
 4048TIP3    H236124   1.825   1.666  10.865
 4049TIP3   OH236125   1.750   1.113   9.806
 4049TIP3    H136126   1.837   1.151   9.825
 4049TIP3    H236127   1.748   1.041   9.873
 4050TIP3   OH236128   1.786   0.921   9.996
 4050TIP3    H136129   1.711   0.871  10.035
 4050TIP3    H236130   1.846   0.932  10.072
 4051TIP3   OH236131   1.761   1.189  10.493
 4051TIP3    H136132   1.842   1.150  10.456
 4051TIP3    H236133   1.776   1.284  10.475
 4052TIP3   OH236134   1.615   1.481  10.722
 4052TIP3    H136135   1.547   1.512  10.783
 4052TIP3    H236136   1.562   1.439  10.650
 4053TIP3   OH236137   1.816   0.902   9.634
 4053TIP3    H136138   1.759   0.935   9.562
 4053TIP3    H236139   1.805   0.974   9.700
 4054TIP3   OH236140   1.654   0.626   9.484
 4054TIP3    H136141   1.662   0.691   9.414
 4054TIP3    H236142   1.635   0.543   9.437
 4055TIP3   OH236143   1.568   0.767  10.054
 4055TIP3    H136144   1.554   0.672  10.048
 4055TIP3    H236145   1.537   0.787  10.143
 4056TIP3   OH236146   0.069   0.973  10.458
 4056TIP3    H136147   0.088   0.967  10.362
 4056TIP3    H236148   0.157   0.959  10.497
 4057TIP3   OH236149   1.577   0.376   9.404
 4057TIP3    H136150   1.639   0.329   9.463
 4057TIP3    H236151   1.493   0.328   9.414
 4058TIP3   OH236152   1.532   0.529   9.893
 4058TIP3    H136153   1.563   0.437   9.909
 4058TIP3    H236154   1.615   0.568   9.863
 4059TIP3   OH236155   1.599   0.581  10.440
 4059TIP3    H136156   1.696   0.602  10.441
 4059TIP3    H236157   1.581   0.590  10.535
 4060TIP3   OH236158   1.605   0.656  10.718
 4060TIP3    H136159   1.517   0.682  10.752
 4060TIP3    H236160   1.649   0.742  10.698
 4061TIP3   OH236161   1.597   0.258   9.901
 4061TIP3    H136162   1.622   0.214   9.986
 4061TIP3    H236163   1.541   0.190   9.858
 4062TIP3   OH236164   0.128   0.344  10.400
 4062TIP3    H136165   0.182   0.263  10.380
 4062TIP3    H236166   0.202   0.406  10.397
 4063TIP3   OH236167   0.001   0.647  10.475
 4063TIP3    H136168   0.045   0.618  10.393
 4063TIP3    H236169   0.033   0.736  10.486
 4064TIP3   OH236170   1.787   0.256   9.565
 4064TIP3    H136171   1.822   0.186   9.505
 4064TIP3    H236172   1.855   0.324   9.562
 4065TIP3   OH236173   0.029   0.238   9.822
 4065TIP3    H136174  -0.062   0.268   9.839
 4065TIP3    H236175   0.073   0.317   9.785
 4066TIP3   OH236176   1.488   1.755  10.063
 4066TIP3    H136177   1.560   1.726  10.003
 4066TIP3    H236178   1.538   1.806  10.129
 4067TIP3   OH236179   0.017   0.115  10.699
 4067TIP3    H136180  -0.053   0.101  10.763
 4067TIP3    H236181  -0.023   0.191  10.650
 4068TIP3   OH236182   0.519   1.545  10.741
 4068TIP3    H136183   0.484   1.630  10.712
 4068TIP3    H236184   0.613   1.553  10.716
 4069TIP3   OH236185   1.181   1.828  -0.028
 4069TIP3    H136186   1.252   1.764  -0.050
 4069TIP3    H236187   1.222   1.857   0.056
 4070TIP3   OH236188   1.678   0.105  10.865
 4070TIP3    H136189   1.586   0.119  10.841
 4070TIP3    H236190   1.677   0.007  10.859
 4071TIP3   OH236191   0.268   1.875  10.745
 4071TIP3    H136192   0.190   1.916  10.704
 4071TIP3    H236193   0.233   1.850  10.832
 4072TIP3   OH236194   0.521   1.839  10.648
 4072TIP3    H136195   0.431   1.841  10.691
 4072TIP3    H236196   0.500   1.883  10.565
 4073TIP3   OH236197   0.978   1.817  10.572
 4073TIP3    H136198   0.943   1.872  10.500
 4073TIP3    H236199   1.001   1.882  10.643
 4074TIP3   OH236200   1.214   1.694  10.660
 4074TIP3    H136201   1.127   1.727  10.632
 4074TIP3    H236202   1.260   1.780  10.661
 4075TIP3   OH236203   1.479   1.859  10.690
 4075TIP3    H136204   1.466   1.954  10.667
 4075TIP3    H236205   1.494   1.820  10.602
 4076TIP3   OH236206   0.217   1.739  10.435
 4076TIP3    H136207   0.203   1.694  10.521
 4076TIP3    H236208   0.296   1.696  10.397
 4077TIP3   OH236209   0.420   1.604  10.302
 4077TIP3    H136210   0.404   1.511  10.326
 4077TIP3    H236211   0.505   1.620  10.347
 4078TIP3   OH236212   0.681   1.656  10.390
 4078TIP3    H136213   0.695   1.563  10.363
 4078TIP3    H236214   0.687   1.648  10.486
 4079TIP3   OH236215   1.022   0.226  10.300
 4079TIP3    H136216   0.961   0.157  10.331
 4079TIP3    H236217   1.083   0.172  10.249
 4080TIP3   OH236218   1.541   0.066  10.332
 4080TIP3    H136219   1.602   0.088  10.258
 4080TIP3    H236220   1.454   0.057  10.287
 4081TIP3   OH236221   1.709   0.156  10.136
 4081TIP3    H136222   1.772   0.093  10.097
 4081TIP3    H236223   1.760   0.239  10.148
 4082TIP3   OH236224   0.261   0.066  10.072
 4082TIP3    H136225   0.178   0.050  10.026
 4082TIP3    H236226   0.306  -0.018  10.079
 4083TIP3   OH236227   0.169   0.098   9.663
 4083TIP3    H136228   0.192   0.158   9.591
 4083TIP3    H236229   0.094   0.141   9.710
 4084TIP3   OH236230   0.708   0.084  10.064
 4084TIP3    H136231   0.799   0.115  10.059
 4084TIP3    H236232   0.709   0.056  10.156
 4085TIP3   OH236233   1.277   0.083  10.230
 4085TIP3    H136234   1.278   0.083  10.134
 4085TIP3    H236235   1.247  -0.008  10.246
 4086TIP3   OH236236   1.391   0.092   9.764
 4086TIP3    H136237   1.319   0.153   9.783
 4086TIP3    H236238   1.368   0.013   9.815
 4087TIP3   OH236239   0.130   1.659   9.765
 4087TIP3    H136240   0.071   1.655   9.689
 4087TIP3    H236241   0.130   1.754   9.780
 4088TIP3   OH236242   0.325   0.258   9.507
 4088TIP3    H136243   0.376   0.192   9.457
 4088TIP3    H236244   0.391   0.279   9.576
 4089TIP3   OH236245   0.822   0.280   9.752
 4089TIP3    H136246   0.851   0.220   9.823
 4089TIP3    H236247   0.833   0.365   9.798
 4090TIP3   OH236248   1.006   1.811   9.563
 4090TIP3    H136249   1.099   1.828   9.547
 4090TIP3    H236250   0.988   1.739   9.497
 4091TIP3   OH236251   1.683   1.734   9.870
 4091TIP3    H136252   1.670   1.655   9.813
 4091TIP3    H236253   1.683   1.807   9.804
 4092TIP3   OH236254   0.307   1.745   9.456
 4092TIP3    H136255   0.286   1.777   9.545
 4092TIP3    H236256   0.390   1.696   9.471
 4093TIP3   OH236257   3.059   0.997  10.072
 4093TIP3    H136258   3.055   1.095  10.072
 4093TIP3    H236259   2.984   0.973  10.014
 4094TIP3   OH236260   2.942   0.921  10.424
 4094TIP3    H136261   2.942   0.856  10.496
 4094TIP3    H236262   2.907   0.870  10.349
 4095TIP3   OH236263   2.179   0.889  10.578
 4095TIP3    H136264   2.187   0.820  10.647
 4095TIP3    H236265   2.253   0.947  10.601
 4096TIP3   OH236266   3.311   1.217  10.252
 4096TIP3    H136267   3.270   1.146  10.302
 4096TIP3    H236268   3.314   1.287  10.320
 4097TIP3   OH236269   2.270   1.335  10.427
 4097TIP3    H136270   2.240   1.246  10.397
 4097TIP3    H236271   2.366   1.317  10.436
 4098TIP3   OH236272   1.934   0.689   9.979
 4098TIP3    H136273   1.891   0.776   9.972
 4098TIP3    H236274   1.878   0.635   9.921
 4099TIP3   OH236275   2.006   0.914  10.194
 4099TIP3    H136276   2.034   0.831  10.238
 4099TIP3    H236277   2.074   0.924  10.126
 4100TIP3   OH236278   3.023   1.732  10.278
 4100TIP3    H136279   3.088   1.665  10.247
 4100TIP3    H236280   3.003   1.697  10.365
 4101TIP3   OH236281   2.779   1.161  10.476
 4101TIP3    H136282   2.813   1.101  10.408
 4101TIP3    H236283   2.862   1.178  10.524
 4102TIP3   OH236284   3.645   0.323  10.548
 4102TIP3    H136285   3.657   0.389  10.619
 4102TIP3    H236286   3.695   0.368  10.478
 4103TIP3   OH236287   3.094   0.606  10.506
 4103TIP3    H136288   3.114   0.511  10.505
 4103TIP3    H236289   3.086   0.622  10.410
 4104TIP3   OH236290   2.409   0.419  10.224
 4104TIP3    H136291   2.420   0.503  10.174
 4104TIP3    H236292   2.369   0.361  10.156
 4105TIP3   OH236293   3.181   0.425  10.061
 4105TIP3    H136294   3.246   0.395  10.129
 4105TIP3    H236295   3.238   0.483  10.009
 4106TIP3   OH236296   2.069   0.660  10.297
 4106TIP3    H136297   2.136   0.606  10.343
 4106TIP3    H236298   2.081   0.628  10.206
 4107TIP3   OH236299   2.586   0.814  10.231
 4107TIP3    H136300   2.654   0.756  10.269
 4107TIP3    H236301   2.535   0.749  10.179
 4108TIP3   OH236302   3.702   0.488  10.772
 4108TIP3    H136303   3.622   0.544  10.759
 4108TIP3    H236304   3.684   0.457  10.861
 4109TIP3   OH236305   2.301   0.309  10.622
 4109TIP3    H136306   2.271   0.370  10.553
 4109TIP3    H236307   2.234   0.328  10.692
 4110TIP3   OH236308   3.027   1.255   9.983
 4110TIP3    H136309   3.002   1.229   9.893
 4110TIP3    H236310   2.997   1.348   9.988
 4111TIP3   OH236311   2.550   1.072  10.656
 4111TIP3    H136312   2.480   1.138  10.674
 4111TIP3    H236313   2.621   1.131  10.623
 4112TIP3   OH236314   3.362   0.365  10.263
 4112TIP3    H136315   3.340   0.286  10.314
 4112TIP3    H236316   3.433   0.404  10.317
 4113TIP3   OH236317   2.254   0.499  10.427
 4113TIP3    H136318   2.319   0.563  10.462
 4113TIP3    H236319   2.307   0.454  10.356
 4114TIP3   OH236320   2.397   1.274  10.734
 4114TIP3    H136321   2.390   1.367  10.705
 4114TIP3    H236322   2.310   1.264  10.779
 4115TIP3   OH236323   2.003   1.232   9.812
 4115TIP3    H136324   1.979   1.268   9.725
 4115TIP3    H236325   2.012   1.314   9.865
 4116TIP3   OH236326   3.364   1.401  10.490
 4116TIP3    H136327   3.267   1.412  10.501
 4116TIP3    H236328   3.391   1.492  10.469
 4117TIP3   OH236329   3.398   0.238  10.644
 4117TIP3    H136330   3.321   0.293  10.618
 4117TIP3    H236331   3.464   0.265  10.577
 4118TIP3   OH236332   2.684   0.049  10.338
 4118TIP3    H136333   2.694  -0.040  10.375
 4118TIP3    H236334   2.613   0.079  10.398
 4119TIP3   OH236335   3.190   1.579  10.147
 4119TIP3    H136336   3.233   1.507  10.097
 4119TIP3    H236337   3.236   1.658  10.109
 4120TIP3   OH236338   3.312   1.372  10.000
 4120TIP3    H136339   3.282   1.302   9.940
 4120TIP3    H236340   3.315   1.322  10.084
 4121TIP3   OH236341   3.476   1.228  10.847
 4121TIP3    H136342   3.489   1.170  10.770
 4121TIP3    H236343   3.498   1.316  10.809
 4122TIP3   OH236344   2.922   0.918   9.824
 4122TIP3    H136345   2.854   0.978   9.789
 4122TIP3    H236346   2.995   0.930   9.760
 4123TIP3   OH236347   2.932   0.778   9.526
 4123TIP3    H136348   3.002   0.776   9.593
 4123TIP3    H236349   2.962   0.705   9.470
 4124TIP3   OH236350   3.663   0.861  10.652
 4124TIP3    H136351   3.598   0.934  10.659
 4124TIP3    H236352   3.711   0.887  10.572
 4125TIP3   OH236353   3.269   0.939   9.917
 4125TIP3    H136354   3.195   0.965   9.977
 4125TIP3    H236355   3.317   0.873   9.971
 4126TIP3   OH236356   3.259   0.755  10.828
 4126TIP3    H136357   3.260   0.834  10.883
 4126TIP3    H236358   3.196   0.786  10.759
 4127TIP3   OH236359   2.429   1.008  10.109
 4127TIP3    H136360   2.397   0.968  10.024
 4127TIP3    H236361   2.490   0.938  10.143
 4128TIP3   OH236362   2.561   1.344  10.377
 4128TIP3    H136363   2.561   1.293  10.295
 4128TIP3    H236364   2.640   1.309  10.422
 4129TIP3   OH236365   2.462   0.883  10.475
 4129TIP3    H136366   2.516   0.892  10.395
 4129TIP3    H236367   2.502   0.947  10.538
 4130TIP3   OH236368   3.105   1.439  10.547
 4130TIP3    H136369   3.074   1.506  10.609
 4130TIP3    H236370   3.077   1.354  10.590
 4131TIP3   OH236371   2.570   1.346  10.935
 4131TIP3    H136372   2.522   1.399  11.001
 4131TIP3    H236373   2.495   1.313  10.880
 4132TIP3   OH236374   3.156   0.862   9.683
 4132TIP3    H136375   3.211   0.879   9.764
 4132TIP3    H236376   3.202   0.911   9.612
 4133TIP3   OH236377   2.250   0.940  10.867
 4133TIP3    H136378   2.255   1.007  10.937
 4133TIP3    H236379   2.158   0.948  10.838
 4134TIP3   OH236380   2.927   1.534  10.032
 4134TIP3    H136381   2.970   1.564  10.112
 4134TIP3    H236382   2.872   1.609  10.007
 4135TIP3   OH236383   3.531   0.042   9.685
 4135TIP3    H136384   3.434   0.048   9.693
 4135TIP3    H236385   3.552   0.118   9.626
 4136TIP3   OH236386   2.324   0.908   9.874
 4136TIP3    H136387   2.297   0.986   9.821
 4136TIP3    H236388   2.260   0.841   9.847
 4137TIP3   OH236389   3.640   1.470   9.510
 4137TIP3    H136390   3.657   1.564   9.527
 4137TIP3    H236391   3.732   1.437   9.511
 4138TIP3   OH236392   1.938   1.152  10.754
 4138TIP3    H136393   1.889   1.145  10.671
 4138TIP3    H236394   1.940   1.059  10.783
 4139TIP3   OH236395   1.912   1.426  10.438
 4139TIP3    H136396   2.007   1.413  10.436
 4139TIP3    H236397   1.904   1.506  10.492
 4140TIP3   OH236398   2.818   1.424  10.870
 4140TIP3    H136399   2.829   1.514  10.904
 4140TIP3    H236400   2.732   1.396  10.910
 4141TIP3   OH236401   2.876   1.824   9.872
 4141TIP3    H136402   2.864   1.817   9.776
 4141TIP3    H236403   2.875   1.920   9.888
 4142TIP3   OH236404   2.239   1.712  10.055
 4142TIP3    H136405   2.253   1.671  10.143
 4142TIP3    H236406   2.154   1.671  10.032
 4143TIP3   OH236407   3.181   1.746   9.571
 4143TIP3    H136408   3.227   1.670   9.528
 4143TIP3    H236409   3.185   1.720   9.665
 4144TIP3   OH236410   3.150   1.740   9.849
 4144TIP3    H136411   3.054   1.747   9.865
 4144TIP3    H236412   3.173   1.665   9.906
 4145TIP3   OH236413   2.163   1.281  10.853
 4145TIP3    H136414   2.184   1.246  10.939
 4145TIP3    H236415   2.074   1.245  10.832
 4146TIP3   OH236416   2.434   0.136  10.443
 4146TIP3    H136417   2.345   0.132  10.404
 4146TIP3    H236418   2.420   0.212  10.502
 4147TIP3   OH236419   2.896   0.110  10.795
 4147TIP3    H136420   2.932   0.055  10.865
 4147TIP3    H236421   2.800   0.089  10.804
 4148TIP3   OH236422   3.203   0.475  10.871
 4148TIP3    H136423   3.178   0.467  10.964
 4148TIP3    H236424   3.213   0.571  10.854
 4149TIP3   OH236425   3.301   0.965   9.468
 4149TIP3    H136426   3.297   0.947   9.372
 4149TIP3    H236427   3.387   1.010   9.472
 4150TIP3   OH236428   2.861   0.358   9.518
 4150TIP3    H136429   2.829   0.349   9.609
 4150TIP3    H236430   2.828   0.272   9.486
 4151TIP3   OH236431   2.440   0.630  10.575
 4151TIP3    H136432   2.367   0.629  10.641
 4151TIP3    H236433   2.434   0.720  10.537
 4152TIP3   OH236434   2.438   0.639  10.063
 4152TIP3    H136435   2.344   0.615  10.049
 4152TIP3    H236436   2.475   0.611   9.976
 4153TIP3   OH236437   2.991   0.692   9.939
 4153TIP3    H136438   2.952   0.774   9.901
 4153TIP3    H236439   3.060   0.673   9.873
 4154TIP3   OH236440   3.094   0.641  10.224
 4154TIP3    H136441   3.065   0.697  10.150
 4154TIP3    H236442   3.102   0.555  10.177
 4155TIP3   OH236443   2.201   0.658  10.747
 4155TIP3    H136444   2.211   0.694  10.836
 4155TIP3    H236445   2.163   0.570  10.765
 4156TIP3   OH236446   2.540   0.396   9.430
 4156TIP3    H136447   2.495   0.352   9.505
 4156TIP3    H236448   2.468   0.438   9.380
 4157TIP3   OH236449   1.872   0.371  10.142
 4157TIP3    H136450   1.939   0.366  10.213
 4157TIP3    H236451   1.915   0.330  10.066
 4158TIP3   OH236452   1.996   0.440   9.680
 4158TIP3    H136453   2.049   0.497   9.620
 4158TIP3    H236454   1.928   0.504   9.709
 4159TIP3   OH236455   3.017   0.796  10.686
 4159TIP3    H136456   3.052   0.730  10.622
 4159TIP3    H236457   2.964   0.742  10.746
 4160TIP3   OH236458   2.695   0.400  10.164
 4160TIP3    H136459   2.601   0.393  10.191
 4160TIP3    H236460   2.742   0.378  10.245
 4161TIP3   OH236461   2.174   0.551  10.050
 4161TIP3    H136462   2.086   0.565  10.009
 4161TIP3    H236463   2.203   0.467  10.009
 4162TIP3   OH236464   2.538   0.557   9.813
 4162TIP3    H136465   2.634   0.566   9.827
 4162TIP3    H236466   2.515   0.624   9.747
 4163TIP3   OH236467   3.136   0.322  10.485
 4163TIP3    H136468   3.066   0.324  10.553
 4163TIP3    H236469   3.088   0.288  10.408
 4164TIP3   OH236470   2.410   0.673   9.571
 4164TIP3    H136471   2.356   0.635   9.499
 4164TIP3    H236472   2.491   0.694   9.523
 4165TIP3   OH236473   2.821   0.672  10.351
 4165TIP3    H136474   2.881   0.619  10.298
 4165TIP3    H236475   2.807   0.616  10.429
 4166TIP3   OH236476   2.321   0.286   9.993
 4166TIP3    H136477   2.291   0.194   9.996
 4166TIP3    H236478   2.401   0.277   9.940
 4167TIP3   OH236479   2.684   0.503  10.593
 4167TIP3    H136480   2.603   0.558  10.599
 4167TIP3    H236481   2.742   0.540  10.663
 4168TIP3   OH236482   2.744   1.126   9.763
 4168TIP3    H136483   2.664   1.080   9.729
 4168TIP3    H236484   2.721   1.140   9.857
 4169TIP3   OH236485   3.466   1.041  10.644
 4169TIP3    H136486   3.520   1.095  10.582
 4169TIP3    H236487   3.379   1.049  10.599
 4170TIP3   OH236488   3.125   0.406   9.582
 4170TIP3    H136489   3.031   0.425   9.565
 4170TIP3    H236490   3.161   0.491   9.615
 4171TIP3   OH236491   2.894   1.154  10.878
 4171TIP3    H136492   2.861   1.111  10.959
 4171TIP3    H236493   2.864   1.246  10.889
 4172TIP3   OH236494   3.200   0.599   9.742
 4172TIP3    H136495   3.288   0.587   9.784
 4172TIP3    H236496   3.211   0.681   9.691
 4173TIP3   OH236497   2.256   1.067  10.343
 4173TIP3    H136498   2.322   1.058  10.272
 4173TIP3    H236499   2.261   0.981  10.389
 4174TIP3   OH236500   2.953   1.273   9.666
 4174TIP3    H136501   2.918   1.358   9.701
 4174TIP3    H236502   2.880   1.211   9.688
 4175TIP3   OH236503   1.952   0.909  10.868
 4175TIP3    H136504   1.972   0.865  10.953
 4175TIP3    H236505   1.893   0.846  10.823
 4176TIP3   OH236506   3.120   1.396  10.883
 4176TIP3    H136507   3.029   1.413  10.856
 4176TIP3    H236508   3.125   1.422  10.976
 4177TIP3   OH236509   3.690   0.616   9.721
 4177TIP3    H136510   3.635   0.585   9.646
 4177TIP3    H236511   3.697   0.710   9.696
 4178TIP3   OH236512   3.515   1.496   9.759
 4178TIP3    H136513   3.483   1.413   9.795
 4178TIP3    H236514   3.552   1.474   9.672
 4179TIP3   OH236515   3.241   0.978  10.472
 4179TIP3    H136516   3.147   0.957  10.459
 4179TIP3    H236517   3.284   0.903  10.425
 4180TIP3   OH236518   2.493   1.412  10.082
 4180TIP3    H136519   2.542   1.493  10.061
 4180TIP3    H236520   2.405   1.434  10.048
 4181TIP3   OH236521   2.070   0.895   9.538
 4181TIP3    H136522   2.127   0.962   9.580
 4181TIP3    H236523   1.980   0.926   9.563
 4182TIP3   OH236524   2.633   1.178  10.031
 4182TIP3    H136525   2.601   1.270  10.042
 4182TIP3    H236526   2.563   1.128  10.077
 4183TIP3   OH236527   2.677   1.599  10.676
 4183TIP3    H136528   2.727   1.677  10.647
 4183TIP3    H236529   2.740   1.558  10.737
 4184TIP3   OH236530   2.502   1.676   9.985
 4184TIP3    H136531   2.406   1.691   9.999
 4184TIP3    H236532   2.539   1.760  10.019
 4185TIP3   OH236533   3.032   1.196  10.632
 4185TIP3    H136534   2.999   1.178  10.722
 4185TIP3    H236535   3.096   1.124  10.619
 4186TIP3   OH236536   3.266   1.305   9.545
 4186TIP3    H136537   3.295   1.257   9.625
 4186TIP3    H236538   3.171   1.286   9.552
 4187TIP3   OH236539   3.290   1.680  10.864
 4187TIP3    H136540   3.243   1.612  10.813
 4187TIP3    H236541   3.330   1.736  10.793
 4188TIP3   OH236542   3.712   1.739   9.571
 4188TIP3    H136543   3.780   1.806   9.549
 4188TIP3    H236544   3.640   1.800   9.599
 4189TIP3   OH236545   2.119   0.385  10.822
 4189TIP3    H136546   2.026   0.415  10.817
 4189TIP3    H236547   2.113   0.299  10.864
 4190TIP3   OH236548   3.343   1.168   9.769
 4190TIP3    H136549   3.319   1.088   9.822
 4190TIP3    H236550   3.438   1.171   9.786
 4191TIP3   OH236551   2.083   1.558  10.665
 4191TIP3    H136552   2.111   1.465  10.667
 4191TIP3    H236553   2.110   1.587  10.754
 4192TIP3   OH236554   2.679   1.411   9.395
 4192TIP3    H136555   2.688   1.335   9.336
 4192TIP3    H236556   2.633   1.368   9.470
 4193TIP3   OH236557   2.554   1.364   9.640
 4193TIP3    H136558   2.583   1.312   9.717
 4193TIP3    H236559   2.565   1.456   9.673
 4194TIP3   OH236560   2.210   1.088   9.689
 4194TIP3    H136561   2.138   1.128   9.741
 4194TIP3    H236562   2.260   1.166   9.658
 4195TIP3   OH236563   2.988   0.355  10.715
 4195TIP3    H136564   3.061   0.359  10.778
 4195TIP3    H236565   2.952   0.266  10.731
 4196TIP3   OH236566   3.076   0.307   9.831
 4196TIP3    H136567   3.088   0.358   9.749
 4196TIP3    H236568   3.123   0.364   9.894
 4197TIP3   OH236569   2.836   1.530   9.709
 4197TIP3    H136570   2.754   1.583   9.717
 4197TIP3    H236571   2.890   1.585   9.651
 4198TIP3   OH236572   2.791   0.488   9.912
 4198TIP3    H136573   2.867   0.548   9.917
 4198TIP3    H236574   2.762   0.477  10.004
 4199TIP3   OH236575   2.859   0.601  10.823
 4199TIP3    H136576   2.851   0.646  10.907
 4199TIP3    H236577   2.903   0.517  10.840
 4200TIP3   OH236578   2.878   0.196  10.004
 4200TIP3    H136579   2.842   0.264  10.063
 4200TIP3    H236580   2.944   0.251   9.956
 4201TIP3   OH236581   2.577   1.633   9.713
 4201TIP3    H136582   2.585   1.714   9.657
 4201TIP3    H236583   2.548   1.670   9.799
 4202TIP3   OH236584   2.438   0.305   9.667
 4202TIP3    H136585   2.434   0.393   9.707
 4202TIP3    H236586   2.529   0.281   9.694
 4203TIP3   OH236587   3.468   0.414  10.860
 4203TIP3    H136588   3.371   0.412  10.872
 4203TIP3    H236589   3.483   0.362  10.779
 4204TIP3   OH236590   3.322   0.757  10.316
 4204TIP3    H136591   3.241   0.711  10.287
 4204TIP3    H236592   3.373   0.689  10.366
 4205TIP3   OH236593   2.263   1.350   9.573
 4205TIP3    H136594   2.330   1.411   9.608
 4205TIP3    H236595   2.316   1.303   9.506
 4206TIP3   OH236596   2.098   0.617   9.489
 4206TIP3    H136597   2.100   0.712   9.511
 4206TIP3    H236598   2.009   0.601   9.457
 4207TIP3   OH236599   3.431   1.683  10.481
 4207TIP3    H136600   3.422   1.752  10.412
 4207TIP3    H236601   3.527   1.689  10.498
 4208TIP3   OH236602   2.167   0.121  10.349
 4208TIP3    H136603   2.150   0.106  10.253
 4208TIP3    H236604   2.146   0.032  10.385
 4209TIP3   OH236605   2.075   1.487   9.979
 4209TIP3    H136606   1.990   1.531   9.972
 4209TIP3    H236607   2.122   1.533   9.907
 4210TIP3   OH236608   2.878   1.596   9.407
 4210TIP3    H136609   2.808   1.530   9.428
 4210TIP3    H236610   2.950   1.536   9.382
 4211TIP3   OH236611   3.334   1.570   9.425
 4211TIP3    H136612   3.363   1.492   9.476
 4211TIP3    H236613   3.410   1.591   9.370
 4212TIP3   OH236614   2.422   1.165   9.406
 4212TIP3    H136615   2.435   1.089   9.465
 4212TIP3    H236616   2.497   1.153   9.345
 4213TIP3   OH236617   2.965   1.276   9.385
 4213TIP3    H136618   2.938   1.283   9.478
 4213TIP3    H236619   2.947   1.180   9.370
 4214TIP3   OH236620   3.226   1.114  10.869
 4214TIP3    H136621   3.306   1.171  10.874
 4214TIP3    H236622   3.158   1.181  10.888
 4215TIP3   OH236623   2.542   0.966   9.651
 4215TIP3    H136624   2.491   0.912   9.713
 4215TIP3    H236625   2.573   0.900   9.585
 4216TIP3   OH236626   2.470   0.762  10.867
 4216TIP3    H136627   2.405   0.828  10.897
 4216TIP3    H236628   2.507   0.798  10.786
 4217TIP3   OH236629   2.650   0.789   9.469
 4217TIP3    H136630   2.635   0.781   9.373
 4217TIP3    H236631   2.748   0.793   9.477
 4218TIP3   OH236632   3.581   1.021   9.411
 4218TIP3    H136633   3.563   0.984   9.323
 4218TIP3    H236634   3.591   1.117   9.392
 4219TIP3   OH236635   2.477   0.529  10.955
 4219TIP3    H136636   2.529   0.457  10.918
 4219TIP3    H236637   2.508   0.605  10.903
 4220TIP3   OH236638   2.548   0.320  10.740
 4220TIP3    H136639   2.600   0.370  10.673
 4220TIP3    H236640   2.459   0.312  10.699
 4221TIP3   OH236641   2.705   0.866  10.761
 4221TIP3    H136642   2.782   0.856  10.705
 4221TIP3    H236643   2.668   0.952  10.733
 4222TIP3   OH236644   2.635   0.080  10.788
 4222TIP3    H136645   2.614   0.176  10.780
 4222TIP3    H236646   2.558   0.040  10.745
 4223TIP3   OH236647   2.633   1.859   9.579
 4223TIP3    H136648   2.729   1.866   9.585
 4223TIP3    H236649   2.619   1.918   9.503
 4224TIP3   OH236650   1.987   1.315   9.526
 4224TIP3    H136651   2.084   1.325   9.543
 4224TIP3    H236652   1.992   1.252   9.450
 4225TIP3   OH236653   1.866   1.853  10.020
 4225TIP3    H136654   1.794   1.805   9.976
 4225TIP3    H236655   1.895   1.789  10.088
 4226TIP3   OH236656   1.948   1.668  10.210
 4226TIP3    H136657   1.913   1.581  10.230
 4226TIP3    H236658   1.972   1.701  10.298
 4227TIP3   OH236659   3.704   1.747  10.504
 4227TIP3    H136660   3.708   1.762  10.600
 4227TIP3    H236661   3.773   1.808  10.473
 4228TIP3   OH236662   3.662   1.708  10.794
 4228TIP3    H136663   3.613   1.632  10.757
 4228TIP3    H236664   3.711   1.666  10.865
 4229TIP3   OH236665   3.636   1.113   9.805
 4229TIP3    H136666   3.723   1.151   9.825
 4229TIP3    H236667   3.634   1.042   9.873
 4230TIP3   OH236668   3.670   0.923   9.996
 4230TIP3    H136669   3.598   0.870  10.036
 4230TIP3    H236670   3.733   0.931  10.071
 4231TIP3   OH236671   3.647   1.189  10.493
 4231TIP3    H136672   3.728   1.150  10.456
 4231TIP3    H236673   3.662   1.284  10.474
 4232TIP3   OH236674   3.500   1.481  10.722
 4232TIP3    H136675   3.433   1.512  10.783
 4232TIP3    H236676   3.448   1.439  10.650
 4233TIP3   OH236677   3.702   0.902   9.634
 4233TIP3    H136678   3.645   0.935   9.562
 4233TIP3    H236679   3.691   0.974   9.700
 4234TIP3   OH236680   3.540   0.625   9.485
 4234TIP3    H136681   3.547   0.691   9.415
 4234TIP3    H236682   3.520   0.543   9.436
 4235TIP3   OH236683   3.454   0.767  10.054
 4235TIP3    H136684   3.440   0.671  10.048
 4235TIP3    H236685   3.422   0.787  10.143
 4236TIP3   OH236686   1.955   0.977  10.459
 4236TIP3    H136687   1.972   0.967  10.362
 4236TIP3    H236688   2.044   0.956  10.495
 4237TIP3   OH236689   3.463   0.375   9.404
 4237TIP3    H136690   3.524   0.329   9.463
 4237TIP3    H236691   3.378   0.328   9.414
 4238TIP3   OH236692   3.418   0.529   9.893
 4238TIP3    H136693   3.448   0.437   9.909
 4238TIP3    H236694   3.501   0.568   9.863
 4239TIP3   OH236695   3.484   0.581  10.440
 4239TIP3    H136696   3.581   0.601  10.441
 4239TIP3    H236697   3.466   0.590  10.535
 4240TIP3   OH236698   3.491   0.656  10.718
 4240TIP3    H136699   3.402   0.682  10.752
 4240TIP3    H236700   3.534   0.742  10.697
 4241TIP3   OH236701   3.483   0.258   9.902
 4241TIP3    H136702   3.508   0.213   9.986
 4241TIP3    H236703   3.427   0.190   9.858
 4242TIP3   OH236704   2.031   0.341  10.361
 4242TIP3    H136705   2.077   0.258  10.382
 4242TIP3    H236706   2.091   0.406  10.398
 4243TIP3   OH236707   1.864   0.634  10.462
 4243TIP3    H136708   1.921   0.609  10.387
 4243TIP3    H236709   1.911   0.714  10.489
 4244TIP3   OH236710   3.673   0.256   9.565
 4244TIP3    H136711   3.708   0.186   9.505
 4244TIP3    H236712   3.741   0.324   9.563
 4245TIP3   OH236713   1.900   0.259   9.873
 4245TIP3    H136714   1.807   0.280   9.855
 4245TIP3    H236715   1.945   0.307   9.800
 4246TIP3   OH236716   3.375   1.756  10.065
 4246TIP3    H136717   3.443   1.726  10.003
 4246TIP3    H236718   3.426   1.806  10.131
 4247TIP3   OH236719   1.905   0.149  10.705
 4247TIP3    H136720   1.838   0.114  10.765
 4247TIP3    H236721   1.852   0.200  10.642
 4248TIP3   OH236722   2.407   1.545  10.740
 4248TIP3    H136723   2.375   1.632  10.712
 4248TIP3    H236724   2.501   1.554  10.715
 4249TIP3   OH236725   3.067   1.827  -0.028
 4249TIP3    H136726   3.138   1.764  -0.050
 4249TIP3    H236727   3.107   1.857   0.055
 4250TIP3   OH236728   3.562   0.100  10.869
 4250TIP3    H136729   3.472   0.118  10.841
 4250TIP3    H236730   3.563   0.004  10.859
 4251TIP3   OH236731   2.150   1.873  10.745
 4251TIP3    H136732   2.076   1.920  10.706
 4251TIP3    H236733   2.118   1.848  10.833
 4252TIP3   OH236734   2.398   1.828  10.643
 4252TIP3    H136735   2.313   1.845  10.690
 4252TIP3    H236736   2.392   1.890  10.569
 4253TIP3   OH236737   2.869   1.818  10.570
 4253TIP3    H136738   2.824   1.874  10.503
 4253TIP3    H236739   2.882   1.883  10.642
 4254TIP3   OH236740   3.098   1.695  10.660
 4254TIP3    H136741   3.012   1.729  10.632
 4254TIP3    H236742   3.145   1.780  10.661
 4255TIP3   OH236743   3.365   1.860  10.690
 4255TIP3    H136744   3.352   1.954  10.667
 4255TIP3    H236745   3.380   1.820  10.602
 4256TIP3   OH236746   2.099   1.736  10.437
 4256TIP3    H136747   2.092   1.691  10.523
 4256TIP3    H236748   2.181   1.696  10.399
 4257TIP3   OH236749   2.306   1.606  10.302
 4257TIP3    H136750   2.290   1.513  10.326
 4257TIP3    H236751   2.392   1.622  10.348
 4258TIP3   OH236752   2.568   1.656  10.388
 4258TIP3    H136753   2.581   1.562  10.364
 4258TIP3    H236754   2.571   1.651  10.485
 4259TIP3   OH236755   2.908   0.227  10.299
 4259TIP3    H136756   2.846   0.159  10.331
 4259TIP3    H236757   2.970   0.171  10.250
 4260TIP3   OH236758   3.428   0.056  10.327
 4260TIP3    H136759   3.488   0.090  10.256
 4260TIP3    H236760   3.339   0.058  10.286
 4261TIP3   OH236761   3.595   0.155  10.136
 4261TIP3    H136762   3.659   0.094  10.097
 4261TIP3    H236763   3.646   0.239  10.148
 4262TIP3   OH236764   2.144   0.080  10.088
 4262TIP3    H136765   2.067   0.065  10.031
 4262TIP3    H236766   2.192  -0.003  10.080
 4263TIP3   OH236767   2.052   0.102   9.674
 4263TIP3    H136768   2.072   0.153   9.594
 4263TIP3    H236769   1.964   0.133   9.702
 4264TIP3   OH236770   2.591   0.087  10.067
 4264TIP3    H136771   2.683   0.113  10.058
 4264TIP3    H236772   2.597   0.054  10.157
 4265TIP3   OH236773   3.166   0.079  10.232
 4265TIP3    H136774   3.162   0.086  10.136
 4265TIP3    H236775   3.132  -0.011  10.244
 4266TIP3   OH236776   3.276   0.093   9.764
 4266TIP3    H136777   3.204   0.154   9.780
 4266TIP3    H236778   3.253   0.014   9.815
 4267TIP3   OH236779   2.016   1.652   9.765
 4267TIP3    H136780   1.951   1.650   9.692
 4267TIP3    H236781   2.017   1.748   9.781
 4268TIP3   OH236782   2.206   0.255   9.508
 4268TIP3    H136783   2.259   0.193   9.456
 4268TIP3    H236784   2.271   0.280   9.576
 4269TIP3   OH236785   2.707   0.280   9.753
 4269TIP3    H136786   2.736   0.220   9.823
 4269TIP3    H236787   2.718   0.365   9.798
 4270TIP3   OH236788   2.905   1.785   9.597
 4270TIP3    H136789   2.997   1.805   9.575
 4270TIP3    H236790   2.882   1.731   9.517
 4271TIP3   OH236791   3.573   1.733   9.870
 4271TIP3    H136792   3.555   1.655   9.813
 4271TIP3    H236793   3.566   1.806   9.805
 4272TIP3   OH236794   2.196   1.751   9.458
 4272TIP3    H136795   2.170   1.777   9.548
 4272TIP3    H236796   2.274   1.695   9.473
 4273TIP3   OH236797   4.943   0.996  10.072
 4273TIP3    H136798   4.941   1.095  10.072
 4273TIP3    H236799   4.869   0.977  10.013
 4274TIP3   OH236800   4.829   0.921  10.424
 4274TIP3    H136801   4.828   0.856  10.496
 4274TIP3    H236802   4.791   0.871  10.350
 4275TIP3   OH236803   4.061   0.891  10.581
 4275TIP3    H136804   4.073   0.820  10.647
 4275TIP3    H236805   4.140   0.945  10.597
 4276TIP3   OH236806   5.200   1.213  10.256
 4276TIP3    H136807   5.155   1.145  10.304
 4276TIP3    H236808   5.199   1.288  10.319
 4277TIP3   OH236809   4.156   1.334  10.427
 4277TIP3    H136810   4.127   1.245  10.397
 4277TIP3    H236811   4.251   1.316  10.435
 4278TIP3   OH236812   3.819   0.688   9.979
 4278TIP3    H136813   3.779   0.776   9.972
 4278TIP3    H236814   3.763   0.635   9.921
 4279TIP3   OH236815   3.884   0.916  10.194
 4279TIP3    H136816   3.921   0.836  10.237
 4279TIP3    H236817   3.960   0.923  10.132
 4280TIP3   OH236818   4.912   1.736  10.279
 4280TIP3    H136819   4.973   1.666  10.244
 4280TIP3    H236820   4.888   1.696  10.362
 4281TIP3   OH236821   4.664   1.161  10.476
 4281TIP3    H136822   4.698   1.101  10.407
 4281TIP3    H236823   4.748   1.180  10.522
 4282TIP3   OH236824   5.531   0.323  10.548
 4282TIP3    H136825   5.543   0.388  10.619
 4282TIP3    H236826   5.581   0.368  10.479
 4283TIP3   OH236827   4.978   0.606  10.506
 4283TIP3    H136828   5.000   0.511  10.507
 4283TIP3    H236829   4.972   0.622  10.410
 4284TIP3   OH236830   4.295   0.417  10.225
 4284TIP3    H136831   4.305   0.502  10.175
 4284TIP3    H236832   4.253   0.363  10.155
 4285TIP3   OH236833   5.086   0.440  10.069
 4285TIP3    H136834   5.152   0.400  10.133
 4285TIP3    H236835   5.148   0.487  10.009
 4286TIP3   OH236836   3.937   0.634  10.304
 4286TIP3    H136837   4.022   0.609  10.344
 4286TIP3    H236838   3.969   0.638  10.211
 4287TIP3   OH236839   4.474   0.816  10.231
 4287TIP3    H136840   4.538   0.754  10.270
 4287TIP3    H236841   4.417   0.753  10.181
 4288TIP3   OH236842   5.588   0.489  10.771
 4288TIP3    H136843   5.507   0.544  10.759
 4288TIP3    H236844   5.570   0.457  10.861
 4289TIP3   OH236845   4.187   0.309  10.622
 4289TIP3    H136846   4.158   0.370  10.552
 4289TIP3    H236847   4.120   0.329  10.691
 4290TIP3   OH236848   4.908   1.252   9.986
 4290TIP3    H136849   4.890   1.232   9.893
 4290TIP3    H236850   4.889   1.349   9.985
 4291TIP3   OH236851   4.436   1.073  10.656
 4291TIP3    H136852   4.365   1.138  10.674
 4291TIP3    H236853   4.506   1.131  10.622
 4292TIP3   OH236854   5.248   0.363  10.265
 4292TIP3    H136855   5.228   0.284  10.318
 4292TIP3    H236856   5.319   0.403  10.317
 4293TIP3   OH236857   4.143   0.493  10.432
 4293TIP3    H136858   4.203   0.565  10.460
 4293TIP3    H236859   4.192   0.457  10.354
 4294TIP3   OH236860   4.283   1.274  10.734
 4294TIP3    H136861   4.275   1.367  10.705
 4294TIP3    H236862   4.196   1.264  10.779
 4295TIP3   OH236863   3.889   1.232   9.813
 4295TIP3    H136864   3.865   1.268   9.726
 4295TIP3    H236865   3.897   1.314   9.865
 4296TIP3   OH236866   5.250   1.401  10.490
 4296TIP3    H136867   5.153   1.412  10.501
 4296TIP3    H236868   5.276   1.492  10.469
 4297TIP3   OH236869   5.283   0.238  10.642
 4297TIP3    H136870   5.206   0.293  10.618
 4297TIP3    H236871   5.349   0.265  10.575
 4298TIP3   OH236872   4.571   0.053  10.339
 4298TIP3    H136873   4.581  -0.037  10.374
 4298TIP3    H236874   4.499   0.080  10.398
 4299TIP3   OH236875   5.078   1.578  10.151
 4299TIP3    H136876   5.114   1.508  10.093
 4299TIP3    H236877   5.119   1.657  10.108
 4300TIP3   OH236878   5.208   1.368  10.000
 4300TIP3    H136879   5.163   1.308   9.939
 4300TIP3    H236880   5.199   1.321  10.085
 4301TIP3   OH236881   5.362   1.228  10.847
 4301TIP3    H136882   5.375   1.170  10.770
 4301TIP3    H236883   5.383   1.316  10.810
 4302TIP3   OH236884   4.809   0.917   9.825
 4302TIP3    H136885   4.741   0.979   9.791
 4302TIP3    H236886   4.881   0.930   9.760
 4303TIP3   OH236887   4.817   0.779   9.526
 4303TIP3    H136888   4.888   0.779   9.591
 4303TIP3    H236889   4.847   0.706   9.470
 4304TIP3   OH236890   5.548   0.861  10.652
 4304TIP3    H136891   5.483   0.934  10.658
 4304TIP3    H236892   5.598   0.887  10.571
 4305TIP3   OH236893   5.154   0.941   9.917
 4305TIP3    H136894   5.080   0.967   9.977
 4305TIP3    H236895   5.203   0.876   9.971
 4306TIP3   OH236896   5.144   0.755  10.828
 4306TIP3    H136897   5.146   0.834  10.883
 4306TIP3    H236898   5.082   0.787  10.759
 4307TIP3   OH236899   4.330   1.018  10.103
 4307TIP3    H136900   4.279   0.969  10.035
 4307TIP3    H236901   4.369   0.939  10.148
 4308TIP3   OH236902   4.445   1.343  10.377
 4308TIP3    H136903   4.446   1.292  10.295
 4308TIP3    H236904   4.525   1.309  10.421
 4309TIP3   OH236905   4.350   0.881  10.480
 4309TIP3    H136906   4.399   0.893  10.395
 4309TIP3    H236907   4.388   0.950  10.538
 4310TIP3   OH236908   4.991   1.439  10.547
 4310TIP3    H136909   4.959   1.506  10.609
 4310TIP3    H236910   4.962   1.354  10.587
 4311TIP3   OH236911   4.455   1.346  10.935
 4311TIP3    H136912   4.407   1.399  11.000
 4311TIP3    H236913   4.381   1.313  10.880
 4312TIP3   OH236914   5.042   0.862   9.683
 4312TIP3    H136915   5.097   0.880   9.764
 4312TIP3    H236916   5.088   0.911   9.611
 4313TIP3   OH236917   4.136   0.940  10.868
 4313TIP3    H136918   4.141   1.008  10.936
 4313TIP3    H236919   4.044   0.948  10.838
 4314TIP3   OH236920   4.776   1.534  10.075
 4314TIP3    H136921   4.860   1.563  10.111
 4314TIP3    H236922   4.762   1.599  10.005
 4315TIP3   OH236923   5.416   0.043   9.685
 4315TIP3    H136924   5.319   0.048   9.693
 4315TIP3    H236925   5.438   0.118   9.626
 4316TIP3   OH236926   4.218   0.907   9.857
 4316TIP3    H136927   4.180   0.988   9.821
 4316TIP3    H236928   4.146   0.843   9.855
 4317TIP3   OH236929   5.526   1.469   9.511
 4317TIP3    H136930   5.540   1.564   9.526
 4317TIP3    H236931   5.616   1.435   9.508
 4318TIP3   OH236932   3.824   1.153  10.755
 4318TIP3    H136933   3.775   1.145  10.671
 4318TIP3    H236934   3.826   1.059  10.783
 4319TIP3   OH236935   3.797   1.427  10.437
 4319TIP3    H136936   3.892   1.413  10.437
 4319TIP3    H236937   3.789   1.506  10.492
 4320TIP3   OH236938   4.704   1.424  10.870
 4320TIP3    H136939   4.714   1.515  10.904
 4320TIP3    H236940   4.618   1.396  10.910
 4321TIP3   OH236941   4.758   1.824   9.872
 4321TIP3    H136942   4.752   1.815   9.776
 4321TIP3    H236943   4.763   1.920   9.888
 4322TIP3   OH236944   4.124   1.712  10.055
 4322TIP3    H136945   4.139   1.671  10.143
 4322TIP3    H236946   4.040   1.671  10.032
 4323TIP3   OH236947   5.067   1.746   9.574
 4323TIP3    H136948   5.110   1.670   9.529
 4323TIP3    H236949   5.067   1.714   9.666
 4324TIP3   OH236950   5.043   1.776   9.876
 4324TIP3    H136951   4.948   1.756   9.862
 4324TIP3    H236952   5.066   1.682   9.892
 4325TIP3   OH236953   4.049   1.280  10.853
 4325TIP3    H136954   4.070   1.245  10.940
 4325TIP3    H236955   3.959   1.245  10.832
 4326TIP3   OH236956   4.319   0.137  10.443
 4326TIP3    H136957   4.230   0.134  10.403
 4326TIP3    H236958   4.305   0.213  10.502
 4327TIP3   OH236959   4.782   0.110  10.795
 4327TIP3    H136960   4.817   0.055  10.865
 4327TIP3    H236961   4.686   0.089  10.804
 4328TIP3   OH236962   5.089   0.475  10.871
 4328TIP3    H136963   5.063   0.467  10.964
 4328TIP3    H236964   5.099   0.571  10.854
 4329TIP3   OH236965   5.187   0.965   9.469
 4329TIP3    H136966   5.183   0.947   9.372
 4329TIP3    H236967   5.272   1.010   9.472
 4330TIP3   OH236968   4.749   0.356   9.520
 4330TIP3    H136969   4.711   0.348   9.609
 4330TIP3    H236970   4.714   0.272   9.484
 4331TIP3   OH236971   4.327   0.631  10.577
 4331TIP3    H136972   4.251   0.629  10.639
 4331TIP3    H236973   4.319   0.719  10.534
 4332TIP3   OH236974   4.347   0.610  10.053
 4332TIP3    H136975   4.250   0.629  10.056
 4332TIP3    H236976   4.361   0.604   9.958
 4333TIP3   OH236977   4.875   0.685   9.935
 4333TIP3    H136978   4.836   0.771   9.904
 4333TIP3    H236979   4.947   0.677   9.871
 4334TIP3   OH236980   4.971   0.640  10.225
 4334TIP3    H136981   4.952   0.701  10.152
 4334TIP3    H236982   4.998   0.560  10.179
 4335TIP3   OH236983   4.086   0.658  10.748
 4335TIP3    H136984   4.097   0.694  10.837
 4335TIP3    H236985   4.049   0.570  10.765
 4336TIP3   OH236986   4.425   0.396   9.430
 4336TIP3    H136987   4.381   0.352   9.505
 4336TIP3    H236988   4.354   0.438   9.381
 4337TIP3   OH236989   3.755   0.367  10.143
 4337TIP3    H136990   3.824   0.369  10.213
 4337TIP3    H236991   3.803   0.333  10.066
 4338TIP3   OH236992   3.882   0.440   9.680
 4338TIP3    H136993   3.934   0.497   9.620
 4338TIP3    H236994   3.813   0.504   9.709
 4339TIP3   OH236995   4.904   0.796  10.686
 4339TIP3    H136996   4.938   0.730  10.622
 4339TIP3    H236997   4.849   0.742  10.746
 4340TIP3   OH236998   4.587   0.395  10.163
 4340TIP3    H136999   4.490   0.396  10.185
 4340TIP3    H237000   4.625   0.377  10.250
 4341TIP3   OH237001   4.051   0.532  10.052
 4341TIP3    H137002   3.971   0.561  10.004
 4341TIP3    H237003   4.086   0.457  10.000
 4342TIP3   OH237004   4.429   0.550   9.805
 4342TIP3    H137005   4.520   0.571   9.828
 4342TIP3    H237006   4.399   0.625   9.749
 4343TIP3   OH237007   5.021   0.324  10.484
 4343TIP3    H137008   4.953   0.324  10.555
 4343TIP3    H237009   4.972   0.287  10.409
 4344TIP3   OH237010   4.295   0.673   9.571
 4344TIP3    H137011   4.242   0.635   9.499
 4344TIP3    H237012   4.377   0.694   9.523
 4345TIP3   OH237013   4.706   0.671  10.351
 4345TIP3    H137014   4.770   0.620  10.302
 4345TIP3    H237015   4.693   0.618  10.431
 4346TIP3   OH237016   4.205   0.283   9.991
 4346TIP3    H137017   4.177   0.191   9.994
 4346TIP3    H237018   4.286   0.278   9.940
 4347TIP3   OH237019   4.570   0.502  10.596
 4347TIP3    H137020   4.490   0.557  10.599
 4347TIP3    H237021   4.628   0.541  10.664
 4348TIP3   OH237022   4.631   1.121   9.763
 4348TIP3    H137023   4.548   1.080   9.729
 4348TIP3    H237024   4.607   1.142   9.856
 4349TIP3   OH237025   5.352   1.041  10.644
 4349TIP3    H137026   5.405   1.095  10.582
 4349TIP3    H237027   5.265   1.048  10.599
 4350TIP3   OH237028   5.009   0.404   9.587
 4350TIP3    H137029   4.917   0.425   9.561
 4350TIP3    H237030   5.047   0.492   9.611
 4351TIP3   OH237031   4.780   1.154  10.878
 4351TIP3    H137032   4.747   1.111  10.959
 4351TIP3    H237033   4.749   1.246  10.889
 4352TIP3   OH237034   5.086   0.599   9.746
 4352TIP3    H137035   5.176   0.587   9.783
 4352TIP3    H237036   5.097   0.680   9.692
 4353TIP3   OH237037   4.145   1.068  10.347
 4353TIP3    H137038   4.204   1.054  10.271
 4353TIP3    H237039   4.144   0.977  10.381
 4354TIP3   OH237040   4.837   1.269   9.659
 4354TIP3    H137041   4.815   1.356   9.701
 4354TIP3    H237042   4.764   1.212   9.691
 4355TIP3   OH237043   3.837   0.909  10.869
 4355TIP3    H137044   3.857   0.865  10.953
 4355TIP3    H237045   3.779   0.846  10.823
 4356TIP3   OH237046   5.006   1.396  10.883
 4356TIP3    H137047   4.914   1.413  10.856
 4356TIP3    H237048   5.010   1.422  10.975
 4357TIP3   OH237049   5.575   0.616   9.721
 4357TIP3    H137050   5.521   0.585   9.645
 4357TIP3    H237051   5.584   0.711   9.695
 4358TIP3   OH237052   5.412   1.493   9.762
 4358TIP3    H137053   5.362   1.417   9.796
 4358TIP3    H237054   5.429   1.472   9.669
 4359TIP3   OH237055   5.127   0.976  10.472
 4359TIP3    H137056   5.033   0.957  10.459
 4359TIP3    H237057   5.169   0.902  10.424
 4360TIP3   OH237058   4.378   1.411  10.082
 4360TIP3    H137059   4.430   1.491  10.060
 4360TIP3    H237060   4.291   1.435  10.048
 4361TIP3   OH237061   3.955   0.895   9.539
 4361TIP3    H137062   4.013   0.962   9.579
 4361TIP3    H237063   3.866   0.926   9.563
 4362TIP3   OH237064   4.522   1.181  10.031
 4362TIP3    H137065   4.488   1.271  10.041
 4362TIP3    H237066   4.450   1.128  10.075
 4363TIP3   OH237067   4.563   1.599  10.676
 4363TIP3    H137068   4.613   1.677  10.646
 4363TIP3    H237069   4.626   1.558  10.737
 4364TIP3   OH237070   4.388   1.677   9.986
 4364TIP3    H137071   4.291   1.691  10.000
 4364TIP3    H237072   4.424   1.761  10.019
 4365TIP3   OH237073   4.917   1.196  10.632
 4365TIP3    H137074   4.885   1.178  10.722
 4365TIP3    H237075   4.981   1.124  10.619
 4366TIP3   OH237076   5.152   1.302   9.541
 4366TIP3    H137077   5.177   1.260   9.626
 4366TIP3    H237078   5.056   1.289   9.552
 4367TIP3   OH237079   5.175   1.680  10.863
 4367TIP3    H137080   5.128   1.612  10.813
 4367TIP3    H237081   5.216   1.735  10.793
 4368TIP3   OH237082   5.602   1.739   9.572
 4368TIP3    H137083   5.664   1.811   9.547
 4368TIP3    H237084   5.526   1.797   9.599
 4369TIP3   OH237085   4.005   0.385  10.822
 4369TIP3    H137086   3.912   0.415  10.818
 4369TIP3    H237087   3.998   0.298  10.864
 4370TIP3   OH237088   5.229   1.164   9.765
 4370TIP3    H137089   5.204   1.089   9.824
 4370TIP3    H237090   5.323   1.172   9.788
 4371TIP3   OH237091   3.968   1.558  10.665
 4371TIP3    H137092   3.997   1.465  10.666
 4371TIP3    H237093   3.996   1.586  10.754
 4372TIP3   OH237094   4.561   1.412   9.392
 4372TIP3    H137095   4.573   1.334   9.335
 4372TIP3    H237096   4.521   1.370   9.471
 4373TIP3   OH237097   4.436   1.364   9.640
 4373TIP3    H137098   4.472   1.313   9.714
 4373TIP3    H237099   4.453   1.456   9.670
 4374TIP3   OH237100   4.093   1.090   9.683
 4374TIP3    H137101   4.025   1.127   9.743
 4374TIP3    H237102   4.146   1.168   9.658
 4375TIP3   OH237103   4.874   0.355  10.715
 4375TIP3    H137104   4.947   0.359  10.778
 4375TIP3    H237105   4.837   0.266  10.731
 4376TIP3   OH237106   4.958   0.315   9.834
 4376TIP3    H137107   4.971   0.353   9.743
 4376TIP3    H237108   5.033   0.361   9.874
 4377TIP3   OH237109   4.698   1.523   9.683
 4377TIP3    H137110   4.635   1.588   9.719
 4377TIP3    H237111   4.775   1.577   9.662
 4378TIP3   OH237112   4.694   0.477   9.920
 4378TIP3    H137113   4.747   0.560   9.914
 4378TIP3    H237114   4.640   0.485  10.002
 4379TIP3   OH237115   4.745   0.601  10.823
 4379TIP3    H137116   4.736   0.646  10.907
 4379TIP3    H237117   4.789   0.517  10.841
 4380TIP3   OH237118   4.767   0.189  10.009
 4380TIP3    H137119   4.715   0.256  10.060
 4380TIP3    H237120   4.816   0.235   9.937
 4381TIP3   OH237121   4.453   1.634   9.712
 4381TIP3    H137122   4.470   1.714   9.657
 4381TIP3    H237123   4.435   1.671   9.801
 4382TIP3   OH237124   4.323   0.305   9.666
 4382TIP3    H137125   4.320   0.394   9.708
 4382TIP3    H237126   4.413   0.280   9.693
 4383TIP3   OH237127   5.353   0.414  10.860
 4383TIP3    H137128   5.256   0.412  10.873
 4383TIP3    H237129   5.368   0.362  10.779
 4384TIP3   OH237130   5.210   0.756  10.312
 4384TIP3    H137131   5.127   0.712  10.289
 4384TIP3    H237132   5.260   0.690  10.367
 4385TIP3   OH237133   4.148   1.349   9.573
 4385TIP3    H137134   4.215   1.411   9.606
 4385TIP3    H237135   4.202   1.303   9.506
 4386TIP3   OH237136   3.983   0.617   9.489
 4386TIP3    H137137   3.986   0.713   9.510
 4386TIP3    H237138   3.894   0.601   9.457
 4387TIP3   OH237139   5.316   1.683  10.480
 4387TIP3    H137140   5.307   1.751  10.410
 4387TIP3    H237141   5.412   1.689  10.498
 4388TIP3   OH237142   4.053   0.121  10.349
 4388TIP3    H137143   4.035   0.106  10.253
 4388TIP3    H237144   4.031   0.032  10.385
 4389TIP3   OH237145   3.960   1.488   9.979
 4389TIP3    H137146   3.875   1.533   9.972
 4389TIP3    H237147   4.007   1.532   9.907
 4390TIP3   OH237148   4.762   1.598   9.402
 4390TIP3    H137149   4.695   1.532   9.431
 4390TIP3    H237150   4.835   1.537   9.386
 4391TIP3   OH237151   5.219   1.570   9.423
 4391TIP3    H137152   5.246   1.494   9.478
 4391TIP3    H237153   5.297   1.591   9.371
 4392TIP3   OH237154   4.305   1.163   9.405
 4392TIP3    H137155   4.320   1.089   9.466
 4392TIP3    H237156   4.383   1.153   9.348
 4393TIP3   OH237157   4.849   1.276   9.383
 4393TIP3    H137158   4.826   1.285   9.477
 4393TIP3    H237159   4.832   1.180   9.371
 4394TIP3   OH237160   5.112   1.114  10.869
 4394TIP3    H137161   5.191   1.171  10.874
 4394TIP3    H237162   5.044   1.181  10.888
 4395TIP3   OH237163   4.429   0.965   9.652
 4395TIP3    H137164   4.376   0.912   9.714
 4395TIP3    H237165   4.458   0.898   9.586
 4396TIP3   OH237166   4.355   0.762  10.868
 4396TIP3    H137167   4.290   0.827  10.897
 4396TIP3    H237168   4.393   0.798  10.786
 4397TIP3   OH237169   4.535   0.787   9.470
 4397TIP3    H137170   4.520   0.781   9.373
 4397TIP3    H237171   4.633   0.793   9.477
 4398TIP3   OH237172   5.467   1.020   9.411
 4398TIP3    H137173   5.449   0.984   9.323
 4398TIP3    H237174   5.477   1.117   9.393
 4399TIP3   OH237175   4.363   0.529  10.956
 4399TIP3    H137176   4.414   0.457  10.918
 4399TIP3    H237177   4.394   0.605  10.902
 4400TIP3   OH237178   4.434   0.320  10.740
 4400TIP3    H137179   4.486   0.370  10.673
 4400TIP3    H237180   4.345   0.313  10.698
 4401TIP3   OH237181   4.590   0.866  10.761
 4401TIP3    H137182   4.667   0.856  10.704
 4401TIP3    H237183   4.553   0.952  10.733
 4402TIP3   OH237184   4.520   0.080  10.788
 4402TIP3    H137185   4.500   0.176  10.780
 4402TIP3    H237186   4.443   0.039  10.746
 4403TIP3   OH237187   4.520   1.860   9.581
 4403TIP3    H137188   4.617   1.865   9.584
 4403TIP3    H237189   4.505   1.917   9.504
 4404TIP3   OH237190   3.873   1.315   9.526
 4404TIP3    H137191   3.970   1.325   9.543
 4404TIP3    H237192   3.879   1.252   9.450
 4405TIP3   OH237193   3.753   1.855  10.021
 4405TIP3    H137194   3.680   1.806   9.976
 4405TIP3    H237195   3.780   1.790  10.088
 4406TIP3   OH237196   3.834   1.668  10.209
 4406TIP3    H137197   3.799   1.580  10.230
 4406TIP3    H237198   3.857   1.700  10.298
 4407TIP3   OH237199   5.589   1.746  10.504
 4407TIP3    H137200   5.593   1.762  10.600
 4407TIP3    H237201   5.658   1.805  10.472
 4408TIP3   OH237202   5.548   1.708  10.794
 4408TIP3    H137203   5.499   1.632  10.757
 4408TIP3    H237204   5.596   1.666  10.865
 4409TIP3   OH237205   5.522   1.112   9.806
 4409TIP3    H137206   5.608   1.151   9.826
 4409TIP3    H237207   5.519   1.041   9.873
 4410TIP3   OH237208   5.556   0.919   9.996
 4410TIP3    H137209   5.481   0.870  10.035
 4410TIP3    H237210   5.616   0.933  10.072
 4411TIP3   OH237211   5.532   1.189  10.494
 4411TIP3    H137212   5.614   1.150  10.456
 4411TIP3    H237213   5.547   1.284  10.475
 4412TIP3   OH237214   5.386   1.481  10.722
 4412TIP3    H137215   5.318   1.512  10.783
 4412TIP3    H237216   5.333   1.439  10.650
 4413TIP3   OH237217   5.589   0.901   9.635
 4413TIP3    H137218   5.531   0.934   9.562
 4413TIP3    H237219   5.577   0.973   9.700
 4414TIP3   OH237220   5.426   0.626   9.485
 4414TIP3    H137221   5.433   0.692   9.415
 4414TIP3    H237222   5.405   0.543   9.436
 4415TIP3   OH237223   5.337   0.767  10.053
 4415TIP3    H137224   5.326   0.671  10.050
 4415TIP3    H237225   5.309   0.788  10.144
 4416TIP3   OH237226   3.841   0.979  10.458
 4416TIP3    H137227   3.858   0.966  10.362
 4416TIP3    H237228   3.930   0.956  10.493
 4417TIP3   OH237229   5.348   0.376   9.404
 4417TIP3    H137230   5.410   0.329   9.463
 4417TIP3    H237231   5.264   0.328   9.414
 4418TIP3   OH237232   5.302   0.527   9.894
 4418TIP3    H137233   5.337   0.436   9.909
 4418TIP3    H237234   5.384   0.569   9.864
 4419TIP3   OH237235   5.371   0.581  10.440
 4419TIP3    H137236   5.467   0.602  10.441
 4419TIP3    H237237   5.352   0.590  10.535
 4420TIP3   OH237238   5.376   0.656  10.718
 4420TIP3    H137239   5.288   0.682  10.752
 4420TIP3    H237240   5.420   0.742  10.698
 4421TIP3   OH237241   5.364   0.259   9.904
 4421TIP3    H137242   5.395   0.213   9.986
 4421TIP3    H237243   5.315   0.188   9.858
 4422TIP3   OH237244   3.913   0.340  10.364
 4422TIP3    H137245   3.963   0.258  10.383
 4422TIP3    H237246   3.976   0.408  10.393
 4423TIP3   OH237247   3.744   0.635  10.466
 4423TIP3    H137248   3.804   0.608  10.391
 4423TIP3    H237249   3.796   0.713  10.489
 4424TIP3   OH237250   5.558   0.256   9.565
 4424TIP3    H137251   5.594   0.186   9.505
 4424TIP3    H237252   5.627   0.324   9.563
 4425TIP3   OH237253   3.785   0.255   9.869
 4425TIP3    H137254   3.692   0.281   9.855
 4425TIP3    H237255   3.830   0.307   9.800
 4426TIP3   OH237256   5.263   1.757  10.067
 4426TIP3    H137257   5.328   1.725  10.003
 4426TIP3    H237258   5.314   1.807  10.131
 4427TIP3   OH237259   3.789   0.145  10.704
 4427TIP3    H137260   3.721   0.115  10.765
 4427TIP3    H237261   3.739   0.202  10.642
 4428TIP3   OH237262   4.293   1.545  10.740
 4428TIP3    H137263   4.261   1.632  10.712
 4428TIP3    H237264   4.387   1.554  10.715
 4429TIP3   OH237265   4.952   1.827  -0.028
 4429TIP3    H137266   5.024   1.764  -0.050
 4429TIP3    H237267   4.993   1.857   0.055
 4430TIP3   OH237268   5.447   0.100  10.869
 4430TIP3    H137269   5.357   0.118  10.841
 4430TIP3    H237270   5.449   0.004  10.859
 4431TIP3   OH237271   4.035   1.870  10.745
 4431TIP3    H137272   3.962   1.921  10.706
 4431TIP3    H237273   4.003   1.850  10.834
 4432TIP3   OH237274   4.283   1.826  10.641
 4432TIP3    H137275   4.199   1.845  10.689
 4432TIP3    H237276   4.278   1.891  10.569
 4433TIP3   OH237277   4.753   1.819  10.573
 4433TIP3    H137278   4.710   1.874  10.505
 4433TIP3    H237279   4.768   1.885  10.644
 4434TIP3   OH237280   4.984   1.695  10.660
 4434TIP3    H137281   4.897   1.729  10.632
 4434TIP3    H237282   5.031   1.780  10.661
 4435TIP3   OH237283   5.251   1.859  10.690
 4435TIP3    H137284   5.237   1.954  10.667
 4435TIP3    H237285   5.266   1.820  10.602
 4436TIP3   OH237286   3.985   1.735  10.437
 4436TIP3    H137287   3.977   1.689  10.523
 4436TIP3    H237288   4.066   1.696  10.399
 4437TIP3   OH237289   4.193   1.606  10.302
 4437TIP3    H137290   4.176   1.513  10.326
 4437TIP3    H237291   4.279   1.622  10.347
 4438TIP3   OH237292   4.453   1.655  10.388
 4438TIP3    H137293   4.468   1.562  10.363
 4438TIP3    H237294   4.457   1.650  10.485
 4439TIP3   OH237295   4.795   0.227  10.290
 4439TIP3    H137296   4.733   0.164  10.332
 4439TIP3    H237297   4.858   0.164  10.254
 4440TIP3   OH237298   5.315   0.055  10.328
 4440TIP3    H137299   5.374   0.089  10.257
 4440TIP3    H237300   5.227   0.057  10.287
 4441TIP3   OH237301   5.480   0.156  10.135
 4441TIP3    H137302   5.543   0.093  10.097
 4441TIP3    H237303   5.532   0.238  10.149
 4442TIP3   OH237304   4.029   0.079  10.089
 4442TIP3    H137305   3.952   0.066  10.032
 4442TIP3    H237306   4.078  -0.004  10.079
 4443TIP3   OH237307   3.937   0.101   9.673
 4443TIP3    H137308   3.958   0.153   9.594
 4443TIP3    H237309   3.850   0.133   9.702
 4444TIP3   OH237310   4.476   0.089  10.067
 4444TIP3    H137311   4.569   0.109  10.059
 4444TIP3    H237312   4.480   0.055  10.157
 4445TIP3   OH237313   5.045   0.083  10.230
 4445TIP3    H137314   5.051   0.080  10.134
 4445TIP3    H237315   5.019  -0.010  10.246
 4446TIP3   OH237316   5.163   0.097   9.769
 4446TIP3    H137317   5.086   0.153   9.776
 4446TIP3    H237318   5.139   0.013   9.812
 4447TIP3   OH237319   3.902   1.652   9.765
 4447TIP3    H137320   3.837   1.650   9.692
 4447TIP3    H237321   3.902   1.748   9.781
 4448TIP3   OH237322   4.091   0.256   9.509
 4448TIP3    H137323   4.144   0.194   9.456
 4448TIP3    H237324   4.157   0.280   9.577
 4449TIP3   OH237325   4.599   0.280   9.752
 4449TIP3    H137326   4.619   0.218   9.823
 4449TIP3    H237327   4.600   0.366   9.799
 4450TIP3   OH237328   4.789   1.790   9.593
 4450TIP3    H137329   4.883   1.803   9.576
 4450TIP3    H237330   4.769   1.729   9.519
 4451TIP3   OH237331   5.468   1.731   9.866
 4451TIP3    H137332   5.436   1.653   9.814
 4451TIP3    H237333   5.447   1.806   9.806
 4452TIP3   OH237334   4.081   1.752   9.458
 4452TIP3    H137335   4.055   1.777   9.548
 4452TIP3    H237336   4.160   1.695   9.473
 4453TIP3   OH237337   6.830   0.997  10.072
 4453TIP3    H137338   6.826   1.095  10.072
 4453TIP3    H237339   6.755   0.973  10.014
 4454TIP3   OH237340   6.713   0.921  10.424
 4454TIP3    H137341   6.712   0.856  10.496
 4454TIP3    H237342   6.678   0.870  10.349
 4455TIP3   OH237343   5.950   0.889  10.578
 4455TIP3    H137344   5.958   0.820  10.647
 4455TIP3    H237345   6.024   0.947  10.601
 4456TIP3   OH237346   7.079   1.218  10.251
 4456TIP3    H137347   7.044   1.145  10.303
 4456TIP3    H237348   7.088   1.286  10.320
 4457TIP3   OH237349   6.041   1.335  10.427
 4457TIP3    H137350   6.012   1.246  10.397
 4457TIP3    H237351   6.137   1.317  10.436
 4458TIP3   OH237352   5.705   0.689   9.979
 4458TIP3    H137353   5.663   0.777   9.972
 4458TIP3    H237354   5.650   0.636   9.920
 4459TIP3   OH237355   5.777   0.914  10.194
 4459TIP3    H137356   5.805   0.831  10.238
 4459TIP3    H237357   5.846   0.924  10.126
 4460TIP3   OH237358   6.793   1.732  10.277
 4460TIP3    H137359   6.859   1.665  10.247
 4460TIP3    H237360   6.774   1.697  10.365
 4461TIP3   OH237361   6.550   1.161  10.476
 4461TIP3    H137362   6.584   1.101  10.408
 4461TIP3    H237363   6.634   1.178  10.524
 4462TIP3   OH237364   7.417   0.325  10.548
 4462TIP3    H137365   7.430   0.391  10.619
 4462TIP3    H237366   7.469   0.369  10.479
 4463TIP3   OH237367   6.865   0.606  10.506
 4463TIP3    H137368   6.886   0.510  10.505
 4463TIP3    H237369   6.857   0.622  10.410
 4464TIP3   OH237370   6.181   0.419  10.224
 4464TIP3    H137371   6.192   0.503  10.174
 4464TIP3    H237372   6.140   0.361  10.156
 4465TIP3   OH237373   6.953   0.425  10.062
 4465TIP3    H137374   7.017   0.395  10.129
 4465TIP3    H237375   7.010   0.483  10.009
 4466TIP3   OH237376   5.840   0.660  10.297
 4466TIP3    H137377   5.907   0.606  10.343
 4466TIP3    H237378   5.853   0.628  10.206
 4467TIP3   OH237379   6.357   0.814  10.231
 4467TIP3    H137380   6.425   0.756  10.269
 4467TIP3    H237381   6.306   0.749  10.179
 4468TIP3   OH237382   7.472   0.485  10.773
 4468TIP3    H137383   7.392   0.542  10.758
 4468TIP3    H237384   7.455   0.455  10.862
 4469TIP3   OH237385   6.073   0.309  10.623
 4469TIP3    H137386   6.043   0.370  10.553
 4469TIP3    H237387   6.005   0.329  10.692
 4470TIP3   OH237388   6.798   1.255   9.983
 4470TIP3    H137389   6.773   1.228   9.893
 4470TIP3    H237390   6.769   1.348   9.988
 4471TIP3   OH237391   6.321   1.072  10.656
 4471TIP3    H137392   6.251   1.138  10.674
 4471TIP3    H237393   6.391   1.131  10.622
 4472TIP3   OH237394   7.134   0.365  10.263
 4472TIP3    H137395   7.111   0.286  10.314
 4472TIP3    H237396   7.204   0.404  10.316
 4473TIP3   OH237397   6.025   0.499  10.427
 4473TIP3    H137398   6.090   0.563  10.462
 4473TIP3    H237399   6.079   0.454  10.356
 4474TIP3   OH237400   6.168   1.274  10.734
 4474TIP3    H137401   6.161   1.367  10.705
 4474TIP3    H237402   6.081   1.264  10.779
 4475TIP3   OH237403   5.779   1.234   9.811
 4475TIP3    H137404   5.747   1.267   9.727
 4475TIP3    H237405   5.779   1.314   9.868
 4476TIP3   OH237406   7.134   1.402  10.490
 4476TIP3    H137407   7.037   1.413  10.500
 4476TIP3    H237408   7.161   1.493  10.469
 4477TIP3   OH237409   7.169   0.239  10.643
 4477TIP3    H137410   7.093   0.292  10.615
 4477TIP3    H237411   7.236   0.264  10.577
 4478TIP3   OH237412   6.456   0.051  10.340
 4478TIP3    H137413   6.466  -0.039  10.375
 4478TIP3    H237414   6.384   0.079  10.399
 4479TIP3   OH237415   6.961   1.579  10.147
 4479TIP3    H137416   7.004   1.507  10.097
 4479TIP3    H237417   7.007   1.657  10.109
 4480TIP3   OH237418   7.084   1.371  10.000
 4480TIP3    H137419   7.053   1.302   9.940
 4480TIP3    H237420   7.086   1.322  10.084
 4481TIP3   OH237421   7.249   1.228  10.847
 4481TIP3    H137422   7.261   1.169  10.770
 4481TIP3    H237423   7.271   1.315  10.808
 4482TIP3   OH237424   6.694   0.918   9.825
 4482TIP3    H137425   6.626   0.977   9.789
 4482TIP3    H237426   6.766   0.930   9.760
 4483TIP3   OH237427   6.703   0.778   9.526
 4483TIP3    H137428   6.773   0.776   9.593
 4483TIP3    H237429   6.733   0.705   9.470
 4484TIP3   OH237430   7.433   0.862  10.655
 4484TIP3    H137431   7.369   0.936  10.660
 4484TIP3    H237432   7.482   0.886  10.573
 4485TIP3   OH237433   7.040   0.938   9.917
 4485TIP3    H137434   6.966   0.965   9.977
 4485TIP3    H237435   7.089   0.874   9.971
 4486TIP3   OH237436   7.029   0.754  10.830
 4486TIP3    H137437   7.033   0.836  10.880
 4486TIP3    H237438   6.968   0.785  10.759
 4487TIP3   OH237439   6.200   1.007  10.109
 4487TIP3    H137440   6.168   0.968  10.024
 4487TIP3    H237441   6.262   0.938  10.143
 4488TIP3   OH237442   6.332   1.344  10.377
 4488TIP3    H137443   6.332   1.293  10.295
 4488TIP3    H237444   6.411   1.309  10.422
 4489TIP3   OH237445   6.233   0.883  10.475
 4489TIP3    H137446   6.287   0.892  10.395
 4489TIP3    H237447   6.273   0.947  10.538
 4490TIP3   OH237448   6.875   1.440  10.547
 4490TIP3    H137449   6.845   1.506  10.609
 4490TIP3    H237450   6.851   1.354  10.590
 4491TIP3   OH237451   6.341   1.346  10.935
 4491TIP3    H137452   6.293   1.399  11.001
 4491TIP3    H237453   6.267   1.313  10.880
 4492TIP3   OH237454   6.927   0.862   9.683
 4492TIP3    H137455   6.983   0.879   9.764
 4492TIP3    H237456   6.973   0.911   9.612
 4493TIP3   OH237457   6.021   0.940  10.866
 4493TIP3    H137458   6.027   1.007  10.936
 4493TIP3    H237459   5.930   0.949  10.837
 4494TIP3   OH237460   6.698   1.534  10.031
 4494TIP3    H137461   6.741   1.564  10.112
 4494TIP3    H237462   6.643   1.609  10.007
 4495TIP3   OH237463   7.302   0.042   9.685
 4495TIP3    H137464   7.205   0.048   9.693
 4495TIP3    H237465   7.323   0.118   9.626
 4496TIP3   OH237466   6.096   0.908   9.873
 4496TIP3    H137467   6.068   0.986   9.821
 4496TIP3    H237468   6.032   0.841   9.847
 4497TIP3   OH237469   7.412   1.469   9.511
 4497TIP3    H137470   7.428   1.563   9.527
 4497TIP3    H237471   7.504   1.437   9.510
 4498TIP3   OH237472   5.710   1.152  10.756
 4498TIP3    H137473   5.661   1.145  10.672
 4498TIP3    H237474   5.712   1.058  10.784
 4499TIP3   OH237475   5.683   1.427  10.438
 4499TIP3    H137476   5.778   1.413  10.437
 4499TIP3    H237477   5.675   1.506  10.492
 4500TIP3   OH237478   6.591   1.421  10.873
 4500TIP3    H137479   6.601   1.513  10.905
 4500TIP3    H237480   6.502   1.397  10.908
 4501TIP3   OH237481   6.647   1.824   9.872
 4501TIP3    H137482   6.635   1.817   9.775
 4501TIP3    H237483   6.647   1.920   9.888
 4502TIP3   OH237484   6.010   1.711  10.055
 4502TIP3    H137485   6.026   1.672  10.145
 4502TIP3    H237486   5.923   1.672  10.036
 4503TIP3   OH237487   6.952   1.746   9.571
 4503TIP3    H137488   6.998   1.670   9.528
 4503TIP3    H237489   6.956   1.720   9.665
 4504TIP3   OH237490   6.921   1.739   9.848
 4504TIP3    H137491   6.825   1.747   9.865
 4504TIP3    H237492   6.944   1.665   9.906
 4505TIP3   OH237493   5.934   1.282  10.853
 4505TIP3    H137494   5.955   1.246  10.939
 4505TIP3    H237495   5.845   1.245  10.832
 4506TIP3   OH237496   6.205   0.136  10.443
 4506TIP3    H137497   6.116   0.132  10.404
 4506TIP3    H237498   6.191   0.212  10.502
 4507TIP3   OH237499   6.667   0.110  10.795
 4507TIP3    H137500   6.703   0.055  10.865
 4507TIP3    H237501   6.572   0.089  10.804
 4508TIP3   OH237502   6.980   0.475  10.874
 4508TIP3    H137503   6.943   0.467  10.962
 4508TIP3    H237504   6.982   0.570  10.852
 4509TIP3   OH237505   7.073   0.965   9.469
 4509TIP3    H137506   7.069   0.947   9.372
 4509TIP3    H237507   7.158   1.010   9.472
 4510TIP3   OH237508   6.632   0.358   9.518
 4510TIP3    H137509   6.600   0.349   9.609
 4510TIP3    H237510   6.599   0.272   9.485
 4511TIP3   OH237511   6.211   0.630  10.575
 4511TIP3    H137512   6.138   0.629  10.641
 4511TIP3    H237513   6.206   0.720  10.537
 4512TIP3   OH237514   6.210   0.639  10.063
 4512TIP3    H137515   6.116   0.615  10.049
 4512TIP3    H237516   6.247   0.611   9.976
 4513TIP3   OH237517   6.762   0.692   9.939
 4513TIP3    H137518   6.723   0.774   9.901
 4513TIP3    H237519   6.831   0.673   9.873
 4514TIP3   OH237520   6.865   0.641  10.224
 4514TIP3    H137521   6.836   0.697  10.150
 4514TIP3    H237522   6.874   0.555  10.177
 4515TIP3   OH237523   5.972   0.658  10.746
 4515TIP3    H137524   5.983   0.694  10.836
 4515TIP3    H237525   5.935   0.570  10.765
 4516TIP3   OH237526   6.311   0.397   9.430
 4516TIP3    H137527   6.266   0.351   9.505
 4516TIP3    H237528   6.239   0.437   9.380
 4517TIP3   OH237529   5.643   0.371  10.142
 4517TIP3    H137530   5.710   0.366  10.213
 4517TIP3    H237531   5.686   0.330  10.066
 4518TIP3   OH237532   5.767   0.440   9.680
 4518TIP3    H137533   5.820   0.497   9.620
 4518TIP3    H237534   5.699   0.504   9.709
 4519TIP3   OH237535   6.789   0.796  10.685
 4519TIP3    H137536   6.824   0.730  10.622
 4519TIP3    H237537   6.735   0.742  10.746
 4520TIP3   OH237538   6.466   0.400  10.164
 4520TIP3    H137539   6.372   0.393  10.191
 4520TIP3    H237540   6.514   0.378  10.245
 4521TIP3   OH237541   5.946   0.551  10.050
 4521TIP3    H137542   5.857   0.565  10.009
 4521TIP3    H237543   5.975   0.467  10.009
 4522TIP3   OH237544   6.310   0.557   9.813
 4522TIP3    H137545   6.406   0.566   9.827
 4522TIP3    H237546   6.286   0.624   9.747
 4523TIP3   OH237547   6.908   0.322  10.485
 4523TIP3    H137548   6.838   0.323  10.553
 4523TIP3    H237549   6.860   0.289  10.408
 4524TIP3   OH237550   6.181   0.673   9.571
 4524TIP3    H137551   6.128   0.635   9.499
 4524TIP3    H237552   6.263   0.694   9.523
 4525TIP3   OH237553   6.593   0.672  10.351
 4525TIP3    H137554   6.653   0.619  10.298
 4525TIP3    H237555   6.578   0.616  10.429
 4526TIP3   OH237556   6.092   0.286   9.993
 4526TIP3    H137557   6.062   0.194   9.996
 4526TIP3    H237558   6.171   0.277   9.940
 4527TIP3   OH237559   6.456   0.503  10.593
 4527TIP3    H137560   6.375   0.558  10.598
 4527TIP3    H237561   6.513   0.540  10.663
 4528TIP3   OH237562   6.515   1.126   9.763
 4528TIP3    H137563   6.435   1.080   9.729
 4528TIP3    H237564   6.492   1.140   9.857
 4529TIP3   OH237565   7.237   1.041  10.644
 4529TIP3    H137566   7.292   1.094  10.582
 4529TIP3    H237567   7.150   1.049  10.599
 4530TIP3   OH237568   6.896   0.406   9.581
 4530TIP3    H137569   6.802   0.425   9.565
 4530TIP3    H237570   6.933   0.491   9.615
 4531TIP3   OH237571   6.671   1.154  10.884
 4531TIP3    H137572   6.627   1.110  10.958
 4531TIP3    H237573   6.635   1.245  10.887
 4532TIP3   OH237574   6.972   0.599   9.741
 4532TIP3    H137575   7.059   0.587   9.784
 4532TIP3    H237576   6.983   0.682   9.692
 4533TIP3   OH237577   6.027   1.067  10.343
 4533TIP3    H137578   6.094   1.058  10.273
 4533TIP3    H237579   6.032   0.981  10.389
 4534TIP3   OH237580   6.724   1.273   9.666
 4534TIP3    H137581   6.690   1.358   9.702
 4534TIP3    H237582   6.651   1.211   9.688
 4535TIP3   OH237583   5.723   0.909  10.869
 4535TIP3    H137584   5.743   0.864  10.953
 4535TIP3    H237585   5.664   0.846  10.823
 4536TIP3   OH237586   6.890   1.391  10.886
 4536TIP3    H137587   6.801   1.414  10.855
 4536TIP3    H237588   6.896   1.426  10.975
 4537TIP3   OH237589   7.458   0.616   9.722
 4537TIP3    H137590   7.406   0.585   9.646
 4537TIP3    H237591   7.469   0.710   9.695
 4538TIP3   OH237592   7.287   1.496   9.759
 4538TIP3    H137593   7.254   1.413   9.795
 4538TIP3    H237594   7.323   1.474   9.672
 4539TIP3   OH237595   7.011   0.977  10.472
 4539TIP3    H137596   6.917   0.957  10.459
 4539TIP3    H237597   7.055   0.904  10.426
 4540TIP3   OH237598   6.265   1.412  10.082
 4540TIP3    H137599   6.314   1.493  10.061
 4540TIP3    H237600   6.177   1.434  10.051
 4541TIP3   OH237601   5.841   0.895   9.538
 4541TIP3    H137602   5.898   0.962   9.580
 4541TIP3    H237603   5.751   0.926   9.563
 4542TIP3   OH237604   6.404   1.178  10.031
 4542TIP3    H137605   6.372   1.270  10.042
 4542TIP3    H237606   6.334   1.128  10.077
 4543TIP3   OH237607   6.449   1.599  10.676
 4543TIP3    H137608   6.497   1.678  10.647
 4543TIP3    H237609   6.511   1.558  10.737
 4544TIP3   OH237610   6.272   1.677   9.982
 4544TIP3    H137611   6.177   1.690  10.002
 4544TIP3    H237612   6.310   1.759  10.018
 4545TIP3   OH237613   6.803   1.196  10.632
 4545TIP3    H137614   6.771   1.178  10.723
 4545TIP3    H237615   6.867   1.124  10.619
 4546TIP3   OH237616   7.038   1.305   9.545
 4546TIP3    H137617   7.067   1.257   9.625
 4546TIP3    H237618   6.942   1.286   9.552
 4547TIP3   OH237619   7.060   1.680  10.863
 4547TIP3    H137620   7.014   1.612  10.813
 4547TIP3    H237621   7.101   1.736  10.793
 4548TIP3   OH237622   7.482   1.739   9.570
 4548TIP3    H137623   7.552   1.806   9.552
 4548TIP3    H237624   7.410   1.799   9.600
 4549TIP3   OH237625   5.890   0.385  10.822
 4549TIP3    H137626   5.798   0.415  10.818
 4549TIP3    H237627   5.884   0.299  10.864
 4550TIP3   OH237628   7.114   1.167   9.769
 4550TIP3    H137629   7.090   1.088   9.822
 4550TIP3    H237630   7.209   1.171   9.786
 4551TIP3   OH237631   5.854   1.558  10.665
 4551TIP3    H137632   5.883   1.465  10.667
 4551TIP3    H237633   5.881   1.587  10.754
 4552TIP3   OH237634   6.451   1.411   9.395
 4552TIP3    H137635   6.459   1.335   9.335
 4552TIP3    H237636   6.406   1.367   9.470
 4553TIP3   OH237637   6.321   1.364   9.642
 4553TIP3    H137638   6.357   1.311   9.715
 4553TIP3    H237639   6.339   1.456   9.673
 4554TIP3   OH237640   5.979   1.089   9.684
 4554TIP3    H137641   5.910   1.127   9.743
 4554TIP3    H237642   6.034   1.165   9.660
 4555TIP3   OH237643   6.759   0.355  10.715
 4555TIP3    H137644   6.832   0.358  10.777
 4555TIP3    H237645   6.723   0.266  10.730
 4556TIP3   OH237646   6.847   0.308   9.831
 4556TIP3    H137647   6.860   0.359   9.749
 4556TIP3    H237648   6.894   0.364   9.894
 4557TIP3   OH237649   6.606   1.530   9.708
 4557TIP3    H137650   6.525   1.583   9.717
 4557TIP3    H237651   6.661   1.585   9.651
 4558TIP3   OH237652   6.562   0.488   9.912
 4558TIP3    H137653   6.639   0.548   9.917
 4558TIP3    H237654   6.533   0.477  10.004
 4559TIP3   OH237655   6.629   0.601  10.823
 4559TIP3    H137656   6.622   0.647  10.907
 4559TIP3    H237657   6.675   0.517  10.840
 4560TIP3   OH237658   6.649   0.195  10.004
 4560TIP3    H137659   6.613   0.264  10.063
 4560TIP3    H237660   6.715   0.250   9.955
 4561TIP3   OH237661   6.343   1.633   9.711
 4561TIP3    H137662   6.359   1.715   9.658
 4561TIP3    H237663   6.322   1.670   9.800
 4562TIP3   OH237664   6.209   0.305   9.667
 4562TIP3    H137665   6.205   0.393   9.707
 4562TIP3    H237666   6.300   0.281   9.694
 4563TIP3   OH237667   7.239   0.412  10.864
 4563TIP3    H137668   7.142   0.412  10.869
 4563TIP3    H237669   7.257   0.364  10.780
 4564TIP3   OH237670   7.096   0.757  10.314
 4564TIP3    H137671   7.013   0.712  10.287
 4564TIP3    H237672   7.144   0.688  10.367
 4565TIP3   OH237673   6.033   1.361   9.569
 4565TIP3    H137674   6.110   1.405   9.608
 4565TIP3    H237675   6.084   1.301   9.508
 4566TIP3   OH237676   5.869   0.617   9.489
 4566TIP3    H137677   5.872   0.713   9.510
 4566TIP3    H237678   5.780   0.601   9.457
 4567TIP3   OH237679   7.202   1.683  10.481
 4567TIP3    H137680   7.193   1.752  10.412
 4567TIP3    H237681   7.298   1.690  10.498
 4568TIP3   OH237682   5.938   0.121  10.349
 4568TIP3    H137683   5.921   0.105  10.253
 4568TIP3    H237684   5.917   0.032  10.385
 4569TIP3   OH237685   5.843   1.485   9.974
 4569TIP3    H137686   5.760   1.534   9.974
 4569TIP3    H237687   5.896   1.535   9.911
 4570TIP3   OH237688   6.650   1.596   9.407
 4570TIP3    H137689   6.580   1.530   9.428
 4570TIP3    H237690   6.721   1.536   9.382
 4571TIP3   OH237691   7.105   1.571   9.425
 4571TIP3    H137692   7.134   1.493   9.476
 4571TIP3    H237693   7.182   1.593   9.370
 4572TIP3   OH237694   6.191   1.167   9.408
 4572TIP3    H137695   6.206   1.090   9.465
 4572TIP3    H237696   6.266   1.155   9.346
 4573TIP3   OH237697   6.737   1.276   9.385
 4573TIP3    H137698   6.710   1.283   9.478
 4573TIP3    H237699   6.718   1.180   9.370
 4574TIP3   OH237700   6.996   1.114  10.874
 4574TIP3    H137701   7.077   1.170  10.874
 4574TIP3    H237702   6.929   1.183  10.886
 4575TIP3   OH237703   6.313   0.966   9.651
 4575TIP3    H137704   6.263   0.911   9.713
 4575TIP3    H237705   6.344   0.900   9.585
 4576TIP3   OH237706   6.241   0.764  10.870
 4576TIP3    H137707   6.175   0.828  10.897
 4576TIP3    H237708   6.278   0.797  10.787
 4577TIP3   OH237709   6.421   0.789   9.470
 4577TIP3    H137710   6.407   0.781   9.373
 4577TIP3    H237711   6.519   0.793   9.477
 4578TIP3   OH237712   7.352   1.020   9.411
 4578TIP3    H137713   7.334   0.984   9.323
 4578TIP3    H237714   7.362   1.116   9.393
 4579TIP3   OH237715   6.248   0.530  10.957
 4579TIP3    H137716   6.299   0.458  10.918
 4579TIP3    H237717   6.279   0.606  10.903
 4580TIP3   OH237718   6.319   0.320  10.740
 4580TIP3    H137719   6.371   0.370  10.673
 4580TIP3    H237720   6.231   0.312  10.699
 4581TIP3   OH237721   6.475   0.866  10.761
 4581TIP3    H137722   6.553   0.856  10.704
 4581TIP3    H237723   6.438   0.952  10.734
 4582TIP3   OH237724   6.406   0.080  10.788
 4582TIP3    H137725   6.385   0.176  10.780
 4582TIP3    H237726   6.329   0.039  10.745
 4583TIP3   OH237727   6.404   1.859   9.579
 4583TIP3    H137728   6.501   1.866   9.585
 4583TIP3    H237729   6.390   1.918   9.503
 4584TIP3   OH237730   5.765   1.327   9.521
 4584TIP3    H137731   5.860   1.316   9.543
 4584TIP3    H237732   5.760   1.255   9.452
 4585TIP3   OH237733   5.640   1.852  10.019
 4585TIP3    H137734   5.564   1.805   9.977
 4585TIP3    H237735   5.665   1.790  10.090
 4586TIP3   OH237736   5.720   1.668  10.211
 4586TIP3    H137737   5.684   1.581  10.230
 4586TIP3    H237738   5.743   1.701  10.299
 4587TIP3   OH237739   7.469   1.746  10.505
 4587TIP3    H137740   7.479   1.761  10.600
 4587TIP3    H237741   7.542   1.802  10.472
 4588TIP3   OH237742   7.433   1.709  10.795
 4588TIP3    H137743   7.385   1.633  10.758
 4588TIP3    H237744   7.484   1.666  10.865
 4589TIP3   OH237745   7.408   1.113   9.805
 4589TIP3    H137746   7.494   1.152   9.825
 4589TIP3    H237747   7.405   1.042   9.873
 4590TIP3   OH237748   7.438   0.923   9.993
 4590TIP3    H137749   7.367   0.869  10.036
 4590TIP3    H237750   7.505   0.929  10.066
 4591TIP3   OH237751   7.406   1.194  10.490
 4591TIP3    H137752   7.490   1.150  10.463
 4591TIP3    H237753   7.433   1.287  10.474
 4592TIP3   OH237754   7.272   1.481  10.722
 4592TIP3    H137755   7.204   1.512  10.782
 4592TIP3    H237756   7.221   1.438  10.650
 4593TIP3   OH237757   7.474   0.903   9.633
 4593TIP3    H137758   7.415   0.937   9.563
 4593TIP3    H237759   7.463   0.973   9.700
 4594TIP3   OH237760   7.313   0.625   9.484
 4594TIP3    H137761   7.318   0.692   9.415
 4594TIP3    H237762   7.290   0.543   9.435
 4595TIP3   OH237763   7.227   0.767  10.056
 4595TIP3    H137764   7.211   0.672  10.049
 4595TIP3    H237765   7.193   0.787  10.145
 4596TIP3   OH237766   5.726   0.977  10.458
 4596TIP3    H137767   5.743   0.967  10.362
 4596TIP3    H237768   5.815   0.957  10.494
 4597TIP3   OH237769   7.234   0.375   9.404
 4597TIP3    H137770   7.295   0.329   9.463
 4597TIP3    H237771   7.150   0.328   9.414
 4598TIP3   OH237772   7.190   0.530   9.893
 4598TIP3    H137773   7.220   0.437   9.909
 4598TIP3    H237774   7.273   0.569   9.864
 4599TIP3   OH237775   7.253   0.580  10.441
 4599TIP3    H137776   7.350   0.600  10.437
 4599TIP3    H237777   7.239   0.591  10.536
 4600TIP3   OH237778   7.264   0.657  10.721
 4600TIP3    H137779   7.174   0.682  10.749
 4600TIP3    H237780   7.306   0.743  10.698
 4601TIP3   OH237781   7.253   0.258   9.902
 4601TIP3    H137782   7.279   0.213   9.986
 4601TIP3    H237783   7.198   0.190   9.858
 4602TIP3   OH237784   5.802   0.341  10.361
 4602TIP3    H137785   5.849   0.258  10.382
 4602TIP3    H237786   5.863   0.406  10.398
 4603TIP3   OH237787   5.635   0.634  10.462
 4603TIP3    H137788   5.693   0.609  10.387
 4603TIP3    H237789   5.682   0.714  10.489
 4604TIP3   OH237790   7.443   0.256   9.564
 4604TIP3    H137791   7.479   0.186   9.505
 4604TIP3    H237792   7.511   0.324   9.563
 4605TIP3   OH237793   5.669   0.260   9.874
 4605TIP3    H137794   5.577   0.282   9.854
 4605TIP3    H237795   5.715   0.307   9.801
 4606TIP3   OH237796   7.145   1.755  10.066
 4606TIP3    H137797   7.214   1.726  10.003
 4606TIP3    H237798   7.197   1.806  10.130
 4607TIP3   OH237799   5.675   0.145  10.704
 4607TIP3    H137800   5.607   0.115  10.766
 4607TIP3    H237801   5.624   0.201  10.643
 4608TIP3   OH237802   6.179   1.546  10.740
 4608TIP3    H137803   6.146   1.632  10.712
 4608TIP3    H237804   6.273   1.554  10.715
 4609TIP3   OH237805   6.837   1.828  -0.028
 4609TIP3    H137806   6.907   1.764  -0.050
 4609TIP3    H237807   6.878   1.857   0.055
 4610TIP3   OH237808   7.334   0.100  10.869
 4610TIP3    H137809   7.243   0.118  10.841
 4610TIP3    H237810   7.334   0.004  10.859
 4611TIP3   OH237811   5.922   1.873  10.745
 4611TIP3    H137812   5.847   1.920  10.706
 4611TIP3    H237813   5.889   1.848  10.833
 4612TIP3   OH237814   6.169   1.828  10.643
 4612TIP3    H137815   6.084   1.845  10.690
 4612TIP3    H237816   6.163   1.890  10.569
 4613TIP3   OH237817   6.639   1.819  10.571
 4613TIP3    H137818   6.596   1.873  10.502
 4613TIP3    H237819   6.654   1.883  10.642
 4614TIP3   OH237820   6.869   1.695  10.660
 4614TIP3    H137821   6.783   1.729  10.632
 4614TIP3    H237822   6.916   1.779  10.661
 4615TIP3   OH237823   7.136   1.859  10.690
 4615TIP3    H137824   7.123   1.954  10.667
 4615TIP3    H237825   7.151   1.820  10.602
 4616TIP3   OH237826   5.871   1.736  10.437
 4616TIP3    H137827   5.863   1.691  10.523
 4616TIP3    H237828   5.952   1.696  10.399
 4617TIP3   OH237829   6.078   1.606  10.302
 4617TIP3    H137830   6.061   1.513  10.326
 4617TIP3    H237831   6.163   1.622  10.348
 4618TIP3   OH237832   6.338   1.656  10.388
 4618TIP3    H137833   6.352   1.563  10.363
 4618TIP3    H237834   6.342   1.651  10.485
 4619TIP3   OH237835   6.679   0.226  10.299
 4619TIP3    H137836   6.617   0.158  10.331
 4619TIP3    H237837   6.741   0.171  10.250
 4620TIP3   OH237838   7.199   0.056  10.327
 4620TIP3    H137839   7.259   0.089  10.256
 4620TIP3    H237840   7.111   0.058  10.286
 4621TIP3   OH237841   7.365   0.153  10.134
 4621TIP3    H137842   7.431   0.093  10.097
 4621TIP3    H237843   7.416   0.236  10.149
 4622TIP3   OH237844   5.915   0.080  10.088
 4622TIP3    H137845   5.837   0.065  10.032
 4622TIP3    H237846   5.963  -0.003  10.079
 4623TIP3   OH237847   5.823   0.102   9.674
 4623TIP3    H137848   5.843   0.153   9.594
 4623TIP3    H237849   5.735   0.133   9.702
 4624TIP3   OH237850   6.362   0.087  10.067
 4624TIP3    H137851   6.454   0.114  10.058
 4624TIP3    H237852   6.368   0.054  10.157
 4625TIP3   OH237853   6.937   0.079  10.232
 4625TIP3    H137854   6.933   0.086  10.136
 4625TIP3    H237855   6.904  -0.011  10.244
 4626TIP3   OH237856   7.047   0.092   9.764
 4626TIP3    H137857   6.975   0.154   9.781
 4626TIP3    H237858   7.025   0.014   9.815
 4627TIP3   OH237859   5.785   1.657   9.764
 4627TIP3    H137860   5.702   1.660   9.711
 4627TIP3    H237861   5.784   1.751   9.790
 4628TIP3   OH237862   5.977   0.255   9.508
 4628TIP3    H137863   6.030   0.193   9.456
 4628TIP3    H237864   6.042   0.280   9.576
 4629TIP3   OH237865   6.478   0.280   9.752
 4629TIP3    H137866   6.507   0.220   9.823
 4629TIP3    H237867   6.489   0.365   9.798
 4630TIP3   OH237868   6.676   1.785   9.597
 4630TIP3    H137869   6.768   1.805   9.575
 4630TIP3    H237870   6.654   1.731   9.517
 4631TIP3   OH237871   7.344   1.733   9.870
 4631TIP3    H137872   7.326   1.655   9.813
 4631TIP3    H237873   7.338   1.807   9.805
 4632TIP3   OH237874   5.961   1.738   9.464
 4632TIP3    H137875   5.951   1.795   9.543
 4632TIP3    H237876   6.054   1.704   9.469
 4633TIP3   OH237877   7.845   0.926  10.647
 4633TIP3    H137878   7.851   0.827  10.646
 4633TIP3    H237879   7.926   0.946  10.599
 4634TIP3   OH237880   7.908   1.324  10.441
 4634TIP3    H137881   7.891   1.237  10.399
 4634TIP3    H237882   8.007   1.324  10.438
 4635TIP3   OH237883   7.589   0.689   9.973
 4635TIP3    H137884   7.548   0.777   9.974
 4635TIP3    H237885   7.528   0.635   9.922
 4636TIP3   OH237886   7.651   0.912  10.154
 4636TIP3    H137887   7.675   0.851  10.228
 4636TIP3    H237888   7.740   0.929  10.120
 4637TIP3   OH237889   7.713   0.567  10.261
 4637TIP3    H137890   7.776   0.598  10.331
 4637TIP3    H237891   7.747   0.627  10.193
 4638TIP3   OH237892   7.944   0.306  10.626
 4638TIP3    H137893   7.928   0.369  10.551
 4638TIP3    H237894   7.878   0.337  10.690
 4639TIP3   OH237895   7.903   0.478  10.430
 4639TIP3    H137896   7.957   0.554  10.464
 4639TIP3    H237897   7.957   0.452  10.354
 4640TIP3   OH237898   8.037   1.308  10.738
 4640TIP3    H137899   8.028   1.394  10.696
 4640TIP3    H237900   7.948   1.290  10.775
 4641TIP3   OH237901   7.666   1.234   9.813
 4641TIP3    H137902   7.635   1.266   9.727
 4641TIP3    H237903   7.667   1.317   9.865
 4642TIP3   OH237904   7.893   0.933  10.896
 4642TIP3    H137905   7.899   1.015  10.942
 4642TIP3    H237906   7.819   0.947  10.831
 4643TIP3   OH237907   7.982   0.913   9.863
 4643TIP3    H137908   7.950   0.993   9.819
 4643TIP3    H237909   7.911   0.849   9.853
 4644TIP3   OH237910   7.587   1.152  10.757
 4644TIP3    H137911   7.549   1.143  10.668
 4644TIP3    H237912   7.602   1.058  10.780
 4645TIP3   OH237913   7.569   1.428  10.439
 4645TIP3    H137914   7.664   1.414  10.436
 4645TIP3    H237915   7.563   1.508  10.491
 4646TIP3   OH237916   7.884   1.703  10.057
 4646TIP3    H137917   7.901   1.665  10.146
 4646TIP3    H237918   7.798   1.662  10.037
 4647TIP3   OH237919   7.813   1.285  10.863
 4647TIP3    H137920   7.836   1.241  10.945
 4647TIP3    H237921   7.729   1.243  10.834
 4648TIP3   OH237922   7.865   0.660  10.755
 4648TIP3    H137923   7.861   0.699  10.843
 4648TIP3    H237924   7.826   0.572  10.762
 4649TIP3   OH237925   7.524   0.362  10.142
 4649TIP3    H137926   7.591   0.373  10.212
 4649TIP3    H237927   7.576   0.332  10.066
 4650TIP3   OH237928   7.647   0.440   9.681
 4650TIP3    H137929   7.703   0.497   9.625
 4650TIP3    H237930   7.581   0.505   9.711
 4651TIP3   OH237931   7.837   0.562  10.022
 4651TIP3    H137932   7.740   0.563  10.015
 4651TIP3    H237933   7.858   0.467  10.020
 4652TIP3   OH237934   7.927   0.282   9.977
 4652TIP3    H137935   7.926   0.188  10.004
 4652TIP3    H237936   8.023   0.296   9.972
 4653TIP3   OH237937   7.909   1.070  10.335
 4653TIP3    H137938   7.984   1.058  10.276
 4653TIP3    H237939   7.906   0.984  10.383
 4654TIP3   OH237940   7.606   0.912  10.873
 4654TIP3    H137941   7.631   0.862  10.952
 4654TIP3    H237942   7.552   0.848  10.823
 4655TIP3   OH237943   7.731   0.894   9.537
 4655TIP3    H137944   7.784   0.962   9.583
 4655TIP3    H237945   7.640   0.921   9.562
 4656TIP3   OH237946   7.775   0.382  10.831
 4656TIP3    H137947   7.685   0.413  10.812
 4656TIP3    H237948   7.763   0.291  10.862
 4657TIP3   OH237949   7.747   1.561  10.662
 4657TIP3    H137950   7.758   1.465  10.670
 4657TIP3    H237951   7.763   1.590  10.753
 4658TIP3   OH237952   7.868   1.090   9.684
 4658TIP3    H137953   7.796   1.125   9.740
 4658TIP3    H237954   7.916   1.172   9.665
 4659TIP3   OH237955   7.918   1.351   9.568
 4659TIP3    H137956   7.982   1.412   9.608
 4659TIP3    H237957   7.977   1.305   9.508
 4660TIP3   OH237958   7.758   0.616   9.490
 4660TIP3    H137959   7.759   0.712   9.508
 4660TIP3    H237960   7.667   0.600   9.465
 4661TIP3   OH237961   7.816   0.124  10.347
 4661TIP3    H137962   7.814   0.105  10.251
 4661TIP3    H237963   7.803   0.035  10.385
 4662TIP3   OH237964   7.726   1.487   9.977
 4662TIP3    H137965   7.642   1.535   9.972
 4662TIP3    H237966   7.779   1.532   9.909
 4663TIP3   OH237967   7.647   1.317   9.524
 4663TIP3    H137968   7.743   1.326   9.542
 4663TIP3    H237969   7.651   1.252   9.449
 4664TIP3   OH237970   7.522   1.854  10.021
 4664TIP3    H137971   7.449   1.804   9.976
 4664TIP3    H237972   7.552   1.790  10.088
 4665TIP3   OH237973   7.604   1.667  10.209
 4665TIP3    H137974   7.569   1.579  10.230
 4665TIP3    H237975   7.631   1.699  10.297
 4666TIP3   OH237976   7.602   1.027  10.465
 4666TIP3    H137977   7.612   0.981  10.380
 4666TIP3    H237978   7.678   0.978  10.503
 4667TIP3   OH237979   7.676   0.332  10.374
 4667TIP3    H137980   7.739   0.256  10.379
 4667TIP3    H237981   7.742   0.405  10.387
 4668TIP3   OH237982   7.515   0.634  10.459
 4668TIP3    H137983   7.576   0.605  10.388
 4668TIP3    H237984   7.569   0.711  10.486
 4669TIP3   OH237985   7.553   0.251   9.866
 4669TIP3    H137986   7.462   0.282   9.856
 4669TIP3    H237987   7.600   0.309   9.803
 4670TIP3   OH237988   7.560   0.146  10.705
 4670TIP3    H137989   7.490   0.116  10.765
 4670TIP3    H237990   7.512   0.202  10.640
 4671TIP3   OH237991   7.808   1.874  10.750
 4671TIP3    H137992   7.733   1.918  10.706
 4671TIP3    H237993   7.771   1.849  10.835
 4672TIP3   OH237994   8.035   1.797  10.621
 4672TIP3    H137995   7.969   1.827  10.687
 4672TIP3    H237996   8.050   1.879  10.572
 4673TIP3   OH237997   7.746   1.735  10.440
 4673TIP3    H137998   7.750   1.691  10.527
 4673TIP3    H237999   7.829   1.700  10.400
 4674TIP3   OH238000   7.944   1.607  10.320
 4674TIP3    H138001   7.938   1.510  10.331
 4674TIP3    H238002   8.034   1.618  10.354
 4675TIP3   OH238003   7.793   0.073  10.088
 4675TIP3    H138004   7.717   0.058  10.031
 4675TIP3    H238005   7.851  -0.005  10.080
 4676TIP3   OH238006   7.708   0.102   9.675
 4676TIP3    H138007   7.726   0.155   9.595
 4676TIP3    H238008   7.619   0.132   9.704
 4677TIP3   OH238009   7.676   1.653   9.761
 4677TIP3    H138010   7.605   1.651   9.693
 4677TIP3    H238011   7.676   1.749   9.779
 4678TIP3   OH238012   7.863   0.256   9.506
 4678TIP3    H138013   7.918   0.193   9.456
 4678TIP3    H238014   7.924   0.282   9.577
 4679TIP3   OH238015   7.858   1.761   9.458
 4679TIP3    H138016   7.829   1.780   9.549
 4679TIP3    H238017   7.927   1.695   9.474
 4680TIP3   OH238018   1.173   2.883  10.072
 4680TIP3    H138019   1.168   2.982  10.073
 4680TIP3    H238020   1.099   2.859  10.014
 4681TIP3   OH238021   1.058   2.806  10.424
 4681TIP3    H138022   1.056   2.742  10.496
 4681TIP3    H238023   1.021   2.755  10.349
 4682TIP3   OH238024   0.305   2.767  10.569
 4682TIP3    H138025   0.300   2.707  10.647
 4682TIP3    H238026   0.368   2.833  10.602
 4683TIP3   OH238027   1.427   3.102  10.253
 4683TIP3    H138028   1.382   3.032  10.302
 4683TIP3    H238029   1.425   3.174  10.319
 4684TIP3   OH238030   0.380   3.218  10.428
 4684TIP3    H138031   0.354   3.128  10.399
 4684TIP3    H238032   0.478   3.205  10.433
 4685TIP3   OH238033   0.055   2.577   9.970
 4685TIP3    H138034   0.010   2.664   9.975
 4685TIP3    H238035  -0.011   2.522   9.928
 4686TIP3   OH238036   0.119   2.794  10.192
 4686TIP3    H138037   0.146   2.713  10.239
 4686TIP3    H238038   0.189   2.805  10.126
 4687TIP3   OH238039   1.147   3.625  10.282
 4687TIP3    H138040   1.201   3.550  10.247
 4687TIP3    H238041   1.109   3.579  10.358
 4688TIP3   OH238042   0.891   3.039  10.480
 4688TIP3    H138043   0.928   2.990  10.405
 4688TIP3    H238044   0.975   3.068  10.522
 4689TIP3   OH238045   1.754   2.214  10.546
 4689TIP3    H138046   1.773   2.273  10.621
 4689TIP3    H238047   1.812   2.255  10.480
 4690TIP3   OH238048   1.208   2.494  10.505
 4690TIP3    H138049   1.230   2.399  10.506
 4690TIP3    H238050   1.200   2.508  10.409
 4691TIP3   OH238051   0.524   2.303  10.224
 4691TIP3    H138052   0.532   2.387  10.175
 4691TIP3    H238053   0.484   2.247  10.154
 4692TIP3   OH238054   1.297   2.309  10.061
 4692TIP3    H138055   1.361   2.279  10.129
 4692TIP3    H238056   1.353   2.369  10.010
 4693TIP3   OH238057   0.196   2.545  10.296
 4693TIP3    H138058   0.257   2.485  10.342
 4693TIP3    H238059   0.197   2.511  10.205
 4694TIP3   OH238060   0.700   2.700  10.230
 4694TIP3    H138061   0.768   2.643  10.269
 4694TIP3    H238062   0.649   2.634  10.179
 4695TIP3   OH238063   1.816   2.371  10.770
 4695TIP3    H138064   1.737   2.429  10.758
 4695TIP3    H238065   1.799   2.345  10.861
 4696TIP3   OH238066   0.419   2.192  10.624
 4696TIP3    H138067   0.385   2.253  10.554
 4696TIP3    H238068   0.351   2.210  10.694
 4697TIP3   OH238069   1.145   3.141   9.982
 4697TIP3    H138070   1.115   3.115   9.894
 4697TIP3    H238071   1.112   3.234   9.990
 4698TIP3   OH238072   0.668   2.958  10.657
 4698TIP3    H138073   0.596   3.024  10.673
 4698TIP3    H238074   0.736   3.017  10.620
 4699TIP3   OH238075   1.477   2.246  10.263
 4699TIP3    H138076   1.456   2.169  10.315
 4699TIP3    H238077   1.546   2.289  10.317
 4700TIP3   OH238078   0.373   2.375  10.431
 4700TIP3    H138079   0.432   2.449  10.462
 4700TIP3    H238080   0.425   2.339  10.355
 4701TIP3   OH238081   0.511   3.159  10.733
 4701TIP3    H138082   0.505   3.252  10.703
 4701TIP3    H238083   0.423   3.150  10.778
 4702TIP3   OH238084   0.116   3.120   9.810
 4702TIP3    H138085   0.091   3.154   9.724
 4702TIP3    H238086   0.127   3.200   9.864
 4703TIP3   OH238087   1.480   3.286  10.490
 4703TIP3    H138088   1.382   3.297  10.500
 4703TIP3    H238089   1.506   3.378  10.469
 4704TIP3   OH238090   1.508   2.118  10.632
 4704TIP3    H138091   1.435   2.180  10.617
 4704TIP3    H238092   1.581   2.155  10.577
 4705TIP3   OH238093   0.805   1.930  10.384
 4705TIP3    H138094   0.797   1.834  10.365
 4705TIP3    H238095   0.711   1.952  10.395
 4706TIP3   OH238096   1.308   3.465  10.149
 4706TIP3    H138097   1.346   3.392  10.096
 4706TIP3    H238098   1.349   3.544  10.109
 4707TIP3   OH238099   1.427   3.257  10.000
 4707TIP3    H138100   1.396   3.188   9.940
 4707TIP3    H238101   1.430   3.208  10.084
 4708TIP3   OH238102   1.591   3.114  10.847
 4708TIP3    H138103   1.603   3.055  10.770
 4708TIP3    H238104   1.612   3.202  10.810
 4709TIP3   OH238105   1.037   2.804   9.824
 4709TIP3    H138106   0.968   2.863   9.790
 4709TIP3    H238107   1.109   2.816   9.759
 4710TIP3   OH238108   1.046   2.664   9.526
 4710TIP3    H138109   1.117   2.662   9.593
 4710TIP3    H238110   1.076   2.591   9.470
 4711TIP3   OH238111   1.777   2.746  10.652
 4711TIP3    H138112   1.712   2.819  10.659
 4711TIP3    H238113   1.826   2.772  10.572
 4712TIP3   OH238114   1.384   2.825   9.917
 4712TIP3    H138115   1.310   2.850   9.977
 4712TIP3    H238116   1.432   2.759   9.970
 4713TIP3   OH238117   1.373   2.641  10.827
 4713TIP3    H138118   1.375   2.720  10.884
 4713TIP3    H238119   1.310   2.673  10.759
 4714TIP3   OH238120   0.546   2.893  10.110
 4714TIP3    H138121   0.511   2.853  10.026
 4714TIP3    H238122   0.606   2.823  10.143
 4715TIP3   OH238123   0.659   3.208  10.387
 4715TIP3    H138124   0.676   3.183  10.295
 4715TIP3    H238125   0.752   3.208  10.419
 4716TIP3   OH238126   0.579   2.766  10.475
 4716TIP3    H138127   0.632   2.778  10.394
 4716TIP3    H238128   0.614   2.834  10.537
 4717TIP3   OH238129   1.225   3.323  10.550
 4717TIP3    H138130   1.183   3.391  10.604
 4717TIP3    H238131   1.189   3.240  10.587
 4718TIP3   OH238132   0.685   3.232  10.934
 4718TIP3    H138133   0.637   3.284  11.000
 4718TIP3    H238134   0.610   3.199  10.878
 4719TIP3   OH238135   1.271   2.748   9.683
 4719TIP3    H138136   1.326   2.765   9.764
 4719TIP3    H238137   1.317   2.797   9.612
 4720TIP3   OH238138   0.365   2.823  10.869
 4720TIP3    H138139   0.368   2.895  10.933
 4720TIP3    H238140   0.273   2.833  10.838
 4721TIP3   OH238141   1.052   3.425  10.023
 4721TIP3    H138142   1.075   3.443  10.116
 4721TIP3    H238143   0.983   3.491  10.011
 4722TIP3   OH238144   1.641   1.919   9.674
 4722TIP3    H138145   1.547   1.934   9.700
 4722TIP3    H238146   1.663   2.003   9.631
 4723TIP3   OH238147   0.444   2.794   9.871
 4723TIP3    H138148   0.412   2.872   9.822
 4723TIP3    H238149   0.377   2.728   9.849
 4724TIP3   OH238150   1.754   3.355   9.510
 4724TIP3    H138151   1.772   3.449   9.527
 4724TIP3    H238152   1.846   3.323   9.511
 4725TIP3   OH238153   0.101   2.992  10.731
 4725TIP3    H138154   0.023   3.031  10.688
 4725TIP3    H238155   0.055   2.931  10.791
 4726TIP3   OH238156   0.052   3.336  10.420
 4726TIP3    H138157   0.141   3.302  10.442
 4726TIP3    H238158   0.030   3.389  10.499
 4727TIP3   OH238159   0.934   3.308  10.873
 4727TIP3    H138160   0.943   3.401  10.902
 4727TIP3    H238161   0.846   3.283  10.908
 4728TIP3   OH238162   0.991   3.710   9.870
 4728TIP3    H138163   0.979   3.703   9.774
 4728TIP3    H238164   0.990   3.806   9.887
 4729TIP3   OH238165   0.359   3.595  10.052
 4729TIP3    H138166   0.368   3.558  10.143
 4729TIP3    H238167   0.272   3.556  10.030
 4730TIP3   OH238168   1.295   3.631   9.571
 4730TIP3    H138169   1.340   3.555   9.529
 4730TIP3    H238170   1.299   3.606   9.666
 4731TIP3   OH238171   1.264   3.625   9.850
 4731TIP3    H138172   1.168   3.631   9.867
 4731TIP3    H238173   1.286   3.550   9.908
 4732TIP3   OH238174   0.277   3.172  10.854
 4732TIP3    H138175   0.296   3.132  10.940
 4732TIP3    H238176   0.193   3.131  10.828
 4733TIP3   OH238177   0.550   2.025  10.451
 4733TIP3    H138178   0.461   2.003  10.412
 4733TIP3    H238179   0.521   2.105  10.497
 4734TIP3   OH238180   1.006   1.991  10.786
 4734TIP3    H138181   1.051   1.946  10.861
 4734TIP3    H238182   0.912   1.969  10.808
 4735TIP3   OH238183   1.317   2.365  10.870
 4735TIP3    H138184   1.292   2.352  10.963
 4735TIP3    H238185   1.325   2.462  10.856
 4736TIP3   OH238186   1.415   2.851   9.468
 4736TIP3    H138187   1.412   2.832   9.372
 4736TIP3    H238188   1.501   2.895   9.471
 4737TIP3   OH238189   0.976   2.242   9.517
 4737TIP3    H138190   0.942   2.236   9.609
 4737TIP3    H238191   0.943   2.155   9.486
 4738TIP3   OH238192   0.556   2.515  10.575
 4738TIP3    H138193   0.483   2.516  10.641
 4738TIP3    H238194   0.548   2.606  10.537
 4739TIP3   OH238195   0.554   2.525  10.063
 4739TIP3    H138196   0.459   2.503  10.050
 4739TIP3    H238197   0.589   2.497   9.976
 4740TIP3   OH238198   1.104   2.576   9.940
 4740TIP3    H138199   1.065   2.658   9.902
 4740TIP3    H238200   1.173   2.559   9.873
 4741TIP3   OH238201   1.208   2.526  10.224
 4741TIP3    H138202   1.179   2.582  10.150
 4741TIP3    H238203   1.217   2.441  10.177
 4742TIP3   OH238204   0.315   2.542  10.746
 4742TIP3    H138205   0.323   2.581  10.835
 4742TIP3    H238206   0.274   2.457  10.765
 4743TIP3   OH238207   0.655   2.280   9.429
 4743TIP3    H138208   0.610   2.236   9.504
 4743TIP3    H238209   0.583   2.322   9.380
 4744TIP3   OH238210   0.013   2.281  10.150
 4744TIP3    H138211   0.065   2.246  10.226
 4744TIP3    H238212   0.025   2.215  10.084
 4745TIP3   OH238213   0.113   2.333   9.681
 4745TIP3    H138214   0.164   2.386   9.616
 4745TIP3    H238215   0.043   2.392   9.706
 4746TIP3   OH238216   1.132   2.682  10.686
 4746TIP3    H138217   1.167   2.616  10.623
 4746TIP3    H238218   1.078   2.627  10.746
 4747TIP3   OH238219   0.806   2.279  10.165
 4747TIP3    H138220   0.711   2.283  10.192
 4747TIP3    H238221   0.856   2.266  10.247
 4748TIP3   OH238222   0.293   2.434  10.049
 4748TIP3    H138223   0.204   2.454  10.013
 4748TIP3    H238224   0.314   2.349  10.008
 4749TIP3   OH238225   0.653   2.442   9.813
 4749TIP3    H138226   0.748   2.452   9.828
 4749TIP3    H238227   0.629   2.510   9.747
 4750TIP3   OH238228   1.249   2.202  10.490
 4750TIP3    H138229   1.179   2.212  10.558
 4750TIP3    H238230   1.201   2.180  10.409
 4751TIP3   OH238231   0.523   2.559   9.570
 4751TIP3    H138232   0.470   2.521   9.498
 4751TIP3    H238233   0.606   2.580   9.523
 4752TIP3   OH238234   0.934   2.555  10.350
 4752TIP3    H138235   0.997   2.506  10.298
 4752TIP3    H238236   0.924   2.502  10.430
 4753TIP3   OH238237   0.440   2.172   9.996
 4753TIP3    H138238   0.404   2.081   9.996
 4753TIP3    H238239   0.518   2.163   9.941
 4754TIP3   OH238240   0.795   2.381  10.598
 4754TIP3    H138241   0.719   2.443  10.596
 4754TIP3    H238242   0.856   2.427  10.660
 4755TIP3   OH238243   0.859   3.012   9.763
 4755TIP3    H138244   0.779   2.966   9.729
 4755TIP3    H238245   0.835   3.025   9.857
 4756TIP3   OH238246   1.580   2.926  10.644
 4756TIP3    H138247   1.634   2.980  10.582
 4756TIP3    H238248   1.493   2.934  10.599
 4757TIP3   OH238249   1.242   2.294   9.579
 4757TIP3    H138250   1.146   2.308   9.567
 4757TIP3    H238251   1.276   2.378   9.616
 4758TIP3   OH238252   1.008   3.040  10.878
 4758TIP3    H138253   0.975   2.997  10.958
 4758TIP3    H238254   0.978   3.131  10.889
 4759TIP3   OH238255   1.315   2.486   9.742
 4759TIP3    H138256   1.403   2.472   9.784
 4759TIP3    H238257   1.326   2.568   9.691
 4760TIP3   OH238258   0.368   2.952  10.343
 4760TIP3    H138259   0.436   2.945  10.273
 4760TIP3    H238260   0.376   2.866  10.388
 4761TIP3   OH238261   1.067   3.159   9.666
 4761TIP3    H138262   1.033   3.243   9.701
 4761TIP3    H238263   0.995   3.097   9.689
 4762TIP3   OH238264   0.086   2.768  10.862
 4762TIP3    H138265   0.082   2.749  10.957
 4762TIP3    H238266   0.000   2.735  10.830
 4763TIP3   OH238267   1.234   3.282  10.883
 4763TIP3    H138268   1.143   3.299  10.854
 4763TIP3    H238269   1.238   3.307  10.975
 4764TIP3   OH238270   1.806   2.498   9.720
 4764TIP3    H138271   1.748   2.471   9.646
 4764TIP3    H238272   1.813   2.593   9.697
 4765TIP3   OH238273   1.630   3.382   9.759
 4765TIP3    H138274   1.597   3.298   9.795
 4765TIP3    H238275   1.667   3.359   9.672
 4766TIP3   OH238276   1.356   2.863  10.471
 4766TIP3    H138277   1.262   2.843  10.459
 4766TIP3    H238278   1.398   2.788  10.425
 4767TIP3   OH238279   0.607   3.295  10.078
 4767TIP3    H138280   0.659   3.376  10.066
 4767TIP3    H238281   0.519   3.322  10.049
 4768TIP3   OH238282   0.181   2.780   9.542
 4768TIP3    H138283   0.244   2.844   9.580
 4768TIP3    H238284   0.096   2.815   9.570
 4769TIP3   OH238285   0.746   3.065  10.028
 4769TIP3    H138286   0.718   3.157  10.045
 4769TIP3    H238287   0.678   3.015  10.078
 4770TIP3   OH238288   0.787   3.489  10.685
 4770TIP3    H138289   0.841   3.558  10.642
 4770TIP3    H238290   0.856   3.441  10.733
 4771TIP3   OH238291   0.617   3.563   9.981
 4771TIP3    H138292   0.521   3.574  10.002
 4771TIP3    H238293   0.654   3.644  10.020
 4772TIP3   OH238294   1.149   3.082  10.633
 4772TIP3    H138295   1.112   3.063  10.722
 4772TIP3    H238296   1.210   3.009  10.619
 4773TIP3   OH238297   1.381   3.191   9.545
 4773TIP3    H138298   1.410   3.142   9.625
 4773TIP3    H238299   1.286   3.171   9.552
 4774TIP3   OH238300   1.405   3.565  10.864
 4774TIP3    H138301   1.357   3.498  10.813
 4774TIP3    H238302   1.444   3.621  10.792
 4775TIP3   OH238303   1.826   3.625   9.571
 4775TIP3    H138304   1.894   3.691   9.549
 4775TIP3    H238305   1.754   3.685   9.599
 4776TIP3   OH238306   0.235   2.265  10.821
 4776TIP3    H138307   0.146   2.301  10.820
 4776TIP3    H238308   0.222   2.183  10.870
 4777TIP3   OH238309   1.457   3.053   9.769
 4777TIP3    H138310   1.433   2.974   9.822
 4777TIP3    H238311   1.553   3.056   9.786
 4778TIP3   OH238312   0.197   3.442  10.662
 4778TIP3    H138313   0.226   3.349  10.668
 4778TIP3    H238314   0.220   3.473  10.751
 4779TIP3   OH238315   0.791   3.299   9.392
 4779TIP3    H138316   0.803   3.220   9.336
 4779TIP3    H238317   0.747   3.256   9.469
 4780TIP3   OH238318   0.669   3.249   9.640
 4780TIP3    H138319   0.698   3.198   9.716
 4780TIP3    H238320   0.679   3.342   9.672
 4781TIP3   OH238321   0.324   2.973   9.689
 4781TIP3    H138322   0.252   3.012   9.743
 4781TIP3    H238323   0.372   3.052   9.658
 4782TIP3   OH238324   1.102   2.240  10.716
 4782TIP3    H138325   1.177   2.249  10.777
 4782TIP3    H238326   1.070   2.150  10.737
 4783TIP3   OH238327   1.184   2.196   9.829
 4783TIP3    H138328   1.203   2.246   9.747
 4783TIP3    H238329   1.237   2.246   9.893
 4784TIP3   OH238330   0.950   3.415   9.708
 4784TIP3    H138331   0.868   3.469   9.717
 4784TIP3    H238332   1.004   3.471   9.651
 4785TIP3   OH238333   0.905   2.373   9.911
 4785TIP3    H138334   0.982   2.434   9.916
 4785TIP3    H238335   0.877   2.361  10.004
 4786TIP3   OH238336   0.969   2.483  10.822
 4786TIP3    H138337   0.965   2.533  10.905
 4786TIP3    H238338   1.021   2.403  10.842
 4787TIP3   OH238339   0.989   2.078   9.996
 4787TIP3    H138340   0.956   2.144  10.059
 4787TIP3    H238341   1.058   2.135   9.954
 4788TIP3   OH238342   0.690   3.518   9.712
 4788TIP3    H138343   0.700   3.599   9.656
 4788TIP3    H238344   0.664   3.555   9.799
 4789TIP3   OH238345   0.555   2.193   9.670
 4789TIP3    H138346   0.550   2.282   9.710
 4789TIP3    H238347   0.645   2.167   9.696
 4790TIP3   OH238348   1.582   2.295  10.862
 4790TIP3    H138349   1.485   2.299  10.871
 4790TIP3    H238350   1.597   2.249  10.779
 4791TIP3   OH238351   1.439   2.642  10.314
 4791TIP3    H138352   1.357   2.598  10.288
 4791TIP3    H238353   1.488   2.574  10.367
 4792TIP3   OH238354   0.379   3.235   9.573
 4792TIP3    H138355   0.446   3.296   9.606
 4792TIP3    H238356   0.432   3.187   9.506
 4793TIP3   OH238357   0.211   2.503   9.486
 4793TIP3    H138358   0.212   2.598   9.510
 4793TIP3    H238359   0.122   2.486   9.455
 4794TIP3   OH238360   1.545   3.569  10.481
 4794TIP3    H138361   1.536   3.637  10.412
 4794TIP3    H238362   1.642   3.575  10.498
 4795TIP3   OH238363   0.297   1.983  10.359
 4795TIP3    H138364   0.272   1.981  10.264
 4795TIP3    H238365   0.255   1.898  10.388
 4796TIP3   OH238366   0.191   3.370   9.977
 4796TIP3    H138367   0.107   3.418   9.973
 4796TIP3    H238368   0.239   3.419   9.909
 4797TIP3   OH238369   0.993   3.482   9.407
 4797TIP3    H138370   0.923   3.416   9.429
 4797TIP3    H238371   1.064   3.421   9.382
 4798TIP3   OH238372   1.448   3.455   9.425
 4798TIP3    H138373   1.477   3.378   9.476
 4798TIP3    H238374   1.524   3.477   9.370
 4799TIP3   OH238375   0.536   3.050   9.406
 4799TIP3    H138376   0.550   2.974   9.465
 4799TIP3    H238377   0.612   3.038   9.345
 4800TIP3   OH238378   1.079   3.161   9.385
 4800TIP3    H138379   1.053   3.168   9.478
 4800TIP3    H238380   1.061   3.066   9.370
 4801TIP3   OH238381   1.341   3.000  10.870
 4801TIP3    H138382   1.420   3.057  10.874
 4801TIP3    H238383   1.273   3.066  10.888
 4802TIP3   OH238384   0.657   2.852   9.651
 4802TIP3    H138385   0.605   2.797   9.713
 4802TIP3    H238386   0.688   2.785   9.586
 4803TIP3   OH238387   0.584   2.646  10.869
 4803TIP3    H138388   0.519   2.712  10.897
 4803TIP3    H238389   0.622   2.682  10.787
 4804TIP3   OH238390   0.764   2.674   9.470
 4804TIP3    H138391   0.749   2.666   9.374
 4804TIP3    H238392   0.862   2.679   9.477
 4805TIP3   OH238393   1.696   2.906   9.411
 4805TIP3    H138394   1.678   2.868   9.323
 4805TIP3    H238395   1.706   3.002   9.392
 4806TIP3   OH238396   0.592   2.411  10.955
 4806TIP3    H138397   0.645   2.341  10.916
 4806TIP3    H238398   0.622   2.490  10.905
 4807TIP3   OH238399   0.659   2.211  10.743
 4807TIP3    H138400   0.707   2.273  10.683
 4807TIP3    H238401   0.566   2.214  10.710
 4808TIP3   OH238402   0.819   2.750  10.760
 4808TIP3    H138403   0.896   2.741  10.704
 4808TIP3    H238404   0.782   2.837  10.733
 4809TIP3   OH238405   0.745   1.950  10.780
 4809TIP3    H138406   0.719   2.041  10.806
 4809TIP3    H238407   0.663   1.906  10.749
 4810TIP3   OH238408   0.747   3.745   9.579
 4810TIP3    H138409   0.844   3.752   9.585
 4810TIP3    H238410   0.734   3.804   9.504
 4811TIP3   OH238411   0.106   3.200   9.527
 4811TIP3    H138412   0.203   3.212   9.543
 4811TIP3    H238413   0.111   3.135   9.454
 4812TIP3   OH238414  -0.004   3.750  10.010
 4812TIP3    H138415  -0.085   3.703   9.981
 4812TIP3    H238416   0.015   3.690  10.084
 4813TIP3   OH238417   0.084   3.556  10.202
 4813TIP3    H138418   0.036   3.473  10.218
 4813TIP3    H238419   0.095   3.592  10.292
 4814TIP3   OH238420   1.818   3.631  10.504
 4814TIP3    H138421   1.822   3.647  10.600
 4814TIP3    H238422   1.886   3.691  10.472
 4815TIP3   OH238423   1.776   3.594  10.794
 4815TIP3    H138424   1.728   3.517  10.757
 4815TIP3    H238425   1.825   3.551  10.865
 4816TIP3   OH238426   1.751   2.998   9.806
 4816TIP3    H138427   1.837   3.037   9.825
 4816TIP3    H238428   1.748   2.927   9.873
 4817TIP3   OH238429   1.786   2.806   9.996
 4817TIP3    H138430   1.711   2.757  10.035
 4817TIP3    H238431   1.846   2.818  10.072
 4818TIP3   OH238432   1.763   3.073  10.495
 4818TIP3    H138433   1.843   3.035  10.456
 4818TIP3    H238434   1.775   3.169  10.475
 4819TIP3   OH238435   1.615   3.366  10.722
 4819TIP3    H138436   1.547   3.398  10.783
 4819TIP3    H238437   1.562   3.325  10.650
 4820TIP3   OH238438   1.816   2.788   9.634
 4820TIP3    H138439   1.759   2.821   9.562
 4820TIP3    H238440   1.806   2.859   9.700
 4821TIP3   OH238441   1.655   2.509   9.485
 4821TIP3    H138442   1.662   2.576   9.415
 4821TIP3    H238443   1.635   2.427   9.435
 4822TIP3   OH238444   1.568   2.653  10.053
 4822TIP3    H138445   1.554   2.557  10.048
 4822TIP3    H238446   1.537   2.673  10.143
 4823TIP3   OH238447   0.069   2.857  10.455
 4823TIP3    H138448   0.090   2.852  10.361
 4823TIP3    H238449   0.156   2.847  10.498
 4824TIP3   OH238450   1.579   2.258   9.399
 4824TIP3    H138451   1.638   2.214   9.463
 4824TIP3    H238452   1.493   2.217   9.414
 4825TIP3   OH238453   1.532   2.411   9.893
 4825TIP3    H138454   1.564   2.319   9.910
 4825TIP3    H238455   1.615   2.452   9.864
 4826TIP3   OH238456   1.599   2.465  10.441
 4826TIP3    H138457   1.696   2.488  10.441
 4826TIP3    H238458   1.581   2.479  10.535
 4827TIP3   OH238459   1.606   2.540  10.719
 4827TIP3    H138460   1.517   2.567  10.752
 4827TIP3    H238461   1.649   2.626  10.698
 4828TIP3   OH238462   1.603   2.139   9.902
 4828TIP3    H138463   1.625   2.097   9.988
 4828TIP3    H238464   1.543   2.075   9.859
 4829TIP3   OH238465   0.151   2.220  10.364
 4829TIP3    H138466   0.197   2.138  10.386
 4829TIP3    H238467   0.206   2.289  10.403
 4830TIP3   OH238468   0.003   2.527  10.475
 4830TIP3    H138469   0.046   2.505  10.390
 4830TIP3    H238470   0.034   2.617  10.488
 4831TIP3   OH238471   1.783   2.143   9.559
 4831TIP3    H138472   1.824   2.072   9.504
 4831TIP3    H238473   1.854   2.209   9.564
 4832TIP3   OH238474   0.036   2.128   9.821
 4832TIP3    H138475  -0.057   2.152   9.836
 4832TIP3    H238476   0.073   2.209   9.779
 4833TIP3   OH238477   1.489   3.642  10.065
 4833TIP3    H138478   1.558   3.612  10.003
 4833TIP3    H238479   1.541   3.691  10.130
 4834TIP3   OH238480   0.028   2.030  10.716
 4834TIP3    H138481  -0.045   1.991  10.765
 4834TIP3    H238482  -0.026   2.086  10.656
 4835TIP3   OH238483   0.519   3.431  10.741
 4835TIP3    H138484   0.487   3.517  10.709
 4835TIP3    H238485   0.614   3.439  10.714
 4836TIP3   OH238486   1.181   3.713  -0.028
 4836TIP3    H138487   1.252   3.650  -0.050
 4836TIP3    H238488   1.222   3.742   0.056
 4837TIP3   OH238489   1.690   1.965  10.866
 4837TIP3    H138490   1.600   1.989  10.837
 4837TIP3    H238491   1.702   1.877  10.824
 4838TIP3   OH238492   0.267   3.760  10.745
 4838TIP3    H138493   0.191   3.803  10.703
 4838TIP3    H238494   0.232   3.736  10.832
 4839TIP3   OH238495   0.514   3.718  10.647
 4839TIP3    H138496   0.427   3.730  10.691
 4839TIP3    H238497   0.506   3.775  10.569
 4840TIP3   OH238498   0.982   3.704  10.571
 4840TIP3    H138499   0.939   3.757  10.502
 4840TIP3    H238500   0.995   3.769  10.642
 4841TIP3   OH238501   1.212   3.581  10.664
 4841TIP3    H138502   1.126   3.612  10.630
 4841TIP3    H238503   1.258   3.666  10.659
 4842TIP3   OH238504   1.480   3.745  10.690
 4842TIP3    H138505   1.466   3.840  10.667
 4842TIP3    H238506   1.494   3.705  10.602
 4843TIP3   OH238507   0.217   3.625  10.435
 4843TIP3    H138508   0.205   3.578  10.521
 4843TIP3    H238509   0.295   3.582  10.396
 4844TIP3   OH238510   0.416   3.490  10.301
 4844TIP3    H138511   0.406   3.396  10.326
 4844TIP3    H238512   0.504   3.508  10.346
 4845TIP3   OH238513   0.657   3.538  10.396
 4845TIP3    H138514   0.708   3.461  10.361
 4845TIP3    H238515   0.690   3.536  10.486
 4846TIP3   OH238516   1.024   2.105  10.304
 4846TIP3    H138517   0.959   2.038  10.329
 4846TIP3    H238518   1.082   2.054  10.246
 4847TIP3   OH238519   1.540   1.909  10.309
 4847TIP3    H138520   1.601   1.968  10.258
 4847TIP3    H238521   1.451   1.946  10.286
 4848TIP3   OH238522   1.705   2.036  10.136
 4848TIP3    H138523   1.774   1.978  10.096
 4848TIP3    H238524   1.757   2.119  10.149
 4849TIP3   OH238525   0.268   1.967  10.086
 4849TIP3    H138526   0.187   1.948  10.035
 4849TIP3    H238527   0.312   1.880  10.082
 4850TIP3   OH238528   0.140   1.940   9.659
 4850TIP3    H138529   0.190   2.006   9.607
 4850TIP3    H238530   0.089   1.999   9.719
 4851TIP3   OH238531   0.709   1.962  10.068
 4851TIP3    H138532   0.799   1.997  10.057
 4851TIP3    H238533   0.707   1.937  10.160
 4852TIP3   OH238534   1.283   1.963  10.231
 4852TIP3    H138535   1.278   1.975  10.136
 4852TIP3    H238536   1.245   1.872  10.243
 4853TIP3   OH238537   1.408   1.965   9.794
 4853TIP3    H138538   1.334   2.027   9.785
 4853TIP3    H238539   1.367   1.882   9.827
 4854TIP3   OH238540   0.130   3.544   9.765
 4854TIP3    H138541   0.071   3.541   9.689
 4854TIP3    H238542   0.130   3.640   9.780
 4855TIP3   OH238543   0.325   2.137   9.513
 4855TIP3    H138544   0.378   2.076   9.458
 4855TIP3    H238545   0.394   2.168   9.575
 4856TIP3   OH238546   0.827   2.159   9.752
 4856TIP3    H138547   0.850   2.105   9.829
 4856TIP3    H238548   0.834   2.247   9.795
 4857TIP3   OH238549   1.019   3.671   9.596
 4857TIP3    H138550   1.111   3.691   9.575
 4857TIP3    H238551   0.997   3.617   9.517
 4858TIP3   OH238552   1.688   3.619   9.869
 4858TIP3    H138553   1.669   3.540   9.813
 4858TIP3    H238554   1.681   3.692   9.805
 4859TIP3   OH238555   0.309   3.631   9.455
 4859TIP3    H138556   0.286   3.663   9.544
 4859TIP3    H238557   0.390   3.581   9.474
 4860TIP3   OH238558   3.058   2.882  10.072
 4860TIP3    H138559   3.055   2.980  10.072
 4860TIP3    H238560   2.984   2.859  10.014
 4861TIP3   OH238561   2.942   2.806  10.424
 4861TIP3    H138562   2.942   2.741  10.495
 4861TIP3    H238563   2.907   2.757  10.348
 4862TIP3   OH238564   2.179   2.775  10.578
 4862TIP3    H138565   2.187   2.706  10.647
 4862TIP3    H238566   2.253   2.832  10.601
 4863TIP3   OH238567   3.311   3.103  10.253
 4863TIP3    H138568   3.270   3.032  10.302
 4863TIP3    H238569   3.313   3.173  10.320
 4864TIP3   OH238570   2.270   3.220  10.427
 4864TIP3    H138571   2.240   3.132  10.397
 4864TIP3    H238572   2.366   3.202  10.436
 4865TIP3   OH238573   1.934   2.575   9.979
 4865TIP3    H138574   1.891   2.662   9.972
 4865TIP3    H238575   1.878   2.521   9.921
 4866TIP3   OH238576   2.006   2.798  10.195
 4866TIP3    H138577   2.034   2.715  10.238
 4866TIP3    H238578   2.074   2.809  10.127
 4867TIP3   OH238579   3.023   3.618  10.278
 4867TIP3    H138580   3.088   3.550  10.247
 4867TIP3    H238581   3.003   3.583  10.365
 4868TIP3   OH238582   2.779   3.047  10.475
 4868TIP3    H138583   2.813   2.986  10.408
 4868TIP3    H238584   2.862   3.064  10.524
 4869TIP3   OH238585   3.635   2.216  10.544
 4869TIP3    H138586   3.660   2.271  10.621
 4869TIP3    H238587   3.700   2.255  10.482
 4870TIP3   OH238588   3.092   2.493  10.507
 4870TIP3    H138589   3.115   2.398  10.506
 4870TIP3    H238590   3.085   2.508  10.411
 4871TIP3   OH238591   2.408   2.303  10.224
 4871TIP3    H138592   2.420   2.386  10.174
 4871TIP3    H238593   2.369   2.246  10.155
 4872TIP3   OH238594   3.183   2.310  10.061
 4872TIP3    H138595   3.246   2.279  10.130
 4872TIP3    H238596   3.241   2.369  10.010
 4873TIP3   OH238597   2.070   2.545  10.297
 4873TIP3    H138598   2.137   2.491  10.343
 4873TIP3    H238599   2.082   2.513  10.206
 4874TIP3   OH238600   2.586   2.700  10.232
 4874TIP3    H138601   2.654   2.641  10.271
 4874TIP3    H238602   2.536   2.635  10.179
 4875TIP3   OH238603   3.696   2.369  10.770
 4875TIP3    H138604   3.621   2.431  10.759
 4875TIP3    H238605   3.687   2.346  10.863
 4876TIP3   OH238606   2.301   2.191  10.624
 4876TIP3    H138607   2.272   2.252  10.553
 4876TIP3    H238608   2.235   2.214  10.694
 4877TIP3   OH238609   3.027   3.140   9.983
 4877TIP3    H138610   3.002   3.114   9.893
 4877TIP3    H238611   2.997   3.234   9.988
 4878TIP3   OH238612   2.551   2.958  10.656
 4878TIP3    H138613   2.480   3.023  10.674
 4878TIP3    H238614   2.620   3.017  10.622
 4879TIP3   OH238615   3.362   2.246  10.263
 4879TIP3    H138616   3.342   2.168  10.316
 4879TIP3    H238617   3.433   2.289  10.316
 4880TIP3   OH238618   2.255   2.379  10.429
 4880TIP3    H138619   2.318   2.447  10.462
 4880TIP3    H238620   2.308   2.338  10.356
 4881TIP3   OH238621   2.397   3.159  10.734
 4881TIP3    H138622   2.390   3.252  10.705
 4881TIP3    H238623   2.310   3.150  10.779
 4882TIP3   OH238624   2.004   3.118   9.812
 4882TIP3    H138625   1.979   3.154   9.725
 4882TIP3    H238626   2.012   3.200   9.865
 4883TIP3   OH238627   3.364   3.287  10.490
 4883TIP3    H138628   3.267   3.297  10.500
 4883TIP3    H238629   3.391   3.378  10.469
 4884TIP3   OH238630   3.394   2.119  10.632
 4884TIP3    H138631   3.321   2.181  10.616
 4884TIP3    H238632   3.468   2.156  10.579
 4885TIP3   OH238633   2.692   1.927  10.373
 4885TIP3    H138634   2.677   1.830  10.367
 4885TIP3    H238635   2.605   1.957  10.407
 4886TIP3   OH238636   3.190   3.465  10.147
 4886TIP3    H138637   3.233   3.392  10.097
 4886TIP3    H238638   3.236   3.543  10.109
 4887TIP3   OH238639   3.312   3.257  10.000
 4887TIP3    H138640   3.281   3.188   9.940
 4887TIP3    H238641   3.315   3.208  10.084
 4888TIP3   OH238642   3.476   3.114  10.847
 4888TIP3    H138643   3.489   3.055  10.770
 4888TIP3    H238644   3.498   3.202  10.810
 4889TIP3   OH238645   2.923   2.805   9.825
 4889TIP3    H138646   2.854   2.864   9.789
 4889TIP3    H238647   2.994   2.815   9.759
 4890TIP3   OH238648   2.932   2.664   9.526
 4890TIP3    H138649   3.002   2.662   9.593
 4890TIP3    H238650   2.962   2.591   9.470
 4891TIP3   OH238651   3.662   2.748  10.653
 4891TIP3    H138652   3.597   2.821  10.658
 4891TIP3    H238653   3.712   2.770  10.572
 4892TIP3   OH238654   3.267   2.826   9.917
 4892TIP3    H138655   3.193   2.851   9.977
 4892TIP3    H238656   3.315   2.760   9.970
 4893TIP3   OH238657   3.255   2.640  10.831
 4893TIP3    H138658   3.263   2.721  10.882
 4893TIP3    H238659   3.199   2.674  10.758
 4894TIP3   OH238660   2.429   2.893  10.109
 4894TIP3    H138661   2.397   2.853  10.024
 4894TIP3    H238662   2.490   2.823  10.143
 4895TIP3   OH238663   2.560   3.229  10.377
 4895TIP3    H138664   2.561   3.178  10.295
 4895TIP3    H238665   2.640   3.195  10.422
 4896TIP3   OH238666   2.463   2.767  10.477
 4896TIP3    H138667   2.516   2.777  10.395
 4896TIP3    H238668   2.502   2.833  10.538
 4897TIP3   OH238669   3.105   3.324  10.547
 4897TIP3    H138670   3.074   3.391  10.609
 4897TIP3    H238671   3.077   3.240  10.590
 4898TIP3   OH238672   2.570   3.231  10.935
 4898TIP3    H138673   2.522   3.284  11.001
 4898TIP3    H238674   2.495   3.199  10.879
 4899TIP3   OH238675   3.156   2.748   9.683
 4899TIP3    H138676   3.210   2.765   9.764
 4899TIP3    H238677   3.202   2.797   9.611
 4900TIP3   OH238678   2.251   2.826  10.866
 4900TIP3    H138679   2.256   2.893  10.936
 4900TIP3    H238680   2.158   2.834  10.838
 4901TIP3   OH238681   2.927   3.419  10.032
 4901TIP3    H138682   2.970   3.450  10.112
 4901TIP3    H238683   2.872   3.494  10.007
 4902TIP3   OH238684   3.529   1.920   9.676
 4902TIP3    H138685   3.433   1.929   9.698
 4902TIP3    H238686   3.548   2.004   9.631
 4903TIP3   OH238687   2.325   2.794   9.873
 4903TIP3    H138688   2.297   2.872   9.821
 4903TIP3    H238689   2.260   2.727   9.847
 4904TIP3   OH238690   3.640   3.355   9.510
 4904TIP3    H138691   3.657   3.449   9.527
 4904TIP3    H238692   3.732   3.323   9.510
 4905TIP3   OH238693   1.938   3.038  10.754
 4905TIP3    H138694   1.889   3.030  10.670
 4905TIP3    H238695   1.940   2.944  10.783
 4906TIP3   OH238696   1.912   3.312  10.438
 4906TIP3    H138697   2.007   3.299  10.437
 4906TIP3    H238698   1.904   3.392  10.492
 4907TIP3   OH238699   2.818   3.309  10.870
 4907TIP3    H138700   2.829   3.400  10.904
 4907TIP3    H238701   2.732   3.282  10.910
 4908TIP3   OH238702   2.876   3.710   9.872
 4908TIP3    H138703   2.864   3.702   9.776
 4908TIP3    H238704   2.875   3.806   9.889
 4909TIP3   OH238705   2.239   3.598  10.056
 4909TIP3    H138706   2.254   3.557  10.143
 4909TIP3    H238707   2.154   3.557  10.032
 4910TIP3   OH238708   3.181   3.631   9.571
 4910TIP3    H138709   3.227   3.556   9.528
 4910TIP3    H238710   3.185   3.606   9.665
 4911TIP3   OH238711   3.150   3.625   9.849
 4911TIP3    H138712   3.054   3.633   9.865
 4911TIP3    H238713   3.173   3.550   9.906
 4912TIP3   OH238714   2.163   3.167  10.852
 4912TIP3    H138715   2.184   3.131  10.940
 4912TIP3    H238716   2.074   3.131  10.832
 4913TIP3   OH238717   2.432   2.019  10.446
 4913TIP3    H138718   2.341   2.004  10.413
 4913TIP3    H238719   2.419   2.099  10.500
 4914TIP3   OH238720   2.894   1.995  10.791
 4914TIP3    H138721   2.934   1.943  10.862
 4914TIP3    H238722   2.798   1.972  10.801
 4915TIP3   OH238723   3.198   2.366  10.869
 4915TIP3    H138724   3.184   2.351  10.964
 4915TIP3    H238725   3.216   2.462  10.856
 4916TIP3   OH238726   3.301   2.850   9.469
 4916TIP3    H138727   3.297   2.832   9.372
 4916TIP3    H238728   3.387   2.895   9.471
 4917TIP3   OH238729   2.860   2.243   9.517
 4917TIP3    H138730   2.828   2.236   9.609
 4917TIP3    H238731   2.829   2.155   9.486
 4918TIP3   OH238732   2.439   2.515  10.575
 4918TIP3    H138733   2.367   2.514  10.641
 4918TIP3    H238734   2.434   2.606  10.537
 4919TIP3   OH238735   2.438   2.524  10.062
 4919TIP3    H138736   2.344   2.501  10.049
 4919TIP3    H238737   2.475   2.497   9.976
 4920TIP3   OH238738   2.990   2.577   9.940
 4920TIP3    H138739   2.951   2.659   9.902
 4920TIP3    H238740   3.058   2.559   9.873
 4921TIP3   OH238741   3.094   2.526  10.224
 4921TIP3    H138742   3.064   2.582  10.150
 4921TIP3    H238743   3.102   2.441  10.177
 4922TIP3   OH238744   2.200   2.541  10.747
 4922TIP3    H138745   2.211   2.579  10.836
 4922TIP3    H238746   2.164   2.454  10.765
 4923TIP3   OH238747   2.540   2.278   9.429
 4923TIP3    H138748   2.495   2.237   9.504
 4923TIP3    H238749   2.470   2.323   9.380
 4924TIP3   OH238750   1.870   2.249  10.143
 4924TIP3    H138751   1.939   2.244  10.213
 4924TIP3    H238752   1.915   2.213  10.064
 4925TIP3   OH238753   1.996   2.321   9.677
 4925TIP3    H138754   2.048   2.381   9.621
 4925TIP3    H238755   1.928   2.384   9.708
 4926TIP3   OH238756   3.018   2.682  10.687
 4926TIP3    H138757   3.053   2.618  10.620
 4926TIP3    H238758   2.963   2.626  10.742
 4927TIP3   OH238759   2.692   2.283  10.164
 4927TIP3    H138760   2.599   2.282  10.192
 4927TIP3    H238761   2.741   2.264  10.246
 4928TIP3   OH238762   2.174   2.436  10.050
 4928TIP3    H138763   2.086   2.452  10.010
 4928TIP3    H238764   2.203   2.352  10.009
 4929TIP3   OH238765   2.538   2.442   9.813
 4929TIP3    H138766   2.634   2.452   9.827
 4929TIP3    H238767   2.514   2.510   9.747
 4930TIP3   OH238768   3.135   2.205  10.490
 4930TIP3    H138769   3.063   2.211  10.556
 4930TIP3    H238770   3.086   2.179  10.410
 4931TIP3   OH238771   2.410   2.559   9.571
 4931TIP3    H138772   2.356   2.521   9.499
 4931TIP3    H238773   2.491   2.580   9.523
 4932TIP3   OH238774   2.821   2.557  10.351
 4932TIP3    H138775   2.881   2.504  10.297
 4932TIP3    H238776   2.807   2.501  10.428
 4933TIP3   OH238777   2.322   2.172   9.995
 4933TIP3    H138778   2.291   2.079   9.996
 4933TIP3    H238779   2.402   2.164   9.940
 4934TIP3   OH238780   2.684   2.388  10.592
 4934TIP3    H138781   2.602   2.441  10.596
 4934TIP3    H238782   2.741   2.426  10.661
 4935TIP3   OH238783   2.744   3.011   9.763
 4935TIP3    H138784   2.664   2.966   9.729
 4935TIP3    H238785   2.721   3.025   9.857
 4936TIP3   OH238786   3.466   2.927  10.645
 4936TIP3    H138787   3.520   2.980  10.582
 4936TIP3    H238788   3.379   2.934  10.599
 4937TIP3   OH238789   3.126   2.293   9.581
 4937TIP3    H138790   3.031   2.309   9.567
 4937TIP3    H238791   3.161   2.378   9.616
 4938TIP3   OH238792   2.894   3.039  10.879
 4938TIP3    H138793   2.860   2.999  10.960
 4938TIP3    H238794   2.864   3.131  10.888
 4939TIP3   OH238795   3.200   2.486   9.741
 4939TIP3    H138796   3.288   2.473   9.784
 4939TIP3    H238797   3.211   2.569   9.691
 4940TIP3   OH238798   2.256   2.953  10.343
 4940TIP3    H138799   2.322   2.943  10.272
 4940TIP3    H238800   2.261   2.866  10.388
 4941TIP3   OH238801   2.953   3.159   9.666
 4941TIP3    H138802   2.919   3.243   9.701
 4941TIP3    H238803   2.880   3.097   9.688
 4942TIP3   OH238804   1.952   2.795  10.868
 4942TIP3    H138805   1.971   2.751  10.952
 4942TIP3    H238806   1.893   2.731  10.823
 4943TIP3   OH238807   3.120   3.282  10.883
 4943TIP3    H138808   3.029   3.299  10.856
 4943TIP3    H238809   3.125   3.307  10.975
 4944TIP3   OH238810   3.695   2.500   9.720
 4944TIP3    H138811   3.635   2.470   9.649
 4944TIP3    H238812   3.696   2.595   9.694
 4945TIP3   OH238813   3.515   3.382   9.759
 4945TIP3    H138814   3.483   3.298   9.795
 4945TIP3    H238815   3.552   3.359   9.672
 4946TIP3   OH238816   3.242   2.863  10.471
 4946TIP3    H138817   3.148   2.844  10.458
 4946TIP3    H238818   3.284   2.788  10.425
 4947TIP3   OH238819   2.493   3.298  10.082
 4947TIP3    H138820   2.542   3.378  10.061
 4947TIP3    H238821   2.405   3.320  10.048
 4948TIP3   OH238822   2.070   2.781   9.539
 4948TIP3    H138823   2.127   2.847   9.580
 4948TIP3    H238824   1.980   2.812   9.563
 4949TIP3   OH238825   2.633   3.064  10.031
 4949TIP3    H138826   2.601   3.155  10.042
 4949TIP3    H238827   2.563   3.013  10.077
 4950TIP3   OH238828   2.677   3.485  10.676
 4950TIP3    H138829   2.727   3.563  10.647
 4950TIP3    H238830   2.740   3.443  10.737
 4951TIP3   OH238831   2.502   3.562   9.985
 4951TIP3    H138832   2.406   3.577   9.999
 4951TIP3    H238833   2.539   3.646  10.019
 4952TIP3   OH238834   3.032   3.082  10.632
 4952TIP3    H138835   2.999   3.063  10.722
 4952TIP3    H238836   3.096   3.011  10.619
 4953TIP3   OH238837   3.267   3.190   9.545
 4953TIP3    H138838   3.296   3.142   9.625
 4953TIP3    H238839   3.171   3.171   9.552
 4954TIP3   OH238840   3.290   3.566  10.863
 4954TIP3    H138841   3.243   3.498  10.814
 4954TIP3    H238842   3.330   3.621  10.793
 4955TIP3   OH238843   3.712   3.624   9.571
 4955TIP3    H138844   3.780   3.691   9.549
 4955TIP3    H238845   3.640   3.685   9.599
 4956TIP3   OH238846   2.121   2.269  10.822
 4956TIP3    H138847   2.028   2.301  10.818
 4956TIP3    H238848   2.114   2.184  10.867
 4957TIP3   OH238849   3.343   3.052   9.769
 4957TIP3    H138850   3.319   2.974   9.823
 4957TIP3    H238851   3.438   3.056   9.786
 4958TIP3   OH238852   2.083   3.444  10.665
 4958TIP3    H138853   2.111   3.351  10.667
 4958TIP3    H238854   2.110   3.472  10.754
 4959TIP3   OH238855   2.679   3.297   9.395
 4959TIP3    H138856   2.688   3.221   9.335
 4959TIP3    H238857   2.633   3.254   9.470
 4960TIP3   OH238858   2.554   3.249   9.640
 4960TIP3    H138859   2.583   3.198   9.717
 4960TIP3    H238860   2.565   3.342   9.673
 4961TIP3   OH238861   2.210   2.974   9.689
 4961TIP3    H138862   2.138   3.014   9.741
 4961TIP3    H238863   2.260   3.052   9.658
 4962TIP3   OH238864   2.985   2.245  10.724
 4962TIP3    H138865   3.066   2.243  10.775
 4962TIP3    H238866   2.953   2.152  10.732
 4963TIP3   OH238867   3.066   2.199   9.829
 4963TIP3    H138868   3.090   2.244   9.746
 4963TIP3    H238869   3.124   2.243   9.892
 4964TIP3   OH238870   2.836   3.415   9.709
 4964TIP3    H138871   2.754   3.468   9.717
 4964TIP3    H238872   2.890   3.471   9.651
 4965TIP3   OH238873   2.790   2.374   9.911
 4965TIP3    H138874   2.867   2.433   9.916
 4965TIP3    H238875   2.763   2.361  10.004
 4966TIP3   OH238876   2.847   2.479  10.805
 4966TIP3    H138877   2.855   2.548  10.870
 4966TIP3    H238878   2.909   2.403  10.814
 4967TIP3   OH238879   2.874   2.080   9.998
 4967TIP3    H138880   2.842   2.145  10.061
 4967TIP3    H238881   2.944   2.134   9.954
 4968TIP3   OH238882   2.577   3.518   9.713
 4968TIP3    H138883   2.585   3.600   9.657
 4968TIP3    H238884   2.548   3.555   9.799
 4969TIP3   OH238885   2.440   2.191   9.670
 4969TIP3    H138886   2.435   2.281   9.709
 4969TIP3    H238887   2.531   2.166   9.696
 4970TIP3   OH238888   3.465   2.293  10.863
 4970TIP3    H138889   3.368   2.297  10.869
 4970TIP3    H238890   3.485   2.250  10.779
 4971TIP3   OH238891   3.322   2.644  10.317
 4971TIP3    H138892   3.242   2.597  10.288
 4971TIP3    H238893   3.373   2.575  10.366
 4972TIP3   OH238894   2.263   3.235   9.574
 4972TIP3    H138895   2.331   3.296   9.606
 4972TIP3    H238896   2.316   3.188   9.506
 4973TIP3   OH238897   2.098   2.502   9.486
 4973TIP3    H138898   2.101   2.597   9.510
 4973TIP3    H238899   2.008   2.486   9.458
 4974TIP3   OH238900   3.431   3.569  10.481
 4974TIP3    H138901   3.422   3.637  10.412
 4974TIP3    H238902   3.527   3.575  10.498
 4975TIP3   OH238903   2.178   1.981  10.364
 4975TIP3    H138904   2.161   1.982  10.267
 4975TIP3    H238905   2.139   1.895  10.388
 4976TIP3   OH238906   2.075   3.373   9.979
 4976TIP3    H138907   1.990   3.417   9.972
 4976TIP3    H238908   2.122   3.418   9.907
 4977TIP3   OH238909   2.878   3.482   9.407
 4977TIP3    H138910   2.808   3.416   9.428
 4977TIP3    H238911   2.950   3.422   9.382
 4978TIP3   OH238912   3.333   3.456   9.426
 4978TIP3    H138913   3.363   3.378   9.476
 4978TIP3    H238914   3.410   3.477   9.370
 4979TIP3   OH238915   2.422   3.050   9.406
 4979TIP3    H138916   2.436   2.974   9.465
 4979TIP3    H238917   2.497   3.038   9.345
 4980TIP3   OH238918   2.965   3.161   9.385
 4980TIP3    H138919   2.938   3.168   9.478
 4980TIP3    H238920   2.947   3.066   9.370
 4981TIP3   OH238921   3.226   2.999  10.870
 4981TIP3    H138922   3.306   3.056  10.874
 4981TIP3    H238923   3.158   3.066  10.888
 4982TIP3   OH238924   2.542   2.852   9.651
 4982TIP3    H138925   2.491   2.797   9.713
 4982TIP3    H238926   2.573   2.785   9.586
 4983TIP3   OH238927   2.474   2.649  10.870
 4983TIP3    H138928   2.404   2.711  10.897
 4983TIP3    H238929   2.504   2.683  10.785
 4984TIP3   OH238930   2.650   2.674   9.470
 4984TIP3    H138931   2.635   2.666   9.373
 4984TIP3    H238932   2.748   2.679   9.477
 4985TIP3   OH238933   3.581   2.906   9.411
 4985TIP3    H138934   3.564   2.868   9.323
 4985TIP3    H238935   3.592   3.002   9.392
 4986TIP3   OH238936   2.489   2.415  10.960
 4986TIP3    H138937   2.525   2.339  10.911
 4986TIP3    H238938   2.506   2.490  10.899
 4987TIP3   OH238939   2.548   2.209  10.742
 4987TIP3    H138940   2.599   2.254  10.670
 4987TIP3    H238941   2.461   2.197  10.700
 4988TIP3   OH238942   2.710   2.751  10.764
 4988TIP3    H138943   2.781   2.743  10.701
 4988TIP3    H238944   2.667   2.835  10.735
 4989TIP3   OH238945   2.630   1.951  10.779
 4989TIP3    H138946   2.610   2.047  10.777
 4989TIP3    H238947   2.554   1.915  10.732
 4990TIP3   OH238948   2.633   3.745   9.579
 4990TIP3    H138949   2.729   3.752   9.585
 4990TIP3    H238950   2.619   3.803   9.503
 4991TIP3   OH238951   1.987   3.200   9.525
 4991TIP3    H138952   2.084   3.210   9.543
 4991TIP3    H238953   1.992   3.137   9.450
 4992TIP3   OH238954   1.866   3.739  10.021
 4992TIP3    H138955   1.794   3.691   9.976
 4992TIP3    H238956   1.894   3.675  10.088
 4993TIP3   OH238957   1.948   3.554  10.210
 4993TIP3    H138958   1.913   3.466  10.230
 4993TIP3    H238959   1.972   3.587  10.298
 4994TIP3   OH238960   3.703   3.631  10.504
 4994TIP3    H138961   3.708   3.647  10.600
 4994TIP3    H238962   3.772   3.691  10.472
 4995TIP3   OH238963   3.662   3.594  10.794
 4995TIP3    H138964   3.613   3.517  10.757
 4995TIP3    H238965   3.711   3.551  10.865
 4996TIP3   OH238966   3.638   2.996   9.804
 4996TIP3    H138967   3.722   3.039   9.825
 4996TIP3    H238968   3.633   2.928   9.874
 4997TIP3   OH238969   3.672   2.809   9.996
 4997TIP3    H138970   3.595   2.760  10.033
 4997TIP3    H238971   3.729   2.820  10.075
 4998TIP3   OH238972   3.647   3.073  10.494
 4998TIP3    H138973   3.728   3.035  10.457
 4998TIP3    H238974   3.661   3.168  10.474
 4999TIP3   OH238975   3.501   3.366  10.722
 4999TIP3    H138976   3.433   3.398  10.783
 4999TIP3    H238977   3.448   3.325  10.650
 5000TIP3   OH238978   3.702   2.788   9.636
 5000TIP3    H138979   3.646   2.820   9.562
 5000TIP3    H238980   3.690   2.861   9.700
 5001TIP3   OH238981   3.540   2.510   9.485
 5001TIP3    H138982   3.547   2.576   9.415
 5001TIP3    H238983   3.521   2.428   9.436
 5002TIP3   OH238984   3.456   2.652  10.054
 5002TIP3    H138985   3.438   2.557  10.048
 5002TIP3    H238986   3.422   2.673  10.142
 5003TIP3   OH238987   1.955   2.863  10.459
 5003TIP3    H138988   1.972   2.853  10.362
 5003TIP3    H238989   2.044   2.842  10.494
 5004TIP3   OH238990   3.464   2.258   9.399
 5004TIP3    H138991   3.523   2.213   9.463
 5004TIP3    H238992   3.378   2.217   9.414
 5005TIP3   OH238993   3.416   2.410   9.894
 5005TIP3    H138994   3.450   2.319   9.910
 5005TIP3    H238995   3.497   2.452   9.862
 5006TIP3   OH238996   3.482   2.466  10.441
 5006TIP3    H138997   3.580   2.487  10.439
 5006TIP3    H238998   3.468   2.478  10.536
 5007TIP3   OH238999   3.492   2.540  10.721
 5007TIP3    H139000   3.403   2.567  10.752
 5007TIP3    H239001   3.536   2.625  10.697
 5008TIP3   OH239002   3.489   2.140   9.902
 5008TIP3    H139003   3.510   2.098   9.988
 5008TIP3    H239004   3.429   2.076   9.859
 5009TIP3   OH239005   2.035   2.220  10.360
 5009TIP3    H139006   2.082   2.137  10.384
 5009TIP3    H239007   2.092   2.289  10.397
 5010TIP3   OH239008   1.864   2.519  10.461
 5010TIP3    H139009   1.921   2.494  10.386
 5010TIP3    H239010   1.911   2.599  10.489
 5011TIP3   OH239011   3.669   2.143   9.558
 5011TIP3    H139012   3.710   2.072   9.504
 5011TIP3    H239013   3.740   2.209   9.563
 5012TIP3   OH239014   1.900   2.148   9.871
 5012TIP3    H139015   1.806   2.164   9.854
 5012TIP3    H239016   1.942   2.196   9.797
 5013TIP3   OH239017   3.375   3.642  10.065
 5013TIP3    H139018   3.443   3.612  10.003
 5013TIP3    H239019   3.426   3.691  10.131
 5014TIP3   OH239020   1.897   2.016  10.699
 5014TIP3    H139021   1.829   1.993  10.766
 5014TIP3    H239022   1.849   2.081  10.645
 5015TIP3   OH239023   2.407   3.431  10.740
 5015TIP3    H139024   2.375   3.518  10.712
 5015TIP3    H239025   2.502   3.440  10.715
 5016TIP3   OH239026   3.066   3.712  -0.028
 5016TIP3    H139027   3.137   3.649  -0.050
 5016TIP3    H239028   3.107   3.741   0.056
 5017TIP3   OH239029   3.575   1.964  10.867
 5017TIP3    H139030   3.485   1.988  10.837
 5017TIP3    H239031   3.587   1.877  10.824
 5018TIP3   OH239032   2.150   3.759  10.745
 5018TIP3    H139033   2.076   3.806  10.706
 5018TIP3    H239034   2.118   3.734  10.833
 5019TIP3   OH239035   2.398   3.713  10.643
 5019TIP3    H139036   2.313   3.730  10.690
 5019TIP3    H239037   2.392   3.776  10.569
 5020TIP3   OH239038   2.869   3.704  10.570
 5020TIP3    H139039   2.824   3.760  10.503
 5020TIP3    H239040   2.882   3.768  10.642
 5021TIP3   OH239041   3.098   3.581  10.660
 5021TIP3    H139042   3.012   3.615  10.632
 5021TIP3    H239043   3.145   3.665  10.661
 5022TIP3   OH239044   3.368   3.746  10.691
 5022TIP3    H139045   3.351   3.840  10.667
 5022TIP3    H239046   3.380   3.706  10.603
 5023TIP3   OH239047   2.100   3.621  10.437
 5023TIP3    H139048   2.092   3.576  10.523
 5023TIP3    H239049   2.181   3.581  10.399
 5024TIP3   OH239050   2.306   3.492  10.302
 5024TIP3    H139051   2.290   3.398  10.326
 5024TIP3    H239052   2.392   3.508  10.348
 5025TIP3   OH239053   2.568   3.541  10.388
 5025TIP3    H139054   2.581   3.448  10.364
 5025TIP3    H239055   2.572   3.536  10.485
 5026TIP3   OH239056   2.912   2.105  10.305
 5026TIP3    H139057   2.844   2.042  10.332
 5026TIP3    H239058   2.966   2.052  10.246
 5027TIP3   OH239059   3.425   1.911  10.311
 5027TIP3    H139060   3.486   1.968  10.258
 5027TIP3    H239061   3.337   1.945  10.286
 5028TIP3   OH239062   3.592   2.034  10.140
 5028TIP3    H139063   3.660   1.978  10.096
 5028TIP3    H239064   3.643   2.118  10.150
 5029TIP3   OH239065   2.150   1.967  10.088
 5029TIP3    H139066   2.070   1.949  10.036
 5029TIP3    H239067   2.195   1.881  10.083
 5030TIP3   OH239068   2.025   1.943   9.660
 5030TIP3    H139069   2.075   2.008   9.607
 5030TIP3    H239070   1.970   2.000   9.714
 5031TIP3   OH239071   2.595   1.960  10.067
 5031TIP3    H139072   2.685   1.996  10.058
 5031TIP3    H239073   2.593   1.939  10.161
 5032TIP3   OH239074   3.169   1.962  10.229
 5032TIP3    H139075   3.161   1.974  10.134
 5032TIP3    H239076   3.130   1.872  10.242
 5033TIP3   OH239077   3.294   1.965   9.798
 5033TIP3    H139078   3.219   2.024   9.783
 5033TIP3    H239079   3.250   1.880   9.823
 5034TIP3   OH239080   2.016   3.538   9.765
 5034TIP3    H139081   1.951   3.536   9.692
 5034TIP3    H239082   2.017   3.633   9.781
 5035TIP3   OH239083   2.208   2.137   9.512
 5035TIP3    H139084   2.261   2.076   9.459
 5035TIP3    H239085   2.274   2.170   9.575
 5036TIP3   OH239086   2.710   2.161   9.752
 5036TIP3    H139087   2.736   2.104   9.826
 5036TIP3    H239088   2.719   2.248   9.797
 5037TIP3   OH239089   2.905   3.670   9.597
 5037TIP3    H139090   2.997   3.691   9.575
 5037TIP3    H239091   2.882   3.617   9.517
 5038TIP3   OH239092   3.573   3.619   9.870
 5038TIP3    H139093   3.555   3.540   9.813
 5038TIP3    H239094   3.567   3.692   9.805
 5039TIP3   OH239095   2.196   3.637   9.458
 5039TIP3    H139096   2.170   3.663   9.548
 5039TIP3    H239097   2.274   3.580   9.473
 5040TIP3   OH239098   4.944   2.882  10.072
 5040TIP3    H139099   4.941   2.980  10.072
 5040TIP3    H239100   4.870   2.859  10.014
 5041TIP3   OH239101   4.822   2.809  10.425
 5041TIP3    H139102   4.831   2.742  10.495
 5041TIP3    H239103   4.796   2.754  10.349
 5042TIP3   OH239104   4.069   2.774  10.574
 5042TIP3    H139105   4.070   2.705  10.645
 5042TIP3    H239106   4.138   2.831  10.607
 5043TIP3   OH239107   5.196   3.102  10.253
 5043TIP3    H139108   5.155   3.030  10.303
 5043TIP3    H239109   5.200   3.173  10.320
 5044TIP3   OH239110   4.155   3.219  10.430
 5044TIP3    H139111   4.124   3.133  10.396
 5044TIP3    H239112   4.251   3.207  10.435
 5045TIP3   OH239113   3.787   2.572   9.983
 5045TIP3    H139114   3.749   2.662   9.969
 5045TIP3    H239115   3.743   2.521   9.913
 5046TIP3   OH239116   3.892   2.795  10.189
 5046TIP3    H139117   3.919   2.716  10.241
 5046TIP3    H239118   3.965   2.817  10.132
 5047TIP3   OH239119   4.908   3.618  10.278
 5047TIP3    H139120   4.973   3.550  10.247
 5047TIP3    H239121   4.889   3.583  10.365
 5048TIP3   OH239122   4.660   3.041  10.475
 5048TIP3    H139123   4.703   2.986  10.407
 5048TIP3    H239124   4.743   3.065  10.523
 5049TIP3   OH239125   5.525   2.214  10.546
 5049TIP3    H139126   5.543   2.273  10.621
 5049TIP3    H239127   5.583   2.255  10.480
 5050TIP3   OH239128   4.979   2.494  10.505
 5050TIP3    H139129   4.999   2.399  10.506
 5050TIP3    H239130   4.971   2.508  10.409
 5051TIP3   OH239131   4.310   2.295  10.213
 5051TIP3    H139132   4.303   2.385  10.178
 5051TIP3    H239133   4.254   2.242  10.154
 5052TIP3   OH239134   5.067   2.314  10.064
 5052TIP3    H139135   5.132   2.277  10.128
 5052TIP3    H239136   5.125   2.370  10.010
 5053TIP3   OH239137   3.955   2.552  10.293
 5053TIP3    H139138   4.017   2.497  10.349
 5053TIP3    H239139   3.966   2.502  10.213
 5054TIP3   OH239140   4.467   2.701  10.236
 5054TIP3    H139141   4.540   2.643  10.267
 5054TIP3    H239142   4.422   2.635  10.179
 5055TIP3   OH239143   5.587   2.371  10.770
 5055TIP3    H139144   5.508   2.430  10.758
 5055TIP3    H239145   5.570   2.345  10.861
 5056TIP3   OH239146   4.207   2.180  10.630
 5056TIP3    H139147   4.168   2.235  10.560
 5056TIP3    H239148   4.135   2.201  10.691
 5057TIP3   OH239149   4.913   3.140   9.983
 5057TIP3    H139150   4.889   3.114   9.893
 5057TIP3    H239151   4.883   3.234   9.988
 5058TIP3   OH239152   4.436   2.960  10.654
 5058TIP3    H139153   4.368   3.023  10.689
 5058TIP3    H239154   4.512   3.020  10.638
 5059TIP3   OH239155   5.250   2.245  10.261
 5059TIP3    H139156   5.227   2.169  10.315
 5059TIP3    H239157   5.317   2.289  10.317
 5060TIP3   OH239158   4.158   2.413  10.388
 5060TIP3    H139159   4.209   2.444  10.464
 5060TIP3    H239160   4.206   2.335  10.356
 5061TIP3   OH239161   4.282   3.157  10.726
 5061TIP3    H139162   4.276   3.253  10.707
 5061TIP3    H239163   4.198   3.149  10.779
 5062TIP3   OH239164   3.890   3.115   9.813
 5062TIP3    H139165   3.865   3.152   9.726
 5062TIP3    H239166   3.897   3.198   9.864
 5063TIP3   OH239167   5.250   3.287  10.490
 5063TIP3    H139168   5.153   3.297  10.500
 5063TIP3    H239169   5.276   3.378  10.469
 5064TIP3   OH239170   5.280   2.118  10.632
 5064TIP3    H139171   5.207   2.180  10.616
 5064TIP3    H239172   5.352   2.155  10.577
 5065TIP3   OH239173   4.578   1.927  10.373
 5065TIP3    H139174   4.563   1.830  10.367
 5065TIP3    H239175   4.491   1.957  10.406
 5066TIP3   OH239176   5.076   3.465  10.147
 5066TIP3    H139177   5.118   3.392  10.097
 5066TIP3    H239178   5.121   3.543  10.109
 5067TIP3   OH239179   5.198   3.257  10.000
 5067TIP3    H139180   5.167   3.188   9.940
 5067TIP3    H239181   5.201   3.208  10.084
 5068TIP3   OH239182   5.361   3.114  10.847
 5068TIP3    H139183   5.375   3.055  10.770
 5068TIP3    H239184   5.383   3.201  10.810
 5069TIP3   OH239185   4.806   2.804   9.825
 5069TIP3    H139186   4.738   2.864   9.789
 5069TIP3    H239187   4.879   2.815   9.760
 5070TIP3   OH239188   4.817   2.664   9.526
 5070TIP3    H139189   4.888   2.662   9.593
 5070TIP3    H239190   4.847   2.591   9.470
 5071TIP3   OH239191   5.548   2.746  10.651
 5071TIP3    H139192   5.483   2.819  10.659
 5071TIP3    H239193   5.597   2.772  10.571
 5072TIP3   OH239194   5.155   2.826   9.917
 5072TIP3    H139195   5.081   2.850   9.977
 5072TIP3    H239196   5.202   2.759   9.971
 5073TIP3   OH239197   5.144   2.641  10.828
 5073TIP3    H139198   5.146   2.720  10.883
 5073TIP3    H239199   5.081   2.673  10.759
 5074TIP3   OH239200   4.313   2.891  10.115
 5074TIP3    H139201   4.284   2.856  10.027
 5074TIP3    H239202   4.378   2.822  10.141
 5075TIP3   OH239203   4.440   3.211  10.383
 5075TIP3    H139204   4.451   3.189  10.289
 5075TIP3    H239205   4.531   3.203  10.418
 5076TIP3   OH239206   4.345   2.758  10.474
 5076TIP3    H139207   4.404   2.755  10.395
 5076TIP3    H239208   4.390   2.800  10.549
 5077TIP3   OH239209   4.990   3.324  10.548
 5077TIP3    H139210   4.960   3.391  10.609
 5077TIP3    H239211   4.962   3.239  10.590
 5078TIP3   OH239212   4.454   3.232  10.934
 5078TIP3    H139213   4.409   3.286  11.000
 5078TIP3    H239214   4.378   3.200  10.882
 5079TIP3   OH239215   5.042   2.748   9.684
 5079TIP3    H139216   5.097   2.765   9.764
 5079TIP3    H239217   5.088   2.797   9.612
 5080TIP3   OH239218   4.138   2.831  10.860
 5080TIP3    H139219   4.140   2.892  10.936
 5080TIP3    H239220   4.043   2.831  10.839
 5081TIP3   OH239221   4.812   3.418  10.033
 5081TIP3    H139222   4.855   3.450  10.113
 5081TIP3    H239223   4.757   3.494  10.007
 5082TIP3   OH239224   5.416   1.917   9.675
 5082TIP3    H139225   5.321   1.928   9.699
 5082TIP3    H239226   5.435   2.002   9.631
 5083TIP3   OH239227   4.201   2.795   9.882
 5083TIP3    H139228   4.188   2.874   9.823
 5083TIP3    H239229   4.153   2.729   9.833
 5084TIP3   OH239230   5.525   3.355   9.510
 5084TIP3    H139231   5.543   3.449   9.527
 5084TIP3    H239232   5.617   3.323   9.511
 5085TIP3   OH239233   3.823   3.038  10.755
 5085TIP3    H139234   3.775   3.031  10.671
 5085TIP3    H239235   3.826   2.945  10.783
 5086TIP3   OH239236   3.797   3.312  10.438
 5086TIP3    H139237   3.893   3.300  10.436
 5086TIP3    H239238   3.789   3.392  10.492
 5087TIP3   OH239239   4.704   3.310  10.870
 5087TIP3    H139240   4.715   3.400  10.904
 5087TIP3    H239241   4.618   3.282  10.910
 5088TIP3   OH239242   4.761   3.709   9.872
 5088TIP3    H139243   4.749   3.702   9.776
 5088TIP3    H239244   4.761   3.806   9.889
 5089TIP3   OH239245   4.124   3.598  10.055
 5089TIP3    H139246   4.139   3.557  10.143
 5089TIP3    H239247   4.040   3.557  10.032
 5090TIP3   OH239248   5.066   3.631   9.571
 5090TIP3    H139249   5.112   3.556   9.528
 5090TIP3    H239250   5.070   3.606   9.665
 5091TIP3   OH239251   5.036   3.625   9.849
 5091TIP3    H139252   4.940   3.633   9.865
 5091TIP3    H239253   5.058   3.550   9.906
 5092TIP3   OH239254   4.051   3.164  10.849
 5092TIP3    H139255   4.071   3.132  10.938
 5092TIP3    H239256   3.959   3.132  10.832
 5093TIP3   OH239257   4.320   2.018  10.442
 5093TIP3    H139258   4.227   2.004  10.412
 5093TIP3    H239259   4.305   2.095  10.501
 5094TIP3   OH239260   4.780   1.991  10.788
 5094TIP3    H139261   4.819   1.944  10.863
 5094TIP3    H239262   4.684   1.974  10.802
 5095TIP3   OH239263   5.089   2.365  10.870
 5095TIP3    H139264   5.063   2.352  10.963
 5095TIP3    H239265   5.096   2.462  10.856
 5096TIP3   OH239266   5.186   2.851   9.468
 5096TIP3    H139267   5.183   2.831   9.372
 5096TIP3    H239268   5.272   2.895   9.471
 5097TIP3   OH239269   4.745   2.243   9.517
 5097TIP3    H139270   4.713   2.236   9.608
 5097TIP3    H239271   4.715   2.155   9.486
 5098TIP3   OH239272   4.326   2.512  10.582
 5098TIP3    H139273   4.248   2.508  10.640
 5098TIP3    H239274   4.316   2.598  10.536
 5099TIP3   OH239275   4.320   2.536  10.057
 5099TIP3    H139276   4.233   2.493  10.052
 5099TIP3    H239277   4.364   2.497   9.978
 5100TIP3   OH239278   4.876   2.577   9.940
 5100TIP3    H139279   4.837   2.659   9.902
 5100TIP3    H239280   4.944   2.559   9.873
 5101TIP3   OH239281   4.980   2.526  10.224
 5101TIP3    H139282   4.950   2.582  10.150
 5101TIP3    H239283   4.989   2.441  10.177
 5102TIP3   OH239284   4.091   2.548  10.750
 5102TIP3    H139285   4.094   2.577  10.842
 5102TIP3    H239286   4.048   2.460  10.755
 5103TIP3   OH239287   4.427   2.278   9.428
 5103TIP3    H139288   4.381   2.237   9.504
 5103TIP3    H239289   4.356   2.323   9.380
 5104TIP3   OH239290   3.757   2.255  10.139
 5104TIP3    H139291   3.822   2.243  10.213
 5104TIP3    H239292   3.800   2.208  10.065
 5105TIP3   OH239293   3.887   2.326   9.684
 5105TIP3    H139294   3.933   2.379   9.616
 5105TIP3    H239295   3.811   2.385   9.703
 5106TIP3   OH239296   4.903   2.682  10.686
 5106TIP3    H139297   4.938   2.616  10.623
 5106TIP3    H239298   4.849   2.627  10.746
 5107TIP3   OH239299   4.581   2.283  10.164
 5107TIP3    H139300   4.486   2.281  10.190
 5107TIP3    H239301   4.627   2.264  10.246
 5108TIP3   OH239302   4.066   2.424  10.045
 5108TIP3    H139303   3.971   2.412  10.029
 5108TIP3    H239304   4.098   2.335  10.016
 5109TIP3   OH239305   4.422   2.444   9.814
 5109TIP3    H139306   4.519   2.450   9.827
 5109TIP3    H239307   4.403   2.509   9.744
 5110TIP3   OH239308   5.021   2.204  10.488
 5110TIP3    H139309   4.950   2.211  10.556
 5110TIP3    H239310   4.971   2.179  10.409
 5111TIP3   OH239311   4.293   2.560   9.571
 5111TIP3    H139312   4.242   2.521   9.498
 5111TIP3    H239313   4.376   2.580   9.524
 5112TIP3   OH239314   4.705   2.559  10.352
 5112TIP3    H139315   4.766   2.507  10.298
 5112TIP3    H239316   4.694   2.501  10.429
 5113TIP3   OH239317   4.205   2.172   9.991
 5113TIP3    H139318   4.178   2.078   9.995
 5113TIP3    H239319   4.288   2.163   9.942
 5114TIP3   OH239320   4.571   2.390  10.591
 5114TIP3    H139321   4.487   2.439  10.600
 5114TIP3    H239322   4.626   2.425  10.663
 5115TIP3   OH239323   4.630   3.012   9.763
 5115TIP3    H139324   4.550   2.966   9.729
 5115TIP3    H239325   4.607   3.025   9.857
 5116TIP3   OH239326   5.352   2.927  10.644
 5116TIP3    H139327   5.405   2.980  10.582
 5116TIP3    H239328   5.265   2.934  10.599
 5117TIP3   OH239329   5.012   2.296   9.578
 5117TIP3    H139330   4.917   2.310   9.567
 5117TIP3    H239331   5.046   2.379   9.616
 5118TIP3   OH239332   4.773   3.039  10.874
 5118TIP3    H139333   4.747   2.997  10.957
 5118TIP3    H239334   4.751   3.132  10.890
 5119TIP3   OH239335   5.086   2.487   9.742
 5119TIP3    H139336   5.174   2.473   9.784
 5119TIP3    H239337   5.098   2.569   9.691
 5120TIP3   OH239338   4.158   2.951  10.351
 5120TIP3    H139339   4.200   2.938  10.264
 5120TIP3    H239340   4.140   2.862  10.386
 5121TIP3   OH239341   4.838   3.158   9.666
 5121TIP3    H139342   4.804   3.243   9.701
 5121TIP3    H239343   4.765   3.097   9.688
 5122TIP3   OH239344   3.834   2.796  10.871
 5122TIP3    H139345   3.858   2.749  10.952
 5122TIP3    H239346   3.780   2.730  10.823
 5123TIP3   OH239347   5.005   3.282  10.883
 5123TIP3    H139348   4.914   3.299  10.856
 5123TIP3    H239349   5.010   3.307  10.975
 5124TIP3   OH239350   5.577   2.498   9.720
 5124TIP3    H139351   5.519   2.471   9.646
 5124TIP3    H239352   5.584   2.593   9.697
 5125TIP3   OH239353   5.401   3.382   9.759
 5125TIP3    H139354   5.369   3.298   9.795
 5125TIP3    H239355   5.438   3.359   9.672
 5126TIP3   OH239356   5.127   2.863  10.472
 5126TIP3    H139357   5.033   2.843  10.459
 5126TIP3    H239358   5.169   2.788  10.425
 5127TIP3   OH239359   4.378   3.298  10.086
 5127TIP3    H139360   4.428   3.378  10.060
 5127TIP3    H239361   4.291   3.320  10.047
 5128TIP3   OH239362   3.957   2.777   9.546
 5128TIP3    H139363   4.013   2.850   9.577
 5128TIP3    H239364   3.866   2.813   9.559
 5129TIP3   OH239365   4.520   3.064  10.036
 5129TIP3    H139366   4.488   3.156  10.039
 5129TIP3    H239367   4.445   3.014  10.074
 5130TIP3   OH239368   4.563   3.482  10.674
 5130TIP3    H139369   4.612   3.562  10.647
 5130TIP3    H239370   4.625   3.443  10.737
 5131TIP3   OH239371   4.388   3.562   9.985
 5131TIP3    H139372   4.291   3.577   9.999
 5131TIP3    H239373   4.424   3.645  10.019
 5132TIP3   OH239374   4.913   3.079  10.630
 5132TIP3    H139375   4.886   3.064  10.723
 5132TIP3    H239376   4.981   3.010  10.618
 5133TIP3   OH239377   5.152   3.191   9.545
 5133TIP3    H139378   5.181   3.142   9.625
 5133TIP3    H239379   5.057   3.171   9.552
 5134TIP3   OH239380   5.175   3.566  10.863
 5134TIP3    H139381   5.128   3.498  10.813
 5134TIP3    H239382   5.216   3.621  10.793
 5135TIP3   OH239383   5.597   3.625   9.571
 5135TIP3    H139384   5.665   3.691   9.549
 5135TIP3    H239385   5.526   3.685   9.599
 5136TIP3   OH239386   3.999   2.268  10.876
 5136TIP3    H139387   3.930   2.300  10.814
 5136TIP3    H239388   3.996   2.173  10.865
 5137TIP3   OH239389   5.228   3.053   9.769
 5137TIP3    H139390   5.204   2.974   9.822
 5137TIP3    H239391   5.324   3.057   9.786
 5138TIP3   OH239392   3.968   3.446  10.667
 5138TIP3    H139393   3.996   3.352  10.669
 5138TIP3    H239394   3.997   3.475  10.755
 5139TIP3   OH239395   4.565   3.297   9.395
 5139TIP3    H139396   4.574   3.221   9.336
 5139TIP3    H239397   4.518   3.254   9.471
 5140TIP3   OH239398   4.440   3.249   9.640
 5140TIP3    H139399   4.469   3.198   9.717
 5140TIP3    H239400   4.450   3.342   9.673
 5141TIP3   OH239401   4.097   2.973   9.693
 5141TIP3    H139402   4.023   3.016   9.740
 5141TIP3    H239403   4.145   3.050   9.657
 5142TIP3   OH239404   4.876   2.241  10.716
 5142TIP3    H139405   4.947   2.246  10.780
 5142TIP3    H239406   4.837   2.153  10.734
 5143TIP3   OH239407   4.951   2.199   9.829
 5143TIP3    H139408   4.975   2.245   9.746
 5143TIP3    H239409   5.010   2.243   9.892
 5144TIP3   OH239410   4.721   3.415   9.709
 5144TIP3    H139411   4.639   3.468   9.717
 5144TIP3    H239412   4.775   3.471   9.651
 5145TIP3   OH239413   4.676   2.374   9.911
 5145TIP3    H139414   4.753   2.433   9.916
 5145TIP3    H239415   4.648   2.360  10.004
 5146TIP3   OH239416   4.741   2.485  10.824
 5146TIP3    H139417   4.740   2.534  10.907
 5146TIP3    H239418   4.790   2.402  10.839
 5147TIP3   OH239419   4.761   2.079   9.998
 5147TIP3    H139420   4.727   2.145  10.061
 5147TIP3    H239421   4.831   2.134   9.954
 5148TIP3   OH239422   4.462   3.518   9.713
 5148TIP3    H139423   4.471   3.600   9.657
 5148TIP3    H239424   4.434   3.555   9.799
 5149TIP3   OH239425   4.326   2.190   9.669
 5149TIP3    H139426   4.322   2.280   9.707
 5149TIP3    H239427   4.417   2.165   9.696
 5150TIP3   OH239428   5.353   2.294  10.862
 5150TIP3    H139429   5.256   2.299  10.871
 5150TIP3    H239430   5.369   2.249  10.779
 5151TIP3   OH239431   5.211   2.642  10.314
 5151TIP3    H139432   5.128   2.597  10.287
 5151TIP3    H239433   5.259   2.574  10.366
 5152TIP3   OH239434   4.149   3.235   9.573
 5152TIP3    H139435   4.216   3.296   9.606
 5152TIP3    H239436   4.201   3.188   9.505
 5153TIP3   OH239437   3.981   2.503   9.492
 5153TIP3    H139438   3.985   2.599   9.507
 5153TIP3    H239439   3.894   2.486   9.454
 5154TIP3   OH239440   5.317   3.569  10.481
 5154TIP3    H139441   5.307   3.637  10.412
 5154TIP3    H239442   5.413   3.575  10.498
 5155TIP3   OH239443   4.069   1.975  10.363
 5155TIP3    H139444   4.046   1.984  10.268
 5155TIP3    H239445   4.023   1.893  10.387
 5156TIP3   OH239446   3.961   3.373   9.979
 5156TIP3    H139447   3.875   3.417   9.972
 5156TIP3    H239448   4.008   3.418   9.907
 5157TIP3   OH239449   4.764   3.482   9.407
 5157TIP3    H139450   4.694   3.416   9.428
 5157TIP3    H239451   4.835   3.421   9.382
 5158TIP3   OH239452   5.219   3.456   9.425
 5158TIP3    H139453   5.248   3.378   9.476
 5158TIP3    H239454   5.295   3.477   9.370
 5159TIP3   OH239455   4.308   3.050   9.406
 5159TIP3    H139456   4.322   2.975   9.466
 5159TIP3    H239457   4.383   3.038   9.346
 5160TIP3   OH239458   4.851   3.161   9.385
 5160TIP3    H139459   4.824   3.168   9.478
 5160TIP3    H239460   4.832   3.066   9.370
 5161TIP3   OH239461   5.111   2.999  10.869
 5161TIP3    H139462   5.191   3.056  10.874
 5161TIP3    H239463   5.044   3.067  10.889
 5162TIP3   OH239464   4.427   2.852   9.651
 5162TIP3    H139465   4.378   2.797   9.712
 5162TIP3    H239466   4.458   2.786   9.585
 5163TIP3   OH239467   4.362   2.654  10.877
 5163TIP3    H139468   4.288   2.713  10.897
 5163TIP3    H239469   4.389   2.678  10.787
 5164TIP3   OH239470   4.536   2.675   9.469
 5164TIP3    H139471   4.522   2.665   9.372
 5164TIP3    H239472   4.634   2.679   9.477
 5165TIP3   OH239473   5.467   2.906   9.411
 5165TIP3    H139474   5.449   2.868   9.323
 5165TIP3    H239475   5.477   3.002   9.392
 5166TIP3   OH239476   4.372   2.415  10.959
 5166TIP3    H139477   4.412   2.340  10.913
 5166TIP3    H239478   4.392   2.489  10.899
 5167TIP3   OH239479   4.442   2.207  10.743
 5167TIP3    H139480   4.488   2.256  10.671
 5167TIP3    H239481   4.352   2.199  10.703
 5168TIP3   OH239482   4.588   2.749  10.756
 5168TIP3    H139483   4.670   2.740  10.707
 5168TIP3    H239484   4.558   2.839  10.737
 5169TIP3   OH239485   4.516   1.951  10.781
 5169TIP3    H139486   4.498   2.048  10.779
 5169TIP3    H239487   4.440   1.917  10.732
 5170TIP3   OH239488   4.518   3.745   9.579
 5170TIP3    H139489   4.615   3.752   9.585
 5170TIP3    H239490   4.504   3.803   9.503
 5171TIP3   OH239491   3.873   3.200   9.525
 5171TIP3    H139492   3.969   3.210   9.542
 5171TIP3    H239493   3.878   3.137   9.449
 5172TIP3   OH239494   3.752   3.739  10.021
 5172TIP3    H139495   3.680   3.691   9.976
 5172TIP3    H239496   3.780   3.675  10.088
 5173TIP3   OH239497   3.834   3.554  10.210
 5173TIP3    H139498   3.799   3.466  10.230
 5173TIP3    H239499   3.857   3.587  10.298
 5174TIP3   OH239500   5.589   3.631  10.504
 5174TIP3    H139501   5.593   3.647  10.600
 5174TIP3    H239502   5.658   3.691  10.472
 5175TIP3   OH239503   5.547   3.593  10.794
 5175TIP3    H139504   5.499   3.517  10.756
 5175TIP3    H239505   5.596   3.551  10.865
 5176TIP3   OH239506   5.522   2.998   9.806
 5176TIP3    H139507   5.609   3.037   9.825
 5176TIP3    H239508   5.520   2.927   9.873
 5177TIP3   OH239509   5.557   2.806   9.995
 5177TIP3    H139510   5.482   2.756  10.035
 5177TIP3    H239511   5.617   2.818  10.072
 5178TIP3   OH239512   5.533   3.074  10.494
 5178TIP3    H139513   5.614   3.035  10.456
 5178TIP3    H239514   5.547   3.169  10.475
 5179TIP3   OH239515   5.386   3.366  10.722
 5179TIP3    H139516   5.318   3.398  10.783
 5179TIP3    H239517   5.334   3.324  10.650
 5180TIP3   OH239518   5.588   2.788   9.634
 5180TIP3    H139519   5.530   2.821   9.562
 5180TIP3    H239520   5.577   2.859   9.700
 5181TIP3   OH239521   5.425   2.510   9.485
 5181TIP3    H139522   5.433   2.576   9.416
 5181TIP3    H239523   5.406   2.427   9.435
 5182TIP3   OH239524   5.340   2.653  10.053
 5182TIP3    H139525   5.325   2.557  10.048
 5182TIP3    H239526   5.308   2.673  10.143
 5183TIP3   OH239527   3.842   2.865  10.457
 5183TIP3    H139528   3.857   2.850  10.362
 5183TIP3    H239529   3.927   2.839  10.496
 5184TIP3   OH239530   5.351   2.256   9.399
 5184TIP3    H139531   5.409   2.212   9.465
 5184TIP3    H239532   5.263   2.217   9.415
 5185TIP3   OH239533   5.303   2.411   9.893
 5185TIP3    H139534   5.335   2.319   9.910
 5185TIP3    H239535   5.386   2.452   9.864
 5186TIP3   OH239536   5.371   2.465  10.441
 5186TIP3    H139537   5.467   2.488  10.441
 5186TIP3    H239538   5.352   2.479  10.535
 5187TIP3   OH239539   5.378   2.540  10.719
 5187TIP3    H139540   5.289   2.567  10.752
 5187TIP3    H239541   5.420   2.626  10.697
 5188TIP3   OH239542   5.375   2.141   9.903
 5188TIP3    H139543   5.396   2.097   9.989
 5188TIP3    H239544   5.314   2.077   9.860
 5189TIP3   OH239545   3.935   2.213  10.326
 5189TIP3    H139546   3.962   2.137  10.381
 5189TIP3    H239547   3.959   2.282  10.393
 5190TIP3   OH239548   3.743   2.528  10.451
 5190TIP3    H139549   3.810   2.490  10.392
 5190TIP3    H239550   3.797   2.596  10.493
 5191TIP3   OH239551   5.555   2.144   9.559
 5191TIP3    H139552   5.595   2.074   9.503
 5191TIP3    H239553   5.626   2.209   9.563
 5192TIP3   OH239554   3.787   2.154   9.874
 5192TIP3    H139555   3.692   2.161   9.854
 5192TIP3    H239556   3.827   2.194   9.795
 5193TIP3   OH239557   5.260   3.642  10.065
 5193TIP3    H139558   5.329   3.612  10.003
 5193TIP3    H239559   5.312   3.691  10.131
 5194TIP3   OH239560   3.781   2.013  10.697
 5194TIP3    H139561   3.714   1.997  10.766
 5194TIP3    H239562   3.740   2.085  10.645
 5195TIP3   OH239563   4.292   3.426  10.733
 5195TIP3    H139564   4.260   3.515  10.716
 5195TIP3    H239565   4.388   3.442  10.718
 5196TIP3   OH239566   4.952   3.712  -0.026
 5196TIP3    H139567   5.024   3.650  -0.050
 5196TIP3    H239568   4.994   3.743   0.056
 5197TIP3   OH239569   5.461   1.965  10.866
 5197TIP3    H139570   5.371   1.989  10.837
 5197TIP3    H239571   5.473   1.877  10.824
 5198TIP3   OH239572   4.034   3.755  10.742
 5198TIP3    H139573   3.960   3.808  10.708
 5198TIP3    H239574   4.007   3.736  10.834
 5199TIP3   OH239575   4.282   3.713  10.642
 5199TIP3    H139576   4.199   3.730  10.693
 5199TIP3    H239577   4.277   3.778  10.571
 5200TIP3   OH239578   4.752   3.703  10.569
 5200TIP3    H139579   4.709   3.760  10.503
 5200TIP3    H239580   4.767   3.768  10.642
 5201TIP3   OH239581   4.984   3.581  10.660
 5201TIP3    H139582   4.897   3.615  10.632
 5201TIP3    H239583   5.031   3.666  10.661
 5202TIP3   OH239584   5.251   3.745  10.690
 5202TIP3    H139585   5.237   3.840  10.667
 5202TIP3    H239586   5.265   3.705  10.602
 5203TIP3   OH239587   3.985   3.621  10.436
 5203TIP3    H139588   3.977   3.576  10.524
 5203TIP3    H239589   4.067   3.581  10.399
 5204TIP3   OH239590   4.193   3.491  10.301
 5204TIP3    H139591   4.175   3.399  10.327
 5204TIP3    H239592   4.277   3.510  10.348
 5205TIP3   OH239593   4.453   3.542  10.388
 5205TIP3    H139594   4.468   3.449  10.363
 5205TIP3    H239595   4.457   3.538  10.485
 5206TIP3   OH239596   4.797   2.106  10.306
 5206TIP3    H139597   4.729   2.042  10.332
 5206TIP3    H239598   4.851   2.053  10.246
 5207TIP3   OH239599   5.311   1.910  10.310
 5207TIP3    H139600   5.372   1.969  10.258
 5207TIP3    H239601   5.222   1.945  10.286
 5208TIP3   OH239602   5.478   2.035  10.138
 5208TIP3    H139603   5.545   1.977  10.095
 5208TIP3    H239604   5.530   2.119  10.148
 5209TIP3   OH239605   4.035   1.967  10.089
 5209TIP3    H139606   3.956   1.949  10.036
 5209TIP3    H239607   4.080   1.881  10.083
 5210TIP3   OH239608   3.910   1.943   9.660
 5210TIP3    H139609   3.961   2.008   9.607
 5210TIP3    H239610   3.855   2.001   9.715
 5211TIP3   OH239611   4.480   1.961  10.068
 5211TIP3    H139612   4.571   1.994  10.059
 5211TIP3    H239613   4.478   1.940  10.162
 5212TIP3   OH239614   5.055   1.961  10.227
 5212TIP3    H139615   5.047   1.971  10.132
 5212TIP3    H239616   5.014   1.871  10.241
 5213TIP3   OH239617   5.185   1.974   9.794
 5213TIP3    H139618   5.104   2.026   9.782
 5213TIP3    H239619   5.143   1.889   9.824
 5214TIP3   OH239620   3.902   3.538   9.765
 5214TIP3    H139621   3.837   3.536   9.692
 5214TIP3    H239622   3.902   3.633   9.781
 5215TIP3   OH239623   4.093   2.137   9.513
 5215TIP3    H139624   4.146   2.076   9.459
 5215TIP3    H239625   4.160   2.170   9.575
 5216TIP3   OH239626   4.594   2.162   9.753
 5216TIP3    H139627   4.622   2.105   9.827
 5216TIP3    H239628   4.605   2.249   9.797
 5217TIP3   OH239629   4.790   3.670   9.597
 5217TIP3    H139630   4.883   3.691   9.575
 5217TIP3    H239631   4.768   3.617   9.517
 5218TIP3   OH239632   5.458   3.619   9.870
 5218TIP3    H139633   5.440   3.540   9.813
 5218TIP3    H239634   5.452   3.692   9.805
 5219TIP3   OH239635   4.081   3.637   9.458
 5219TIP3    H139636   4.055   3.663   9.548
 5219TIP3    H239637   4.160   3.581   9.473
 5220TIP3   OH239638   6.830   2.882  10.072
 5220TIP3    H139639   6.826   2.980  10.072
 5220TIP3    H239640   6.756   2.859  10.014
 5221TIP3   OH239641   6.714   2.808  10.423
 5221TIP3    H139642   6.714   2.744  10.495
 5221TIP3    H239643   6.678   2.756  10.348
 5222TIP3   OH239644   5.950   2.774  10.578
 5222TIP3    H139645   5.958   2.706  10.647
 5222TIP3    H239646   6.024   2.832  10.601
 5223TIP3   OH239647   7.082   3.103  10.252
 5223TIP3    H139648   7.040   3.032  10.301
 5223TIP3    H239649   7.085   3.173  10.320
 5224TIP3   OH239650   6.042   3.220  10.427
 5224TIP3    H139651   6.012   3.132  10.397
 5224TIP3    H239652   6.137   3.202  10.436
 5225TIP3   OH239653   5.705   2.575   9.979
 5225TIP3    H139654   5.662   2.662   9.972
 5225TIP3    H239655   5.649   2.521   9.921
 5226TIP3   OH239656   5.777   2.798  10.195
 5226TIP3    H139657   5.805   2.715  10.238
 5226TIP3    H239658   5.845   2.809  10.127
 5227TIP3   OH239659   6.794   3.618  10.278
 5227TIP3    H139660   6.859   3.550  10.247
 5227TIP3    H239661   6.774   3.583  10.365
 5228TIP3   OH239662   6.551   3.046  10.477
 5228TIP3    H139663   6.584   2.987  10.408
 5228TIP3    H239664   6.634   3.064  10.524
 5229TIP3   OH239665   7.411   2.215  10.546
 5229TIP3    H139666   7.428   2.274  10.622
 5229TIP3    H239667   7.471   2.254  10.480
 5230TIP3   OH239668   6.860   2.490  10.506
 5230TIP3    H139669   6.889   2.397  10.502
 5230TIP3    H239670   6.858   2.509  10.409
 5231TIP3   OH239671   6.179   2.303  10.224
 5231TIP3    H139672   6.191   2.386  10.174
 5231TIP3    H239673   6.140   2.246  10.155
 5232TIP3   OH239674   6.953   2.310  10.061
 5232TIP3    H139675   7.017   2.279  10.129
 5232TIP3    H239676   7.010   2.369  10.010
 5233TIP3   OH239677   5.842   2.545  10.297
 5233TIP3    H139678   5.908   2.491  10.343
 5233TIP3    H239679   5.853   2.513  10.206
 5234TIP3   OH239680   6.357   2.700  10.231
 5234TIP3    H139681   6.425   2.642  10.269
 5234TIP3    H239682   6.307   2.635  10.179
 5235TIP3   OH239683   7.472   2.372  10.769
 5235TIP3    H139684   7.393   2.430  10.758
 5235TIP3    H239685   7.458   2.344  10.861
 5236TIP3   OH239686   6.075   2.194  10.625
 5236TIP3    H139687   6.042   2.251  10.553
 5236TIP3    H239688   6.005   2.213  10.693
 5237TIP3   OH239689   6.799   3.140   9.983
 5237TIP3    H139690   6.774   3.114   9.893
 5237TIP3    H239691   6.769   3.234   9.988
 5238TIP3   OH239692   6.321   2.957  10.656
 5238TIP3    H139693   6.251   3.023  10.674
 5238TIP3    H239694   6.392   3.016  10.623
 5239TIP3   OH239695   7.132   2.248  10.266
 5239TIP3    H139696   7.114   2.169  10.316
 5239TIP3    H239697   7.204   2.289  10.316
 5240TIP3   OH239698   6.026   2.379  10.429
 5240TIP3    H139699   6.088   2.449  10.461
 5240TIP3    H239700   6.079   2.338  10.356
 5241TIP3   OH239701   6.169   3.159  10.734
 5241TIP3    H139702   6.161   3.252  10.705
 5241TIP3    H239703   6.081   3.150  10.779
 5242TIP3   OH239704   5.775   3.118   9.812
 5242TIP3    H139705   5.750   3.153   9.725
 5242TIP3    H239706   5.783   3.200   9.865
 5243TIP3   OH239707   7.135   3.287  10.490
 5243TIP3    H139708   7.038   3.297  10.501
 5243TIP3    H239709   7.162   3.378  10.469
 5244TIP3   OH239710   7.164   2.118  10.632
 5244TIP3    H139711   7.093   2.181  10.616
 5244TIP3    H239712   7.237   2.154  10.578
 5245TIP3   OH239713   6.463   1.927  10.374
 5245TIP3    H139714   6.449   1.831  10.367
 5245TIP3    H239715   6.375   1.956  10.405
 5246TIP3   OH239716   6.962   3.465  10.148
 5246TIP3    H139717   7.004   3.392  10.097
 5246TIP3    H239718   7.007   3.543  10.110
 5247TIP3   OH239719   7.083   3.257  10.000
 5247TIP3    H139720   7.053   3.188   9.939
 5247TIP3    H239721   7.086   3.208  10.084
 5248TIP3   OH239722   7.249   3.114  10.847
 5248TIP3    H139723   7.259   3.055  10.770
 5248TIP3    H239724   7.270   3.202  10.810
 5249TIP3   OH239725   6.693   2.804   9.825
 5249TIP3    H139726   6.625   2.864   9.789
 5249TIP3    H239727   6.765   2.815   9.760
 5250TIP3   OH239728   6.703   2.664   9.526
 5250TIP3    H139729   6.773   2.662   9.593
 5250TIP3    H239730   6.733   2.591   9.471
 5251TIP3   OH239731   7.435   2.745  10.652
 5251TIP3    H139732   7.372   2.820  10.661
 5251TIP3    H239733   7.482   2.773  10.571
 5252TIP3   OH239734   7.041   2.825   9.916
 5252TIP3    H139735   6.967   2.850   9.976
 5252TIP3    H239736   7.088   2.759   9.970
 5253TIP3   OH239737   7.026   2.639  10.835
 5253TIP3    H139738   7.031   2.724  10.881
 5253TIP3    H239739   6.971   2.671  10.760
 5254TIP3   OH239740   6.200   2.892  10.110
 5254TIP3    H139741   6.168   2.853  10.025
 5254TIP3    H239742   6.262   2.823  10.143
 5255TIP3   OH239743   6.332   3.229  10.377
 5255TIP3    H139744   6.332   3.178  10.295
 5255TIP3    H239745   6.411   3.195  10.422
 5256TIP3   OH239746   6.236   2.766  10.477
 5256TIP3    H139747   6.288   2.777  10.395
 5256TIP3    H239748   6.274   2.833  10.539
 5257TIP3   OH239749   6.877   3.324  10.548
 5257TIP3    H139750   6.845   3.391  10.609
 5257TIP3    H239751   6.849   3.240  10.590
 5258TIP3   OH239752   6.341   3.231  10.935
 5258TIP3    H139753   6.293   3.284  11.000
 5258TIP3    H239754   6.266   3.199  10.880
 5259TIP3   OH239755   6.927   2.748   9.684
 5259TIP3    H139756   6.983   2.765   9.764
 5259TIP3    H239757   6.974   2.797   9.612
 5260TIP3   OH239758   6.022   2.827  10.866
 5260TIP3    H139759   6.027   2.893  10.936
 5260TIP3    H239760   5.930   2.834  10.838
 5261TIP3   OH239761   6.698   3.419  10.031
 5261TIP3    H139762   6.741   3.450  10.112
 5261TIP3    H239763   6.643   3.494  10.006
 5262TIP3   OH239764   7.301   1.920   9.675
 5262TIP3    H139765   7.206   1.930   9.698
 5262TIP3    H239766   7.318   2.005   9.632
 5263TIP3   OH239767   6.095   2.794   9.874
 5263TIP3    H139768   6.068   2.872   9.821
 5263TIP3    H239769   6.032   2.727   9.847
 5264TIP3   OH239770   7.412   3.354   9.515
 5264TIP3    H139771   7.428   3.449   9.525
 5264TIP3    H239772   7.504   3.323   9.509
 5265TIP3   OH239773   5.710   3.038  10.754
 5265TIP3    H139774   5.660   3.030  10.670
 5265TIP3    H239775   5.712   2.944  10.783
 5266TIP3   OH239776   5.683   3.312  10.438
 5266TIP3    H139777   5.778   3.299  10.436
 5266TIP3    H239778   5.675   3.392  10.492
 5267TIP3   OH239779   6.589   3.309  10.870
 5267TIP3    H139780   6.600   3.400  10.904
 5267TIP3    H239781   6.503   3.282  10.910
 5268TIP3   OH239782   6.647   3.710   9.872
 5268TIP3    H139783   6.635   3.702   9.776
 5268TIP3    H239784   6.646   3.806   9.888
 5269TIP3   OH239785   6.010   3.598  10.056
 5269TIP3    H139786   6.025   3.557  10.143
 5269TIP3    H239787   5.925   3.557  10.032
 5270TIP3   OH239788   6.952   3.633   9.572
 5270TIP3    H139789   6.997   3.557   9.527
 5270TIP3    H239790   6.956   3.605   9.666
 5271TIP3   OH239791   6.921   3.625   9.849
 5271TIP3    H139792   6.825   3.633   9.865
 5271TIP3    H239793   6.944   3.550   9.906
 5272TIP3   OH239794   5.935   3.166  10.852
 5272TIP3    H139795   5.955   3.131  10.940
 5272TIP3    H239796   5.845   3.131  10.832
 5273TIP3   OH239797   6.204   2.020  10.447
 5273TIP3    H139798   6.114   2.004  10.413
 5273TIP3    H239799   6.188   2.100  10.499
 5274TIP3   OH239800   6.663   1.999  10.792
 5274TIP3    H139801   6.706   1.944  10.861
 5274TIP3    H239802   6.569   1.970  10.801
 5275TIP3   OH239803   6.976   2.366  10.873
 5275TIP3    H139804   6.943   2.351  10.963
 5275TIP3    H239805   6.980   2.462  10.854
 5276TIP3   OH239806   7.074   2.848   9.469
 5276TIP3    H139807   7.068   2.834   9.372
 5276TIP3    H239808   7.157   2.898   9.471
 5277TIP3   OH239809   6.631   2.243   9.517
 5277TIP3    H139810   6.599   2.236   9.609
 5277TIP3    H239811   6.601   2.155   9.486
 5278TIP3   OH239812   6.214   2.516  10.578
 5278TIP3    H139813   6.137   2.514  10.639
 5278TIP3    H239814   6.206   2.605  10.536
 5279TIP3   OH239815   6.210   2.524  10.063
 5279TIP3    H139816   6.115   2.501  10.049
 5279TIP3    H239817   6.246   2.497   9.976
 5280TIP3   OH239818   6.762   2.576   9.940
 5280TIP3    H139819   6.723   2.659   9.902
 5280TIP3    H239820   6.830   2.558   9.873
 5281TIP3   OH239821   6.866   2.526  10.224
 5281TIP3    H139822   6.836   2.582  10.150
 5281TIP3    H239823   6.875   2.441  10.176
 5282TIP3   OH239824   5.971   2.542  10.746
 5282TIP3    H139825   5.983   2.579  10.836
 5282TIP3    H239826   5.935   2.454  10.765
 5283TIP3   OH239827   6.312   2.278   9.428
 5283TIP3    H139828   6.266   2.237   9.505
 5283TIP3    H239829   6.241   2.323   9.380
 5284TIP3   OH239830   5.641   2.249  10.143
 5284TIP3    H139831   5.710   2.245  10.213
 5284TIP3    H239832   5.686   2.213  10.065
 5285TIP3   OH239833   5.767   2.321   9.676
 5285TIP3    H139834   5.820   2.382   9.621
 5285TIP3    H239835   5.699   2.385   9.708
 5286TIP3   OH239836   6.794   2.686  10.683
 5286TIP3    H139837   6.827   2.618  10.620
 5286TIP3    H239838   6.738   2.635  10.745
 5287TIP3   OH239839   6.464   2.283  10.163
 5287TIP3    H139840   6.371   2.282  10.192
 5287TIP3    H239841   6.513   2.263  10.244
 5288TIP3   OH239842   5.945   2.436  10.050
 5288TIP3    H139843   5.857   2.452  10.010
 5288TIP3    H239844   5.974   2.352  10.009
 5289TIP3   OH239845   6.309   2.442   9.813
 5289TIP3    H139846   6.405   2.452   9.827
 5289TIP3    H239847   6.286   2.510   9.746
 5290TIP3   OH239848   6.905   2.205  10.492
 5290TIP3    H139849   6.832   2.210  10.556
 5290TIP3    H239850   6.860   2.179  10.410
 5291TIP3   OH239851   6.181   2.559   9.571
 5291TIP3    H139852   6.127   2.520   9.499
 5291TIP3    H239853   6.263   2.580   9.523
 5292TIP3   OH239854   6.592   2.557  10.352
 5292TIP3    H139855   6.652   2.506  10.296
 5292TIP3    H239856   6.580   2.500  10.428
 5293TIP3   OH239857   6.094   2.172   9.995
 5293TIP3    H139858   6.062   2.079   9.996
 5293TIP3    H239859   6.173   2.164   9.940
 5294TIP3   OH239860   6.453   2.386  10.607
 5294TIP3    H139861   6.373   2.441  10.592
 5294TIP3    H239862   6.514   2.448  10.649
 5295TIP3   OH239863   6.515   3.011   9.763
 5295TIP3    H139864   6.435   2.966   9.729
 5295TIP3    H239865   6.492   3.025   9.857
 5296TIP3   OH239866   7.238   2.927  10.645
 5296TIP3    H139867   7.292   2.981  10.584
 5296TIP3    H239868   7.151   2.934  10.599
 5297TIP3   OH239869   6.898   2.293   9.580
 5297TIP3    H139870   6.803   2.309   9.567
 5297TIP3    H239871   6.932   2.378   9.616
 5298TIP3   OH239872   6.665   3.040  10.878
 5298TIP3    H139873   6.632   2.998  10.959
 5298TIP3    H239874   6.635   3.132  10.889
 5299TIP3   OH239875   6.971   2.487   9.741
 5299TIP3    H139876   7.059   2.473   9.784
 5299TIP3    H239877   6.983   2.569   9.691
 5300TIP3   OH239878   6.027   2.953  10.343
 5300TIP3    H139879   6.093   2.943  10.272
 5300TIP3    H239880   6.032   2.866  10.388
 5301TIP3   OH239881   6.724   3.158   9.666
 5301TIP3    H139882   6.690   3.243   9.701
 5301TIP3    H239883   6.651   3.097   9.688
 5302TIP3   OH239884   5.723   2.795  10.868
 5302TIP3    H139885   5.742   2.751  10.953
 5302TIP3    H239886   5.664   2.731  10.823
 5303TIP3   OH239887   6.891   3.282  10.883
 5303TIP3    H139888   6.800   3.299  10.856
 5303TIP3    H239889   6.896   3.307  10.976
 5304TIP3   OH239890   7.460   2.499   9.722
 5304TIP3    H139891   7.403   2.472   9.648
 5304TIP3    H239892   7.471   2.593   9.697
 5305TIP3   OH239893   7.287   3.382   9.759
 5305TIP3    H139894   7.254   3.298   9.795
 5305TIP3    H239895   7.323   3.360   9.672
 5306TIP3   OH239896   7.013   2.863  10.472
 5306TIP3    H139897   6.919   2.844  10.459
 5306TIP3    H239898   7.055   2.788  10.425
 5307TIP3   OH239899   6.264   3.298  10.082
 5307TIP3    H139900   6.314   3.378  10.061
 5307TIP3    H239901   6.176   3.320  10.048
 5308TIP3   OH239902   5.841   2.781   9.537
 5308TIP3    H139903   5.898   2.847   9.580
 5308TIP3    H239904   5.752   2.811   9.562
 5309TIP3   OH239905   6.404   3.064  10.031
 5309TIP3    H139906   6.372   3.155  10.043
 5309TIP3    H239907   6.334   3.013  10.077
 5310TIP3   OH239908   6.449   3.485  10.676
 5310TIP3    H139909   6.498   3.563  10.647
 5310TIP3    H239910   6.511   3.443  10.737
 5311TIP3   OH239911   6.273   3.562   9.985
 5311TIP3    H139912   6.177   3.577   9.999
 5311TIP3    H239913   6.310   3.646  10.019
 5312TIP3   OH239914   6.803   3.080  10.633
 5312TIP3    H139915   6.770   3.061  10.722
 5312TIP3    H239916   6.866   3.007  10.620
 5313TIP3   OH239917   7.037   3.190   9.545
 5313TIP3    H139918   7.065   3.141   9.625
 5313TIP3    H239919   6.942   3.172   9.550
 5314TIP3   OH239920   7.061   3.566  10.863
 5314TIP3    H139921   7.014   3.498  10.813
 5314TIP3    H239922   7.101   3.621  10.793
 5315TIP3   OH239923   7.483   3.625   9.570
 5315TIP3    H139924   7.552   3.692   9.549
 5315TIP3    H239925   7.411   3.685   9.599
 5316TIP3   OH239926   5.892   2.269  10.821
 5316TIP3    H139927   5.800   2.301  10.818
 5316TIP3    H239928   5.885   2.184  10.867
 5317TIP3   OH239929   7.114   3.053   9.769
 5317TIP3    H139930   7.090   2.974   9.822
 5317TIP3    H239931   7.209   3.057   9.786
 5318TIP3   OH239932   5.853   3.444  10.666
 5318TIP3    H139933   5.882   3.351  10.667
 5318TIP3    H239934   5.881   3.472  10.754
 5319TIP3   OH239935   6.450   3.297   9.395
 5319TIP3    H139936   6.459   3.221   9.336
 5319TIP3    H239937   6.404   3.254   9.471
 5320TIP3   OH239938   6.326   3.249   9.640
 5320TIP3    H139939   6.355   3.198   9.717
 5320TIP3    H239940   6.336   3.342   9.673
 5321TIP3   OH239941   5.981   2.974   9.689
 5321TIP3    H139942   5.909   3.014   9.741
 5321TIP3    H239943   6.031   3.052   9.658
 5322TIP3   OH239944   6.748   2.245  10.727
 5322TIP3    H139945   6.835   2.245  10.770
 5322TIP3    H239946   6.729   2.148  10.730
 5323TIP3   OH239947   6.837   2.199   9.829
 5323TIP3    H139948   6.860   2.244   9.746
 5323TIP3    H239949   6.896   2.244   9.891
 5324TIP3   OH239950   6.607   3.415   9.709
 5324TIP3    H139951   6.525   3.468   9.716
 5324TIP3    H239952   6.661   3.471   9.651
 5325TIP3   OH239953   6.562   2.374   9.910
 5325TIP3    H139954   6.639   2.433   9.916
 5325TIP3    H239955   6.534   2.361  10.003
 5326TIP3   OH239956   6.650   2.513  10.831
 5326TIP3    H139957   6.623   2.548  10.918
 5326TIP3    H239958   6.705   2.436  10.844
 5327TIP3   OH239959   6.645   2.080   9.998
 5327TIP3    H139960   6.613   2.146  10.061
 5327TIP3    H239961   6.716   2.134   9.954
 5328TIP3   OH239962   6.348   3.518   9.713
 5328TIP3    H139963   6.356   3.600   9.657
 5328TIP3    H239964   6.320   3.555   9.799
 5329TIP3   OH239965   6.212   2.192   9.669
 5329TIP3    H139966   6.207   2.281   9.709
 5329TIP3    H239967   6.302   2.166   9.696
 5330TIP3   OH239968   7.238   2.298  10.861
 5330TIP3    H139969   7.141   2.295  10.867
 5330TIP3    H239970   7.258   2.247  10.781
 5331TIP3   OH239971   7.096   2.642  10.315
 5331TIP3    H139972   7.014   2.598  10.287
 5331TIP3    H239973   7.145   2.574  10.366
 5332TIP3   OH239974   6.035   3.235   9.574
 5332TIP3    H139975   6.102   3.296   9.606
 5332TIP3    H239976   6.087   3.188   9.506
 5333TIP3   OH239977   5.869   2.503   9.488
 5333TIP3    H139978   5.871   2.598   9.511
 5333TIP3    H239979   5.780   2.486   9.457
 5334TIP3   OH239980   7.202   3.568  10.481
 5334TIP3    H139981   7.193   3.637  10.412
 5334TIP3    H239982   7.298   3.575  10.498
 5335TIP3   OH239983   5.951   1.981  10.364
 5335TIP3    H139984   5.933   1.982  10.268
 5335TIP3    H239985   5.910   1.895  10.389
 5336TIP3   OH239986   5.847   3.373   9.979
 5336TIP3    H139987   5.761   3.417   9.972
 5336TIP3    H239988   5.893   3.418   9.907
 5337TIP3   OH239989   6.647   3.483   9.411
 5337TIP3    H139990   6.579   3.414   9.429
 5337TIP3    H239991   6.720   3.425   9.380
 5338TIP3   OH239992   7.110   3.460   9.430
 5338TIP3    H139993   7.134   3.376   9.472
 5338TIP3    H239994   7.179   3.473   9.364
 5339TIP3   OH239995   6.193   3.050   9.406
 5339TIP3    H139996   6.208   2.974   9.466
 5339TIP3    H239997   6.268   3.038   9.345
 5340TIP3   OH239998   6.731   3.159   9.385
 5340TIP3    H139999   6.710   3.168   9.479
 5340TIP3    H240000   6.718   3.063   9.370
 5341TIP3   OH240001   6.999   2.998  10.873
 5341TIP3    H140002   7.078   3.056  10.875
 5341TIP3    H240003   6.930   3.065  10.888
 5342TIP3   OH240004   6.313   2.852   9.651
 5342TIP3    H140005   6.262   2.797   9.713
 5342TIP3    H240006   6.344   2.785   9.586
 5343TIP3   OH240007   6.242   2.646  10.866
 5343TIP3    H140008   6.176   2.711  10.898
 5343TIP3    H240009   6.276   2.686  10.786
 5344TIP3   OH240010   6.421   2.675   9.469
 5344TIP3    H140011   6.407   2.666   9.373
 5344TIP3    H240012   6.519   2.679   9.477
 5345TIP3   OH240013   7.355   2.904   9.411
 5345TIP3    H140014   7.333   2.871   9.322
 5345TIP3    H240015   7.360   3.002   9.394
 5346TIP3   OH240016   6.256   2.414  10.959
 5346TIP3    H140017   6.293   2.339  10.913
 5346TIP3    H240018   6.276   2.491  10.902
 5347TIP3   OH240019   6.323   2.211  10.742
 5347TIP3    H140020   6.365   2.252  10.663
 5347TIP3    H240021   6.232   2.196  10.705
 5348TIP3   OH240022   6.474   2.748  10.758
 5348TIP3    H140023   6.554   2.745  10.705
 5348TIP3    H240024   6.437   2.836  10.735
 5349TIP3   OH240025   6.403   1.956  10.779
 5349TIP3    H140026   6.376   2.049  10.775
 5349TIP3    H240027   6.328   1.914  10.734
 5350TIP3   OH240028   6.403   3.745   9.579
 5350TIP3    H140029   6.500   3.752   9.585
 5350TIP3    H240030   6.390   3.803   9.503
 5351TIP3   OH240031   5.758   3.201   9.526
 5351TIP3    H140032   5.855   3.210   9.543
 5351TIP3    H240033   5.763   3.137   9.450
 5352TIP3   OH240034   5.638   3.739  10.021
 5352TIP3    H140035   5.565   3.691   9.976
 5352TIP3    H240036   5.666   3.675  10.088
 5353TIP3   OH240037   5.720   3.554  10.210
 5353TIP3    H140038   5.684   3.466  10.230
 5353TIP3    H240039   5.743   3.587  10.298
 5354TIP3   OH240040   7.469   3.632  10.505
 5354TIP3    H140041   7.481   3.644  10.601
 5354TIP3    H240042   7.542   3.687  10.472
 5355TIP3   OH240043   7.435   3.593  10.794
 5355TIP3    H140044   7.384   3.518  10.758
 5355TIP3    H240045   7.484   3.549  10.865
 5356TIP3   OH240046   7.408   2.998   9.806
 5356TIP3    H140047   7.494   3.037   9.825
 5356TIP3    H240048   7.405   2.927   9.873
 5357TIP3   OH240049   7.441   2.806   9.995
 5357TIP3    H140050   7.366   2.756  10.035
 5357TIP3    H240051   7.502   2.817  10.071
 5358TIP3   OH240052   7.419   3.073  10.495
 5358TIP3    H140053   7.501   3.036  10.457
 5358TIP3    H240054   7.432   3.168  10.474
 5359TIP3   OH240055   7.272   3.366  10.722
 5359TIP3    H140056   7.205   3.397  10.783
 5359TIP3    H240057   7.221   3.325  10.650
 5360TIP3   OH240058   7.474   2.788   9.634
 5360TIP3    H140059   7.416   2.822   9.563
 5360TIP3    H240060   7.463   2.859   9.700
 5361TIP3   OH240061   7.315   2.509   9.485
 5361TIP3    H140062   7.317   2.578   9.417
 5361TIP3    H240063   7.288   2.429   9.436
 5362TIP3   OH240064   7.224   2.652  10.054
 5362TIP3    H140065   7.211   2.557  10.049
 5362TIP3    H240066   7.193   2.673  10.143
 5363TIP3   OH240067   5.727   2.863  10.459
 5363TIP3    H140068   5.743   2.853  10.362
 5363TIP3    H240069   5.815   2.842  10.495
 5364TIP3   OH240070   7.234   2.260   9.401
 5364TIP3    H140071   7.291   2.214   9.466
 5364TIP3    H240072   7.147   2.218   9.414
 5365TIP3   OH240073   7.189   2.411   9.893
 5365TIP3    H140074   7.221   2.319   9.910
 5365TIP3    H240075   7.271   2.452   9.863
 5366TIP3   OH240076   7.255   2.465  10.442
 5366TIP3    H140077   7.351   2.488  10.439
 5366TIP3    H240078   7.238   2.479  10.536
 5367TIP3   OH240079   7.262   2.541  10.724
 5367TIP3    H140080   7.172   2.568  10.748
 5367TIP3    H240081   7.306   2.625  10.695
 5368TIP3   OH240082   7.258   2.141   9.903
 5368TIP3    H140083   7.281   2.098   9.988
 5368TIP3    H240084   7.199   2.075   9.859
 5369TIP3   OH240085   5.806   2.220  10.360
 5369TIP3    H140086   5.853   2.138  10.384
 5369TIP3    H240087   5.864   2.289  10.397
 5370TIP3   OH240088   5.635   2.519  10.461
 5370TIP3    H140089   5.693   2.494  10.386
 5370TIP3    H240090   5.682   2.599  10.489
 5371TIP3   OH240091   7.440   2.146   9.554
 5371TIP3    H140092   7.484   2.070   9.511
 5371TIP3    H240093   7.511   2.210   9.569
 5372TIP3   OH240094   5.673   2.150   9.871
 5372TIP3    H140095   5.578   2.164   9.854
 5372TIP3    H240096   5.714   2.196   9.796
 5373TIP3   OH240097   7.146   3.641  10.066
 5373TIP3    H140098   7.214   3.612  10.003
 5373TIP3    H240099   7.197   3.691  10.131
 5374TIP3   OH240100   5.668   2.016  10.700
 5374TIP3    H140101   5.600   1.993  10.766
 5374TIP3    H240102   5.621   2.081  10.645
 5375TIP3   OH240103   6.178   3.431  10.740
 5375TIP3    H140104   6.146   3.518  10.712
 5375TIP3    H240105   6.273   3.440  10.715
 5376TIP3   OH240106   6.838   3.713  -0.028
 5376TIP3    H140107   6.909   3.650  -0.050
 5376TIP3    H240108   6.879   3.742   0.056
 5377TIP3   OH240109   7.348   1.964  10.865
 5377TIP3    H140110   7.258   1.987  10.837
 5377TIP3    H240111   7.359   1.877  10.824
 5378TIP3   OH240112   5.922   3.758  10.745
 5378TIP3    H140113   5.847   3.806  10.705
 5378TIP3    H240114   5.889   3.734  10.833
 5379TIP3   OH240115   6.169   3.713  10.643
 5379TIP3    H140116   6.084   3.730  10.690
 5379TIP3    H240117   6.163   3.776  10.569
 5380TIP3   OH240118   6.640   3.704  10.570
 5380TIP3    H140119   6.595   3.760  10.503
 5380TIP3    H240120   6.653   3.769  10.642
 5381TIP3   OH240121   6.870   3.581  10.660
 5381TIP3    H140122   6.783   3.615  10.632
 5381TIP3    H240123   6.916   3.666  10.661
 5382TIP3   OH240124   7.138   3.746  10.690
 5382TIP3    H140125   7.123   3.840  10.667
 5382TIP3    H240126   7.151   3.706  10.602
 5383TIP3   OH240127   5.871   3.621  10.437
 5383TIP3    H140128   5.863   3.576  10.523
 5383TIP3    H240129   5.952   3.581  10.399
 5384TIP3   OH240130   6.078   3.492  10.302
 5384TIP3    H140131   6.062   3.398  10.326
 5384TIP3    H240132   6.163   3.508  10.348
 5385TIP3   OH240133   6.339   3.541  10.388
 5385TIP3    H140134   6.353   3.448  10.364
 5385TIP3    H240135   6.343   3.536  10.485
 5386TIP3   OH240136   6.683   2.105  10.308
 5386TIP3    H140137   6.614   2.041  10.331
 5386TIP3    H240138   6.738   2.054  10.247
 5387TIP3   OH240139   7.197   1.911  10.310
 5387TIP3    H140140   7.258   1.969  10.258
 5387TIP3    H240141   7.108   1.945  10.286
 5388TIP3   OH240142   7.363   2.036  10.136
 5388TIP3    H140143   7.432   1.978  10.097
 5388TIP3    H240144   7.415   2.119  10.149
 5389TIP3   OH240145   5.921   1.968  10.090
 5389TIP3    H140146   5.841   1.951  10.038
 5389TIP3    H240147   5.966   1.881  10.084
 5390TIP3   OH240148   5.796   1.943   9.659
 5390TIP3    H140149   5.846   2.010   9.608
 5390TIP3    H240150   5.741   2.000   9.715
 5391TIP3   OH240151   6.366   1.960  10.067
 5391TIP3    H140152   6.456   1.996  10.058
 5391TIP3    H240153   6.364   1.938  10.160
 5392TIP3   OH240154   6.939   1.962  10.231
 5392TIP3    H140155   6.933   1.974  10.135
 5392TIP3    H240156   6.901   1.872  10.242
 5393TIP3   OH240157   7.065   1.965   9.798
 5393TIP3    H140158   6.990   2.024   9.783
 5393TIP3    H240159   7.022   1.880   9.823
 5394TIP3   OH240160   5.788   3.538   9.765
 5394TIP3    H140161   5.722   3.536   9.692
 5394TIP3    H240162   5.788   3.633   9.781
 5395TIP3   OH240163   5.978   2.132   9.515
 5395TIP3    H140164   6.034   2.078   9.457
 5395TIP3    H240165   6.044   2.170   9.575
 5396TIP3   OH240166   6.482   2.161   9.752
 5396TIP3    H140167   6.507   2.104   9.826
 5396TIP3    H240168   6.490   2.248   9.797
 5397TIP3   OH240169   6.676   3.671   9.596
 5397TIP3    H140170   6.768   3.691   9.575
 5397TIP3    H240171   6.654   3.616   9.518
 5398TIP3   OH240172   7.343   3.619   9.870
 5398TIP3    H140173   7.326   3.540   9.812
 5398TIP3    H240174   7.338   3.692   9.805
 5399TIP3   OH240175   5.967   3.637   9.458
 5399TIP3    H140176   5.941   3.663   9.548
 5399TIP3    H240177   6.045   3.580   9.473
 5400TIP3   OH240178   7.834   2.777  10.578
 5400TIP3    H140179   7.846   2.708  10.646
 5400TIP3    H240180   7.911   2.831  10.600
 5401TIP3   OH240181   7.907   3.210  10.434
 5401TIP3    H140182   7.892   3.121  10.398
 5401TIP3    H240183   8.005   3.210  10.440
 5402TIP3   OH240184   7.588   2.574   9.978
 5402TIP3    H140185   7.547   2.663   9.972
 5402TIP3    H240186   7.531   2.521   9.921
 5403TIP3   OH240187   7.663   2.799  10.194
 5403TIP3    H140188   7.690   2.716  10.238
 5403TIP3    H240189   7.733   2.809  10.127
 5404TIP3   OH240190   7.723   2.542  10.298
 5404TIP3    H140191   7.793   2.491  10.343
 5404TIP3    H240192   7.742   2.513  10.207
 5405TIP3   OH240193   7.937   2.190  10.623
 5405TIP3    H140194   7.924   2.255  10.550
 5405TIP3    H240195   7.878   2.223  10.692
 5406TIP3   OH240196   7.900   2.366  10.421
 5406TIP3    H140197   7.955   2.437  10.464
 5406TIP3    H240198   7.960   2.336  10.350
 5407TIP3   OH240199   8.018   3.187  10.705
 5407TIP3    H140200   8.033   3.282  10.708
 5407TIP3    H240201   7.962   3.168  10.782
 5408TIP3   OH240202   7.666   3.119   9.814
 5408TIP3    H140203   7.635   3.152   9.728
 5408TIP3    H240204   7.667   3.202   9.866
 5409TIP3   OH240205   7.886   2.797  10.870
 5409TIP3    H140206   7.912   2.876  10.923
 5409TIP3    H240207   7.805   2.833  10.833
 5410TIP3   OH240208   7.979   2.798   9.867
 5410TIP3    H140209   7.951   2.878   9.820
 5410TIP3    H240210   7.912   2.733   9.847
 5411TIP3   OH240211   7.587   3.034  10.757
 5411TIP3    H140212   7.547   3.028  10.669
 5411TIP3    H240213   7.597   2.941  10.785
 5412TIP3   OH240214   7.569   3.313  10.440
 5412TIP3    H140215   7.665   3.300  10.436
 5412TIP3    H240216   7.563   3.393  10.492
 5413TIP3   OH240217   7.884   3.588  10.057
 5413TIP3    H140218   7.901   3.550  10.146
 5413TIP3    H240219   7.798   3.548  10.037
 5414TIP3   OH240220   7.763   3.208  10.850
 5414TIP3    H140221   7.819   3.167  10.919
 5414TIP3    H240222   7.714   3.128  10.820
 5415TIP3   OH240223   7.862   2.541  10.752
 5415TIP3    H140224   7.861   2.583  10.840
 5415TIP3    H240225   7.823   2.453  10.767
 5416TIP3   OH240226   7.524   2.248  10.142
 5416TIP3    H140227   7.592   2.245  10.213
 5416TIP3    H240228   7.572   2.214  10.064
 5417TIP3   OH240229   7.648   2.320   9.676
 5417TIP3    H140230   7.702   2.381   9.623
 5417TIP3    H240231   7.581   2.385   9.709
 5418TIP3   OH240232   7.827   2.441  10.048
 5418TIP3    H140233   7.738   2.449  10.009
 5418TIP3    H240234   7.860   2.354  10.018
 5419TIP3   OH240235   7.930   2.166   9.975
 5419TIP3    H140236   7.925   2.072  10.003
 5419TIP3    H240237   8.026   2.174   9.968
 5420TIP3   OH240238   7.907   2.952  10.337
 5420TIP3    H140239   7.983   2.946  10.277
 5420TIP3    H240240   7.917   2.869  10.389
 5421TIP3   OH240241   7.605   2.796  10.869
 5421TIP3    H140242   7.632   2.751  10.951
 5421TIP3    H240243   7.552   2.730  10.822
 5422TIP3   OH240244   7.731   2.779   9.539
 5422TIP3    H140245   7.784   2.849   9.581
 5422TIP3    H240246   7.640   2.808   9.561
 5423TIP3   OH240247   7.774   2.270  10.830
 5423TIP3    H140248   7.683   2.301  10.814
 5423TIP3    H240249   7.762   2.181  10.866
 5424TIP3   OH240250   7.746   3.445  10.661
 5424TIP3    H140251   7.757   3.349  10.671
 5424TIP3    H240252   7.762   3.473  10.752
 5425TIP3   OH240253   7.868   2.975   9.684
 5425TIP3    H140254   7.796   3.010   9.740
 5425TIP3    H240255   7.916   3.057   9.665
 5426TIP3   OH240256   7.918   3.238   9.567
 5426TIP3    H140257   7.983   3.297   9.608
 5426TIP3    H240258   7.978   3.191   9.508
 5427TIP3   OH240259   7.757   2.499   9.493
 5427TIP3    H140260   7.760   2.597   9.506
 5427TIP3    H240261   7.668   2.487   9.461
 5428TIP3   OH240262   7.834   1.981  10.365
 5428TIP3    H140263   7.823   1.985  10.268
 5428TIP3    H240264   7.797   1.894  10.389
 5429TIP3   OH240265   7.725   3.373   9.977
 5429TIP3    H140266   7.642   3.421   9.972
 5429TIP3    H240267   7.778   3.417   9.910
 5430TIP3   OH240268   7.648   3.202   9.523
 5430TIP3    H140269   7.744   3.211   9.542
 5430TIP3    H240270   7.651   3.137   9.449
 5431TIP3   OH240271   7.522   3.739  10.021
 5431TIP3    H140272   7.449   3.690   9.976
 5431TIP3    H240273   7.552   3.675  10.088
 5432TIP3   OH240274   7.604   3.552  10.209
 5432TIP3    H140275   7.569   3.465  10.230
 5432TIP3    H240276   7.631   3.585  10.297
 5433TIP3   OH240277   7.613   2.864  10.457
 5433TIP3    H140278   7.634   2.850  10.362
 5433TIP3    H240279   7.701   2.844  10.497
 5434TIP3   OH240280   7.689   2.219  10.360
 5434TIP3    H140281   7.741   2.139  10.380
 5434TIP3    H240282   7.751   2.288  10.393
 5435TIP3   OH240283   7.517   2.518  10.460
 5435TIP3    H140284   7.578   2.495  10.386
 5435TIP3    H240285   7.564   2.598  10.489
 5436TIP3   OH240286   7.557   2.145   9.869
 5436TIP3    H140287   7.463   2.163   9.854
 5436TIP3    H240288   7.598   2.198   9.800
 5437TIP3   OH240289   7.552   2.016  10.701
 5437TIP3    H140290   7.483   1.994  10.766
 5437TIP3    H240291   7.506   2.081  10.644
 5438TIP3   OH240292   7.810   3.765  10.750
 5438TIP3    H140293   7.732   3.803  10.705
 5438TIP3    H240294   7.772   3.735  10.834
 5439TIP3   OH240295   8.036   3.684  10.621
 5439TIP3    H140296   7.969   3.714  10.686
 5439TIP3    H240297   8.050   3.766  10.571
 5440TIP3   OH240298   7.746   3.624  10.438
 5440TIP3    H140299   7.749   3.579  10.525
 5440TIP3    H240300   7.828   3.585  10.400
 5441TIP3   OH240301   7.943   3.493  10.321
 5441TIP3    H140302   7.937   3.395  10.332
 5441TIP3    H240303   8.034   3.504  10.354
 5442TIP3   OH240304   7.799   1.962  10.090
 5442TIP3    H140305   7.720   1.944  10.037
 5442TIP3    H240306   7.850   1.880  10.086
 5443TIP3   OH240307   7.677   1.944   9.653
 5443TIP3    H140308   7.732   2.013   9.610
 5443TIP3    H240309   7.627   1.997   9.717
 5444TIP3   OH240310   7.675   3.539   9.760
 5444TIP3    H140311   7.605   3.537   9.692
 5444TIP3    H240312   7.676   3.634   9.779
 5445TIP3   OH240313   7.863   2.133   9.517
 5445TIP3    H140314   7.921   2.078   9.460
 5445TIP3    H240315   7.926   2.176   9.576
 5446TIP3   OH240316   7.858   3.644   9.458
 5446TIP3    H140317   7.829   3.667   9.548
 5446TIP3    H240318   7.928   3.580   9.476
 5447TIP3   OH240319   1.173   4.768  10.072
 5447TIP3    H140320   1.169   4.866  10.072
 5447TIP3    H240321   1.099   4.745  10.014
 5448TIP3   OH240322   1.057   4.692  10.424
 5448TIP3    H140323   1.056   4.627  10.496
 5448TIP3    H240324   1.021   4.641  10.349
 5449TIP3   OH240325   0.305   4.654  10.569
 5449TIP3    H140326   0.300   4.594  10.647
 5449TIP3    H240327   0.369   4.718  10.601
 5450TIP3   OH240328   1.425   4.988  10.253
 5450TIP3    H140329   1.384   4.916  10.303
 5450TIP3    H240330   1.428   5.058  10.320
 5451TIP3   OH240331   0.383   5.105  10.424
 5451TIP3    H140332   0.354   5.015  10.399
 5451TIP3    H240333   0.478   5.088  10.435
 5452TIP3   OH240334   0.055   4.463   9.970
 5452TIP3    H140335   0.010   4.550   9.974
 5452TIP3    H240336  -0.011   4.408   9.927
 5453TIP3   OH240337   0.120   4.680  10.192
 5453TIP3    H140338   0.147   4.598  10.238
 5453TIP3    H240339   0.189   4.691  10.126
 5454TIP3   OH240340   1.137   5.505  10.278
 5454TIP3    H140341   1.202   5.436  10.247
 5454TIP3    H240342   1.117   5.469  10.365
 5455TIP3   OH240343   0.893   4.932  10.475
 5455TIP3    H140344   0.927   4.872  10.408
 5455TIP3    H240345   0.976   4.949  10.524
 5456TIP3   OH240346   1.754   4.100  10.546
 5456TIP3    H140347   1.772   4.159  10.621
 5456TIP3    H240348   1.812   4.140  10.480
 5457TIP3   OH240349   1.208   4.379  10.506
 5457TIP3    H140350   1.228   4.284  10.506
 5457TIP3    H240351   1.200   4.394  10.409
 5458TIP3   OH240352   0.523   4.189  10.224
 5458TIP3    H140353   0.533   4.273  10.175
 5458TIP3    H240354   0.485   4.131  10.155
 5459TIP3   OH240355   1.296   4.196  10.062
 5459TIP3    H140356   1.361   4.164  10.129
 5459TIP3    H240357   1.353   4.255  10.010
 5460TIP3   OH240358   0.197   4.431  10.295
 5460TIP3    H140359   0.258   4.371  10.341
 5460TIP3    H240360   0.198   4.396  10.205
 5461TIP3   OH240361   0.700   4.585  10.231
 5461TIP3    H140362   0.768   4.527  10.269
 5461TIP3    H240363   0.649   4.520  10.179
 5462TIP3   OH240364   1.816   4.256  10.770
 5462TIP3    H140365   1.737   4.315  10.757
 5462TIP3    H240366   1.799   4.230  10.861
 5463TIP3   OH240367   0.416   4.077  10.624
 5463TIP3    H140368   0.387   4.138  10.554
 5463TIP3    H240369   0.350   4.097  10.695
 5464TIP3   OH240370   1.142   5.026   9.983
 5464TIP3    H140371   1.117   5.000   9.893
 5464TIP3    H240372   1.112   5.120   9.988
 5465TIP3   OH240373   0.668   4.844  10.656
 5465TIP3    H140374   0.595   4.908  10.674
 5465TIP3    H240375   0.736   4.903  10.622
 5466TIP3   OH240376   1.479   4.132  10.261
 5466TIP3    H140377   1.456   4.055  10.315
 5466TIP3    H240378   1.546   4.175  10.317
 5467TIP3   OH240379   0.373   4.262  10.430
 5467TIP3    H140380   0.433   4.333  10.462
 5467TIP3    H240381   0.426   4.224  10.356
 5468TIP3   OH240382   0.510   5.044  10.733
 5468TIP3    H140383   0.503   5.138  10.705
 5468TIP3    H240384   0.423   5.035  10.779
 5469TIP3   OH240385   0.116   5.005   9.810
 5469TIP3    H140386   0.091   5.040   9.724
 5469TIP3    H240387   0.126   5.086   9.864
 5470TIP3   OH240388   1.478   5.172  10.490
 5470TIP3    H140389   1.381   5.183  10.501
 5470TIP3    H240390   1.505   5.264  10.469
 5471TIP3   OH240391   1.510   4.005  10.635
 5471TIP3    H140392   1.436   4.065  10.617
 5471TIP3    H240393   1.581   4.040  10.578
 5472TIP3   OH240394   0.805   3.811  10.372
 5472TIP3    H140395   0.794   3.714  10.367
 5472TIP3    H240396   0.718   3.840  10.407
 5473TIP3   OH240397   1.304   5.351  10.147
 5473TIP3    H140398   1.347   5.278  10.097
 5473TIP3    H240399   1.350   5.429  10.109
 5474TIP3   OH240400   1.427   5.143  10.000
 5474TIP3    H140401   1.396   5.073   9.940
 5474TIP3    H240402   1.430   5.093  10.084
 5475TIP3   OH240403   1.590   5.000  10.847
 5475TIP3    H140404   1.603   4.941  10.770
 5475TIP3    H240405   1.612   5.087  10.810
 5476TIP3   OH240406   1.037   4.690   9.825
 5476TIP3    H140407   0.968   4.749   9.789
 5476TIP3    H240408   1.109   4.701   9.759
 5477TIP3   OH240409   1.046   4.549   9.526
 5477TIP3    H140410   1.116   4.548   9.593
 5477TIP3    H240411   1.076   4.476   9.470
 5478TIP3   OH240412   1.777   4.632  10.651
 5478TIP3    H140413   1.712   4.705  10.658
 5478TIP3    H240414   1.826   4.658  10.571
 5479TIP3   OH240415   1.384   4.711   9.917
 5479TIP3    H140416   1.309   4.736   9.977
 5479TIP3    H240417   1.431   4.645   9.971
 5480TIP3   OH240418   1.373   4.527  10.827
 5480TIP3    H140419   1.375   4.605  10.883
 5480TIP3    H240420   1.310   4.559  10.759
 5481TIP3   OH240421   0.546   4.779  10.109
 5481TIP3    H140422   0.510   4.738  10.026
 5481TIP3    H240423   0.606   4.709  10.143
 5482TIP3   OH240424   0.675   5.115  10.377
 5482TIP3    H140425   0.675   5.064  10.295
 5482TIP3    H240426   0.754   5.081  10.422
 5483TIP3   OH240427   0.578   4.652  10.475
 5483TIP3    H140428   0.632   4.663  10.394
 5483TIP3    H240429   0.615   4.719  10.538
 5484TIP3   OH240430   1.219   5.210  10.547
 5484TIP3    H140431   1.188   5.277  10.609
 5484TIP3    H240432   1.191   5.125  10.590
 5485TIP3   OH240433   0.684   5.117  10.935
 5485TIP3    H140434   0.636   5.170  11.000
 5485TIP3    H240435   0.610   5.084  10.880
 5486TIP3   OH240436   1.271   4.633   9.683
 5486TIP3    H140437   1.326   4.651   9.764
 5486TIP3    H240438   1.317   4.683   9.612
 5487TIP3   OH240439   0.365   4.708  10.870
 5487TIP3    H140440   0.370   4.779  10.935
 5487TIP3    H240441   0.274   4.719  10.837
 5488TIP3   OH240442   1.042   5.305  10.032
 5488TIP3    H140443   1.084   5.336  10.112
 5488TIP3    H240444   0.986   5.380  10.007
 5489TIP3   OH240445   1.643   3.806   9.676
 5489TIP3    H140446   1.548   3.816   9.699
 5489TIP3    H240447   1.663   3.889   9.631
 5490TIP3   OH240448   0.444   4.680   9.871
 5490TIP3    H140449   0.412   4.758   9.822
 5490TIP3    H240450   0.377   4.614   9.850
 5491TIP3   OH240451   1.754   5.241   9.510
 5491TIP3    H140452   1.771   5.335   9.527
 5491TIP3    H240453   1.846   5.209   9.510
 5492TIP3   OH240454   0.103   4.876  10.734
 5492TIP3    H140455   0.027   4.915  10.687
 5492TIP3    H240456   0.056   4.809  10.787
 5493TIP3   OH240457   0.050   5.221  10.422
 5493TIP3    H140458   0.139   5.187  10.443
 5493TIP3    H240459   0.031   5.276  10.499
 5494TIP3   OH240460   0.933   5.195  10.870
 5494TIP3    H140461   0.943   5.286  10.904
 5494TIP3    H240462   0.847   5.168  10.910
 5495TIP3   OH240463   0.990   5.596   9.872
 5495TIP3    H140464   0.979   5.588   9.776
 5495TIP3    H240465   0.990   5.691   9.889
 5496TIP3   OH240466   0.358   5.480  10.052
 5496TIP3    H140467   0.368   5.443  10.142
 5496TIP3    H240468   0.272   5.442  10.030
 5497TIP3   OH240469   1.295   5.517   9.571
 5497TIP3    H140470   1.341   5.441   9.528
 5497TIP3    H240471   1.299   5.491   9.665
 5498TIP3   OH240472   1.265   5.511   9.849
 5498TIP3    H140473   1.168   5.518   9.865
 5498TIP3    H240474   1.287   5.436   9.906
 5499TIP3   OH240475   0.277   5.059  10.855
 5499TIP3    H140476   0.297   5.017  10.939
 5499TIP3    H240477   0.195   5.015  10.826
 5500TIP3   OH240478   0.547   3.906  10.445
 5500TIP3    H140479   0.455   3.891  10.413
 5500TIP3    H240480   0.533   3.985  10.500
 5501TIP3   OH240481   1.009   3.876  10.788
 5501TIP3    H140482   1.048   3.829  10.864
 5501TIP3    H240483   0.913   3.859  10.802
 5502TIP3   OH240484   1.318   4.250  10.870
 5502TIP3    H140485   1.292   4.238  10.963
 5502TIP3    H240486   1.325   4.347  10.856
 5503TIP3   OH240487   1.415   4.736   9.468
 5503TIP3    H140488   1.412   4.717   9.372
 5503TIP3    H240489   1.501   4.781   9.471
 5504TIP3   OH240490   0.974   4.129   9.516
 5504TIP3    H140491   0.944   4.123   9.609
 5504TIP3    H240492   0.944   4.040   9.487
 5505TIP3   OH240493   0.555   4.401  10.575
 5505TIP3    H140494   0.483   4.400  10.641
 5505TIP3    H240495   0.549   4.491  10.537
 5506TIP3   OH240496   0.554   4.411  10.062
 5506TIP3    H140497   0.459   4.388  10.049
 5506TIP3    H240498   0.590   4.382   9.976
 5507TIP3   OH240499   1.104   4.462   9.940
 5507TIP3    H140500   1.065   4.544   9.902
 5507TIP3    H240501   1.173   4.444   9.873
 5508TIP3   OH240502   1.209   4.412  10.224
 5508TIP3    H140503   1.179   4.468  10.150
 5508TIP3    H240504   1.217   4.327  10.177
 5509TIP3   OH240505   0.315   4.428  10.746
 5509TIP3    H140506   0.324   4.466  10.835
 5509TIP3    H240507   0.275   4.342  10.766
 5510TIP3   OH240508   0.655   4.164   9.428
 5510TIP3    H140509   0.609   4.123   9.505
 5510TIP3    H240510   0.584   4.208   9.380
 5511TIP3   OH240511   0.014   4.167  10.150
 5511TIP3    H140512   0.065   4.132  10.226
 5511TIP3    H240513   0.025   4.100  10.084
 5512TIP3   OH240514   0.114   4.219   9.683
 5512TIP3    H140515   0.163   4.272   9.617
 5512TIP3    H240516   0.042   4.277   9.706
 5513TIP3   OH240517   1.132   4.568  10.686
 5513TIP3    H140518   1.167   4.501  10.622
 5513TIP3    H240519   1.078   4.513  10.746
 5514TIP3   OH240520   0.808   4.169  10.163
 5514TIP3    H140521   0.714   4.167  10.192
 5514TIP3    H240522   0.856   4.149  10.245
 5515TIP3   OH240523   0.293   4.320  10.049
 5515TIP3    H140524   0.204   4.339  10.013
 5515TIP3    H240525   0.314   4.234  10.009
 5516TIP3   OH240526   0.653   4.327   9.813
 5516TIP3    H140527   0.748   4.338   9.827
 5516TIP3    H240528   0.629   4.395   9.747
 5517TIP3   OH240529   1.249   4.090  10.489
 5517TIP3    H140530   1.179   4.097  10.557
 5517TIP3    H240531   1.199   4.064  10.410
 5518TIP3   OH240532   0.524   4.444   9.570
 5518TIP3    H140533   0.471   4.405   9.499
 5518TIP3    H240534   0.606   4.465   9.523
 5519TIP3   OH240535   0.936   4.443  10.351
 5519TIP3    H140536   0.996   4.390  10.298
 5519TIP3    H240537   0.922   4.387  10.429
 5520TIP3   OH240538   0.440   4.058   9.995
 5520TIP3    H140539   0.404   3.967   9.996
 5520TIP3    H240540   0.519   4.048   9.941
 5521TIP3   OH240541   0.800   4.275  10.592
 5521TIP3    H140542   0.717   4.327  10.599
 5521TIP3    H240543   0.856   4.311  10.663
 5522TIP3   OH240544   0.859   4.897   9.763
 5522TIP3    H140545   0.778   4.851   9.729
 5522TIP3    H240546   0.835   4.911   9.857
 5523TIP3   OH240547   1.580   4.812  10.644
 5523TIP3    H140548   1.634   4.866  10.582
 5523TIP3    H240549   1.493   4.820  10.599
 5524TIP3   OH240550   1.241   4.178   9.581
 5524TIP3    H140551   1.146   4.195   9.567
 5524TIP3    H240552   1.275   4.263   9.616
 5525TIP3   OH240553   1.008   4.925  10.878
 5525TIP3    H140554   0.975   4.882  10.959
 5525TIP3    H240555   0.978   5.017  10.889
 5526TIP3   OH240556   1.315   4.372   9.741
 5526TIP3    H140557   1.402   4.359   9.784
 5526TIP3    H240558   1.326   4.454   9.691
 5527TIP3   OH240559   0.369   4.839  10.343
 5527TIP3    H140560   0.435   4.830  10.272
 5527TIP3    H240561   0.376   4.752  10.388
 5528TIP3   OH240562   1.067   5.044   9.666
 5528TIP3    H140563   1.033   5.129   9.701
 5528TIP3    H240564   0.995   4.982   9.689
 5529TIP3   OH240565   0.077   4.662  10.868
 5529TIP3    H140566   0.087   4.630  10.958
 5529TIP3    H240567   0.003   4.614  10.829
 5530TIP3   OH240568   1.234   5.168  10.883
 5530TIP3    H140569   1.143   5.184  10.856
 5530TIP3    H240570   1.239   5.193  10.976
 5531TIP3   OH240571   1.805   4.384   9.720
 5531TIP3    H140572   1.748   4.357   9.646
 5531TIP3    H240573   1.813   4.479   9.697
 5532TIP3   OH240574   1.630   5.267   9.759
 5532TIP3    H140575   1.597   5.184   9.795
 5532TIP3    H240576   1.667   5.245   9.672
 5533TIP3   OH240577   1.356   4.749  10.472
 5533TIP3    H140578   1.262   4.728  10.459
 5533TIP3    H240579   1.398   4.674  10.425
 5534TIP3   OH240580   0.608   5.182  10.082
 5534TIP3    H140581   0.657   5.264  10.061
 5534TIP3    H240582   0.520   5.205  10.049
 5535TIP3   OH240583   0.181   4.666   9.541
 5535TIP3    H140584   0.244   4.731   9.579
 5535TIP3    H240585   0.096   4.700   9.570
 5536TIP3   OH240586   0.748   4.949  10.031
 5536TIP3    H140587   0.716   5.041  10.042
 5536TIP3    H240588   0.678   4.899  10.077
 5537TIP3   OH240589   0.792   5.370  10.676
 5537TIP3    H140590   0.841   5.449  10.647
 5537TIP3    H240591   0.854   5.329  10.737
 5538TIP3   OH240592   0.617   5.448   9.984
 5538TIP3    H140593   0.520   5.462   9.999
 5538TIP3    H240594   0.653   5.531  10.019
 5539TIP3   OH240595   1.146   4.967  10.632
 5539TIP3    H140596   1.113   4.949  10.722
 5539TIP3    H240597   1.210   4.895  10.619
 5540TIP3   OH240598   1.381   5.076   9.545
 5540TIP3    H140599   1.410   5.028   9.625
 5540TIP3    H240600   1.286   5.057   9.552
 5541TIP3   OH240601   1.404   5.451  10.863
 5541TIP3    H140602   1.357   5.383  10.813
 5541TIP3    H240603   1.444   5.507  10.793
 5542TIP3   OH240604   1.826   5.511   9.570
 5542TIP3    H140605   1.894   5.577   9.549
 5542TIP3    H240606   1.754   5.572   9.599
 5543TIP3   OH240607   0.235   4.153  10.823
 5543TIP3    H140608   0.144   4.185  10.820
 5543TIP3    H240609   0.224   4.068  10.869
 5544TIP3   OH240610   1.457   4.939   9.769
 5544TIP3    H140611   1.433   4.860   9.822
 5544TIP3    H240612   1.553   4.942   9.786
 5545TIP3   OH240613   0.195   5.327  10.663
 5545TIP3    H140614   0.228   5.235  10.667
 5545TIP3    H240615   0.219   5.358  10.751
 5546TIP3   OH240616   0.794   5.183   9.395
 5546TIP3    H140617   0.802   5.106   9.335
 5546TIP3    H240618   0.747   5.139   9.470
 5547TIP3   OH240619   0.668   5.135   9.640
 5547TIP3    H140620   0.698   5.083   9.716
 5547TIP3    H240621   0.679   5.227   9.672
 5548TIP3   OH240622   0.324   4.859   9.689
 5548TIP3    H140623   0.252   4.897   9.743
 5548TIP3    H240624   0.372   4.938   9.658
 5549TIP3   OH240625   1.104   4.127  10.715
 5549TIP3    H140626   1.175   4.132  10.780
 5549TIP3    H240627   1.066   4.039  10.734
 5550TIP3   OH240628   1.181   4.084   9.829
 5550TIP3    H140629   1.204   4.130   9.746
 5550TIP3    H240630   1.239   4.129   9.892
 5551TIP3   OH240631   0.950   5.301   9.709
 5551TIP3    H140632   0.868   5.354   9.716
 5551TIP3    H240633   1.004   5.357   9.651
 5552TIP3   OH240634   0.905   4.259   9.911
 5552TIP3    H140635   0.982   4.319   9.916
 5552TIP3    H240636   0.877   4.247  10.004
 5553TIP3   OH240637   0.973   4.372  10.823
 5553TIP3    H140638   0.965   4.417  10.907
 5553TIP3    H240639   1.018   4.287  10.841
 5554TIP3   OH240640   0.989   3.965   9.997
 5554TIP3    H140641   0.956   4.030  10.062
 5554TIP3    H240642   1.058   4.020   9.954
 5555TIP3   OH240643   0.691   5.403   9.712
 5555TIP3    H140644   0.700   5.485   9.656
 5555TIP3    H240645   0.664   5.441   9.799
 5556TIP3   OH240646   0.557   4.078   9.669
 5556TIP3    H140647   0.550   4.166   9.709
 5556TIP3    H240648   0.647   4.052   9.697
 5557TIP3   OH240649   1.583   4.180  10.863
 5557TIP3    H140650   1.485   4.185  10.871
 5557TIP3    H240651   1.597   4.134  10.779
 5558TIP3   OH240652   1.439   4.528  10.314
 5558TIP3    H140653   1.357   4.483  10.288
 5558TIP3    H240654   1.488   4.460  10.367
 5559TIP3   OH240655   0.377   5.122   9.570
 5559TIP3    H140656   0.445   5.182   9.605
 5559TIP3    H240657   0.433   5.072   9.507
 5560TIP3   OH240658   0.212   4.388   9.486
 5560TIP3    H140659   0.212   4.483   9.511
 5560TIP3    H240660   0.122   4.372   9.456
 5561TIP3   OH240661   1.545   5.454  10.481
 5561TIP3    H140662   1.536   5.523  10.412
 5561TIP3    H240663   1.642   5.461  10.498
 5562TIP3   OH240664   0.291   3.870  10.358
 5562TIP3    H140665   0.272   3.865  10.262
 5562TIP3    H240666   0.256   3.783  10.388
 5563TIP3   OH240667   0.190   5.255   9.977
 5563TIP3    H140668   0.107   5.303   9.973
 5563TIP3    H240669   0.239   5.305   9.909
 5564TIP3   OH240670   0.993   5.368   9.407
 5564TIP3    H140671   0.923   5.301   9.428
 5564TIP3    H240672   1.064   5.307   9.382
 5565TIP3   OH240673   1.448   5.341   9.425
 5565TIP3    H140674   1.477   5.264   9.476
 5565TIP3    H240675   1.524   5.362   9.370
 5566TIP3   OH240676   0.533   4.936   9.403
 5566TIP3    H140677   0.548   4.861   9.464
 5566TIP3    H240678   0.611   4.925   9.345
 5567TIP3   OH240679   1.080   5.047   9.385
 5567TIP3    H140680   1.053   5.054   9.478
 5567TIP3    H240681   1.061   4.951   9.370
 5568TIP3   OH240682   1.341   4.885  10.869
 5568TIP3    H140683   1.420   4.942  10.874
 5568TIP3    H240684   1.273   4.952  10.888
 5569TIP3   OH240685   0.657   4.738   9.651
 5569TIP3    H140686   0.605   4.683   9.713
 5569TIP3    H240687   0.688   4.671   9.586
 5570TIP3   OH240688   0.584   4.532  10.868
 5570TIP3    H140689   0.519   4.598  10.897
 5570TIP3    H240690   0.622   4.567  10.787
 5571TIP3   OH240691   0.764   4.560   9.470
 5571TIP3    H140692   0.749   4.552   9.374
 5571TIP3    H240693   0.862   4.564   9.477
 5572TIP3   OH240694   1.695   4.791   9.411
 5572TIP3    H140695   1.678   4.754   9.323
 5572TIP3    H240696   1.706   4.888   9.392
 5573TIP3   OH240697   0.593   4.297  10.956
 5573TIP3    H140698   0.644   4.226  10.915
 5573TIP3    H240699   0.622   4.374  10.904
 5574TIP3   OH240700   0.663   4.092  10.741
 5574TIP3    H140701   0.714   4.140  10.672
 5574TIP3    H240702   0.574   4.084  10.699
 5575TIP3   OH240703   0.819   4.636  10.761
 5575TIP3    H140704   0.897   4.627  10.704
 5575TIP3    H240705   0.782   4.722  10.733
 5576TIP3   OH240706   0.745   3.838  10.780
 5576TIP3    H140707   0.725   3.934  10.778
 5576TIP3    H240708   0.668   3.802  10.732
 5577TIP3   OH240709   0.747   5.630   9.579
 5577TIP3    H140710   0.844   5.637   9.585
 5577TIP3    H240711   0.733   5.689   9.503
 5578TIP3   OH240712   0.106   5.088   9.523
 5578TIP3    H140713   0.203   5.098   9.544
 5578TIP3    H240714   0.113   5.018   9.456
 5579TIP3   OH240715  -0.004   5.636  10.010
 5579TIP3    H140716  -0.084   5.588   9.981
 5579TIP3    H240717   0.015   5.575  10.084
 5580TIP3   OH240718   0.084   5.442  10.202
 5580TIP3    H140719   0.036   5.358  10.218
 5580TIP3    H240720   0.095   5.478  10.292
 5581TIP3   OH240721   1.818   5.517  10.504
 5581TIP3    H140722   1.822   5.533  10.600
 5581TIP3    H240723   1.886   5.576  10.472
 5582TIP3   OH240724   1.776   5.479  10.794
 5582TIP3    H140725   1.728   5.403  10.757
 5582TIP3    H240726   1.825   5.437  10.865
 5583TIP3   OH240727   1.751   4.884   9.806
 5583TIP3    H140728   1.837   4.922   9.825
 5583TIP3    H240729   1.748   4.813   9.873
 5584TIP3   OH240730   1.786   4.692   9.996
 5584TIP3    H140731   1.711   4.642  10.035
 5584TIP3    H240732   1.846   4.704  10.072
 5585TIP3   OH240733   1.761   4.959  10.494
 5585TIP3    H140734   1.842   4.921  10.456
 5585TIP3    H240735   1.776   5.054  10.475
 5586TIP3   OH240736   1.615   5.252  10.722
 5586TIP3    H140737   1.547   5.284  10.783
 5586TIP3    H240738   1.562   5.210  10.650
 5587TIP3   OH240739   1.816   4.673   9.634
 5587TIP3    H140740   1.759   4.706   9.562
 5587TIP3    H240741   1.806   4.745   9.700
 5588TIP3   OH240742   1.654   4.395   9.485
 5588TIP3    H140743   1.662   4.462   9.415
 5588TIP3    H240744   1.635   4.313   9.435
 5589TIP3   OH240745   1.569   4.538  10.053
 5589TIP3    H140746   1.554   4.443  10.048
 5589TIP3    H240747   1.537   4.558  10.143
 5590TIP3   OH240748   0.068   4.743  10.458
 5590TIP3    H140749   0.088   4.738  10.363
 5590TIP3    H240750   0.157   4.731  10.497
 5591TIP3   OH240751   1.579   4.144   9.399
 5591TIP3    H140752   1.638   4.099   9.463
 5591TIP3    H240753   1.493   4.103   9.414
 5592TIP3   OH240754   1.532   4.296   9.893
 5592TIP3    H140755   1.564   4.204   9.910
 5592TIP3    H240756   1.615   4.337   9.864
 5593TIP3   OH240757   1.600   4.351  10.441
 5593TIP3    H140758   1.696   4.374  10.441
 5593TIP3    H240759   1.581   4.365  10.535
 5594TIP3   OH240760   1.606   4.426  10.719
 5594TIP3    H140761   1.517   4.452  10.752
 5594TIP3    H240762   1.649   4.512  10.698
 5595TIP3   OH240763   1.603   4.026   9.903
 5595TIP3    H140764   1.625   3.983   9.988
 5595TIP3    H240765   1.543   3.961   9.859
 5596TIP3   OH240766   0.150   4.106  10.365
 5596TIP3    H140767   0.200   4.024  10.386
 5596TIP3    H240768   0.205   4.175  10.404
 5597TIP3   OH240769   0.003   4.414  10.476
 5597TIP3    H140770   0.045   4.390  10.391
 5597TIP3    H240771   0.037   4.504  10.486
 5598TIP3   OH240772   1.784   4.029   9.559
 5598TIP3    H140773   1.825   3.958   9.504
 5598TIP3    H240774   1.855   4.095   9.563
 5599TIP3   OH240775   0.036   4.013   9.821
 5599TIP3    H140776  -0.057   4.037   9.836
 5599TIP3    H240777   0.073   4.094   9.780
 5600TIP3   OH240778   1.489   5.527  10.065
 5600TIP3    H140779   1.558   5.497  10.003
 5600TIP3    H240780   1.541   5.577  10.131
 5601TIP3   OH240781   0.030   3.916  10.717
 5601TIP3    H140782  -0.044   3.876  10.765
 5601TIP3    H240783  -0.024   3.970  10.654
 5602TIP3   OH240784   0.519   5.317  10.739
 5602TIP3    H140785   0.486   5.403  10.711
 5602TIP3    H240786   0.614   5.326  10.716
 5603TIP3   OH240787   1.181   5.598  -0.028
 5603TIP3    H140788   1.252   5.535  -0.050
 5603TIP3    H240789   1.222   5.628   0.056
 5604TIP3   OH240790   1.690   3.851  10.866
 5604TIP3    H140791   1.600   3.874  10.837
 5604TIP3    H240792   1.702   3.763  10.824
 5605TIP3   OH240793   0.267   5.645  10.745
 5605TIP3    H140794   0.191   5.688  10.703
 5605TIP3    H240795   0.233   5.621  10.832
 5606TIP3   OH240796   0.516   5.601  10.644
 5606TIP3    H140797   0.430   5.614  10.690
 5606TIP3    H240798   0.506   5.660  10.569
 5607TIP3   OH240799   0.982   5.591  10.570
 5607TIP3    H140800   0.938   5.646  10.503
 5607TIP3    H240801   0.996   5.655  10.643
 5608TIP3   OH240802   1.212   5.466  10.660
 5608TIP3    H140803   1.126   5.500  10.632
 5608TIP3    H240804   1.260   5.551  10.661
 5609TIP3   OH240805   1.481   5.631  10.691
 5609TIP3    H140806   1.466   5.725  10.667
 5609TIP3    H240807   1.494   5.591  10.603
 5610TIP3   OH240808   0.217   5.510  10.435
 5610TIP3    H140809   0.203   5.465  10.521
 5610TIP3    H240810   0.296   5.467  10.397
 5611TIP3   OH240811   0.420   5.376  10.302
 5611TIP3    H140812   0.405   5.283  10.326
 5611TIP3    H240813   0.505   5.393  10.348
 5612TIP3   OH240814   0.680   5.426  10.389
 5612TIP3    H140815   0.696   5.333  10.364
 5612TIP3    H240816   0.687   5.422  10.485
 5613TIP3   OH240817   1.025   3.989  10.304
 5613TIP3    H140818   0.958   3.924  10.332
 5613TIP3    H240819   1.081   3.935  10.246
 5614TIP3   OH240820   1.540   3.797  10.311
 5614TIP3    H140821   1.601   3.854  10.258
 5614TIP3    H240822   1.451   3.831  10.286
 5615TIP3   OH240823   1.705   3.922  10.137
 5615TIP3    H140824   1.774   3.864  10.096
 5615TIP3    H240825   1.758   4.005  10.149
 5616TIP3   OH240826   0.268   3.853  10.085
 5616TIP3    H140827   0.186   3.833  10.035
 5616TIP3    H240828   0.312   3.766  10.081
 5617TIP3   OH240829   0.140   3.826   9.659
 5617TIP3    H140830   0.189   3.892   9.607
 5617TIP3    H240831   0.089   3.884   9.719
 5618TIP3   OH240832   0.708   3.850  10.068
 5618TIP3    H140833   0.800   3.879  10.059
 5618TIP3    H240834   0.707   3.822  10.160
 5619TIP3   OH240835   1.285   3.849  10.229
 5619TIP3    H140836   1.276   3.860  10.133
 5619TIP3    H240837   1.243   3.759  10.243
 5620TIP3   OH240838   1.408   3.850   9.798
 5620TIP3    H140839   1.333   3.910   9.783
 5620TIP3    H240840   1.365   3.765   9.823
 5621TIP3   OH240841   0.130   5.429   9.764
 5621TIP3    H140842   0.071   5.427   9.688
 5621TIP3    H240843   0.130   5.525   9.780
 5622TIP3   OH240844   0.325   4.022   9.512
 5622TIP3    H140845   0.378   3.961   9.459
 5622TIP3    H240846   0.394   4.054   9.575
 5623TIP3   OH240847   0.825   4.047   9.752
 5623TIP3    H140848   0.851   3.990   9.827
 5623TIP3    H240849   0.833   4.134   9.797
 5624TIP3   OH240850   1.019   5.556   9.597
 5624TIP3    H140851   1.111   5.576   9.575
 5624TIP3    H240852   0.997   5.503   9.517
 5625TIP3   OH240853   1.687   5.504   9.870
 5625TIP3    H140854   1.669   5.426   9.813
 5625TIP3    H240855   1.681   5.578   9.805
 5626TIP3   OH240856   0.305   5.512   9.455
 5626TIP3    H140857   0.286   5.548   9.543
 5626TIP3    H240858   0.391   5.467   9.471
 5627TIP3   OH240859   3.059   4.768  10.072
 5627TIP3    H140860   3.055   4.866  10.072
 5627TIP3    H240861   2.984   4.745  10.014
 5628TIP3   OH240862   2.942   4.692  10.424
 5628TIP3    H140863   2.942   4.627  10.496
 5628TIP3    H240864   2.907   4.641  10.349
 5629TIP3   OH240865   2.178   4.660  10.578
 5629TIP3    H140866   2.187   4.592  10.647
 5629TIP3    H240867   2.253   4.717  10.601
 5630TIP3   OH240868   3.311   4.988  10.253
 5630TIP3    H140869   3.270   4.917  10.302
 5630TIP3    H240870   3.314   5.058  10.320
 5631TIP3   OH240871   2.270   5.106  10.427
 5631TIP3    H140872   2.240   5.018  10.397
 5631TIP3    H240873   2.366   5.088  10.436
 5632TIP3   OH240874   1.934   4.460   9.979
 5632TIP3    H140875   1.891   4.548   9.972
 5632TIP3    H240876   1.878   4.406   9.921
 5633TIP3   OH240877   2.006   4.684  10.195
 5633TIP3    H140878   2.034   4.601  10.238
 5633TIP3    H240879   2.074   4.695  10.127
 5634TIP3   OH240880   3.023   5.504  10.278
 5634TIP3    H140881   3.088   5.436  10.247
 5634TIP3    H240882   3.003   5.469  10.365
 5635TIP3   OH240883   2.779   4.932  10.476
 5635TIP3    H140884   2.813   4.872  10.408
 5635TIP3    H240885   2.862   4.949  10.524
 5636TIP3   OH240886   3.640   4.099  10.547
 5636TIP3    H140887   3.658   4.161  10.619
 5636TIP3    H240888   3.696   4.139  10.478
 5637TIP3   OH240889   3.094   4.379  10.506
 5637TIP3    H140890   3.114   4.284  10.506
 5637TIP3    H240891   3.086   4.394  10.409
 5638TIP3   OH240892   2.408   4.189  10.224
 5638TIP3    H140893   2.420   4.272  10.174
 5638TIP3    H240894   2.369   4.131  10.155
 5639TIP3   OH240895   3.182   4.196  10.062
 5639TIP3    H140896   3.246   4.164  10.129
 5639TIP3    H240897   3.238   4.255  10.010
 5640TIP3   OH240898   2.070   4.431  10.297
 5640TIP3    H140899   2.137   4.376  10.343
 5640TIP3    H240900   2.082   4.398  10.206
 5641TIP3   OH240901   2.586   4.586  10.231
 5641TIP3    H140902   2.654   4.527  10.269
 5641TIP3    H240903   2.535   4.520  10.179
 5642TIP3   OH240904   3.706   4.262  10.776
 5642TIP3    H140905   3.622   4.311  10.751
 5642TIP3    H240906   3.673   4.206  10.846
 5643TIP3   OH240907   2.300   4.077  10.624
 5643TIP3    H140908   2.272   4.138  10.553
 5643TIP3    H240909   2.235   4.099  10.694
 5644TIP3   OH240910   3.027   5.026   9.983
 5644TIP3    H140911   3.002   5.000   9.893
 5644TIP3    H240912   2.997   5.120   9.988
 5645TIP3   OH240913   2.550   4.843  10.655
 5645TIP3    H140914   2.480   4.909  10.674
 5645TIP3    H240915   2.621   4.902  10.622
 5646TIP3   OH240916   3.364   4.131  10.261
 5646TIP3    H140917   3.342   4.055  10.315
 5646TIP3    H240918   3.431   4.175  10.316
 5647TIP3   OH240919   2.254   4.267  10.428
 5647TIP3    H140920   2.318   4.333  10.462
 5647TIP3    H240921   2.308   4.224  10.357
 5648TIP3   OH240922   2.397   5.045  10.734
 5648TIP3    H140923   2.390   5.138  10.705
 5648TIP3    H240924   2.310   5.036  10.779
 5649TIP3   OH240925   2.004   5.003   9.812
 5649TIP3    H140926   1.979   5.039   9.725
 5649TIP3    H240927   2.012   5.085   9.865
 5650TIP3   OH240928   3.364   5.172  10.490
 5650TIP3    H140929   3.267   5.183  10.500
 5650TIP3    H240930   3.391   5.264  10.469
 5651TIP3   OH240931   3.396   4.008  10.637
 5651TIP3    H140932   3.320   4.064  10.615
 5651TIP3    H240933   3.465   4.039  10.575
 5652TIP3   OH240934   2.692   3.812  10.373
 5652TIP3    H140935   2.677   3.716  10.367
 5652TIP3    H240936   2.605   3.843  10.407
 5653TIP3   OH240937   3.190   5.350  10.147
 5653TIP3    H140938   3.232   5.278  10.097
 5653TIP3    H240939   3.236   5.429  10.109
 5654TIP3   OH240940   3.312   5.143  10.000
 5654TIP3    H140941   3.282   5.073   9.940
 5654TIP3    H240942   3.315   5.093  10.084
 5655TIP3   OH240943   3.476   5.000  10.847
 5655TIP3    H140944   3.489   4.941  10.770
 5655TIP3    H240945   3.498   5.087  10.810
 5656TIP3   OH240946   2.922   4.690   9.825
 5656TIP3    H140947   2.854   4.750   9.788
 5656TIP3    H240948   2.994   4.701   9.759
 5657TIP3   OH240949   2.932   4.549   9.526
 5657TIP3    H140950   3.002   4.548   9.593
 5657TIP3    H240951   2.962   4.476   9.470
 5658TIP3   OH240952   3.663   4.631  10.651
 5658TIP3    H140953   3.599   4.705  10.658
 5658TIP3    H240954   3.712   4.658  10.571
 5659TIP3   OH240955   3.270   4.711   9.917
 5659TIP3    H140956   3.195   4.736   9.977
 5659TIP3    H240957   3.317   4.645   9.970
 5660TIP3   OH240958   3.260   4.526  10.829
 5660TIP3    H140959   3.259   4.606  10.883
 5660TIP3    H240960   3.197   4.555  10.760
 5661TIP3   OH240961   2.429   4.778  10.109
 5661TIP3    H140962   2.397   4.739  10.024
 5661TIP3    H240963   2.490   4.709  10.143
 5662TIP3   OH240964   2.560   5.115  10.377
 5662TIP3    H140965   2.561   5.064  10.295
 5662TIP3    H240966   2.640   5.080  10.422
 5663TIP3   OH240967   2.462   4.654  10.476
 5663TIP3    H140968   2.516   4.663  10.395
 5663TIP3    H240969   2.502   4.718  10.538
 5664TIP3   OH240970   3.105   5.210  10.547
 5664TIP3    H140971   3.074   5.277  10.609
 5664TIP3    H240972   3.078   5.125  10.589
 5665TIP3   OH240973   2.570   5.117  10.935
 5665TIP3    H140974   2.522   5.170  11.000
 5665TIP3    H240975   2.495   5.084  10.880
 5666TIP3   OH240976   3.156   4.633   9.684
 5666TIP3    H140977   3.211   4.651   9.764
 5666TIP3    H240978   3.202   4.683   9.612
 5667TIP3   OH240979   2.251   4.712  10.866
 5667TIP3    H140980   2.256   4.779  10.936
 5667TIP3    H240981   2.158   4.719  10.839
 5668TIP3   OH240982   2.927   5.305  10.032
 5668TIP3    H140983   2.970   5.336  10.112
 5668TIP3    H240984   2.871   5.380  10.007
 5669TIP3   OH240985   3.529   3.806   9.676
 5669TIP3    H140986   3.434   3.816   9.699
 5669TIP3    H240987   3.548   3.889   9.631
 5670TIP3   OH240988   2.324   4.679   9.873
 5670TIP3    H140989   2.297   4.758   9.821
 5670TIP3    H240990   2.260   4.613   9.847
 5671TIP3   OH240991   3.640   5.241   9.510
 5671TIP3    H140992   3.657   5.335   9.527
 5671TIP3    H240993   3.732   5.209   9.511
 5672TIP3   OH240994   1.938   4.923  10.754
 5672TIP3    H140995   1.889   4.916  10.671
 5672TIP3    H240996   1.941   4.830  10.783
 5673TIP3   OH240997   1.912   5.197  10.438
 5673TIP3    H140998   2.007   5.184  10.436
 5673TIP3    H240999   1.904   5.277  10.492
 5674TIP3   OH241000   2.818   5.195  10.870
 5674TIP3    H141001   2.829   5.286  10.904
 5674TIP3    H241002   2.732   5.168  10.910
 5675TIP3   OH241003   2.876   5.595   9.872
 5675TIP3    H141004   2.864   5.588   9.776
 5675TIP3    H241005   2.875   5.691   9.889
 5676TIP3   OH241006   2.239   5.484  10.056
 5676TIP3    H141007   2.254   5.442  10.143
 5676TIP3    H241008   2.154   5.442  10.032
 5677TIP3   OH241009   3.181   5.517   9.571
 5677TIP3    H141010   3.227   5.441   9.528
 5677TIP3    H241011   3.185   5.491   9.665
 5678TIP3   OH241012   3.150   5.511   9.849
 5678TIP3    H141013   3.054   5.518   9.865
 5678TIP3    H241014   3.173   5.436   9.906
 5679TIP3   OH241015   2.163   5.053  10.853
 5679TIP3    H141016   2.184   5.017  10.939
 5679TIP3    H241017   2.074   5.017  10.832
 5680TIP3   OH241018   2.432   3.905  10.445
 5680TIP3    H141019   2.341   3.890  10.413
 5680TIP3    H241020   2.419   3.984  10.500
 5681TIP3   OH241021   2.894   3.876  10.788
 5681TIP3    H141022   2.933   3.829  10.863
 5681TIP3    H241023   2.798   3.859  10.802
 5682TIP3   OH241024   3.210   4.250  10.872
 5682TIP3    H141025   3.174   4.237  10.962
 5682TIP3    H241026   3.207   4.347  10.855
 5683TIP3   OH241027   3.301   4.736   9.468
 5683TIP3    H141028   3.297   4.717   9.372
 5683TIP3    H241029   3.387   4.781   9.471
 5684TIP3   OH241030   2.860   4.129   9.517
 5684TIP3    H141031   2.828   4.122   9.609
 5684TIP3    H241032   2.829   4.041   9.486
 5685TIP3   OH241033   2.439   4.400  10.575
 5685TIP3    H141034   2.367   4.400  10.641
 5685TIP3    H241035   2.434   4.491  10.537
 5686TIP3   OH241036   2.438   4.410  10.062
 5686TIP3    H141037   2.344   4.386  10.049
 5686TIP3    H241038   2.475   4.383   9.976
 5687TIP3   OH241039   2.990   4.462   9.940
 5687TIP3    H141040   2.951   4.544   9.902
 5687TIP3    H241041   3.058   4.444   9.873
 5688TIP3   OH241042   3.094   4.412  10.224
 5688TIP3    H141043   3.064   4.468  10.150
 5688TIP3    H241044   3.103   4.327  10.177
 5689TIP3   OH241045   2.200   4.427  10.746
 5689TIP3    H141046   2.211   4.465  10.836
 5689TIP3    H241047   2.164   4.339  10.765
 5690TIP3   OH241048   2.540   4.164   9.428
 5690TIP3    H141049   2.494   4.122   9.505
 5690TIP3    H241050   2.470   4.208   9.380
 5691TIP3   OH241051   1.870   4.134  10.143
 5691TIP3    H141052   1.939   4.131  10.213
 5691TIP3    H241053   1.915   4.098  10.064
 5692TIP3   OH241054   1.996   4.207   9.677
 5692TIP3    H141055   2.048   4.267   9.621
 5692TIP3    H241056   1.928   4.270   9.708
 5693TIP3   OH241057   3.017   4.568  10.686
 5693TIP3    H141058   3.052   4.501  10.622
 5693TIP3    H241059   2.964   4.513  10.746
 5694TIP3   OH241060   2.694   4.168  10.163
 5694TIP3    H141061   2.600   4.167  10.192
 5694TIP3    H241062   2.741   4.149  10.245
 5695TIP3   OH241063   2.174   4.321  10.049
 5695TIP3    H141064   2.086   4.338  10.010
 5695TIP3    H241065   2.203   4.237  10.009
 5696TIP3   OH241066   2.538   4.327   9.812
 5696TIP3    H141067   2.634   4.338   9.827
 5696TIP3    H241068   2.514   4.395   9.747
 5697TIP3   OH241069   3.136   4.090  10.490
 5697TIP3    H141070   3.065   4.097  10.558
 5697TIP3    H241071   3.085   4.065  10.410
 5698TIP3   OH241072   2.410   4.444   9.571
 5698TIP3    H141073   2.356   4.406   9.499
 5698TIP3    H241074   2.491   4.466   9.523
 5699TIP3   OH241075   2.821   4.443  10.351
 5699TIP3    H141076   2.882   4.390  10.298
 5699TIP3    H241077   2.807   4.387  10.429
 5700TIP3   OH241078   2.322   4.057   9.995
 5700TIP3    H141079   2.291   3.965   9.996
 5700TIP3    H241080   2.401   4.049   9.940
 5701TIP3   OH241081   2.686   4.275  10.592
 5701TIP3    H141082   2.603   4.327  10.599
 5701TIP3    H241083   2.741   4.311  10.663
 5702TIP3   OH241084   2.744   4.897   9.763
 5702TIP3    H141085   2.664   4.851   9.729
 5702TIP3    H241086   2.721   4.911   9.857
 5703TIP3   OH241087   3.466   4.812  10.644
 5703TIP3    H141088   3.520   4.866  10.582
 5703TIP3    H241089   3.379   4.820  10.599
 5704TIP3   OH241090   3.126   4.178   9.581
 5704TIP3    H141091   3.032   4.195   9.567
 5704TIP3    H241092   3.161   4.263   9.616
 5705TIP3   OH241093   2.894   4.925  10.878
 5705TIP3    H141094   2.861   4.882  10.959
 5705TIP3    H241095   2.864   5.017  10.889
 5706TIP3   OH241096   3.200   4.372   9.741
 5706TIP3    H141097   3.288   4.358   9.784
 5706TIP3    H241098   3.212   4.454   9.691
 5707TIP3   OH241099   2.256   4.838  10.343
 5707TIP3    H141100   2.322   4.829  10.272
 5707TIP3    H241101   2.261   4.752  10.388
 5708TIP3   OH241102   2.953   5.044   9.666
 5708TIP3    H141103   2.919   5.129   9.701
 5708TIP3    H241104   2.880   4.982   9.688
 5709TIP3   OH241105   1.952   4.680  10.868
 5709TIP3    H141106   1.972   4.637  10.952
 5709TIP3    H241107   1.893   4.617  10.823
 5710TIP3   OH241108   3.120   5.168  10.883
 5710TIP3    H141109   3.029   5.183  10.856
 5710TIP3    H241110   3.125   5.193  10.976
 5711TIP3   OH241111   3.691   4.384   9.720
 5711TIP3    H141112   3.634   4.357   9.646
 5711TIP3    H241113   3.699   4.479   9.697
 5712TIP3   OH241114   3.515   5.267   9.759
 5712TIP3    H141115   3.483   5.184   9.795
 5712TIP3    H241116   3.552   5.245   9.672
 5713TIP3   OH241117   3.241   4.748  10.472
 5713TIP3    H141118   3.147   4.728  10.459
 5713TIP3    H241119   3.284   4.674  10.425
 5714TIP3   OH241120   2.493   5.183  10.082
 5714TIP3    H141121   2.542   5.264  10.061
 5714TIP3    H241122   2.405   5.206  10.048
 5715TIP3   OH241123   2.070   4.666   9.539
 5715TIP3    H141124   2.127   4.733   9.580
 5715TIP3    H241125   1.980   4.697   9.563
 5716TIP3   OH241126   2.633   4.949  10.031
 5716TIP3    H141127   2.601   5.041  10.042
 5716TIP3    H241128   2.563   4.899  10.077
 5717TIP3   OH241129   2.677   5.370  10.676
 5717TIP3    H141130   2.727   5.448  10.647
 5717TIP3    H241131   2.740   5.329  10.737
 5718TIP3   OH241132   2.502   5.448   9.985
 5718TIP3    H141133   2.406   5.462   9.999
 5718TIP3    H241134   2.539   5.531  10.019
 5719TIP3   OH241135   3.032   4.967  10.632
 5719TIP3    H141136   2.999   4.949  10.722
 5719TIP3    H241137   3.096   4.895  10.619
 5720TIP3   OH241138   3.266   5.076   9.545
 5720TIP3    H141139   3.295   5.028   9.625
 5720TIP3    H241140   3.171   5.057   9.552
 5721TIP3   OH241141   3.289   5.452  10.864
 5721TIP3    H141142   3.243   5.383  10.814
 5721TIP3    H241143   3.330   5.507  10.793
 5722TIP3   OH241144   3.712   5.510   9.571
 5722TIP3    H141145   3.780   5.577   9.549
 5722TIP3    H241146   3.640   5.571   9.599
 5723TIP3   OH241147   2.120   4.155  10.822
 5723TIP3    H141148   2.028   4.187  10.817
 5723TIP3    H241149   2.114   4.069  10.867
 5724TIP3   OH241150   3.343   4.939   9.769
 5724TIP3    H141151   3.319   4.860   9.822
 5724TIP3    H241152   3.438   4.942   9.786
 5725TIP3   OH241153   2.083   5.329  10.665
 5725TIP3    H141154   2.111   5.236  10.667
 5725TIP3    H241155   2.110   5.358  10.754
 5726TIP3   OH241156   2.679   5.183   9.395
 5726TIP3    H141157   2.688   5.106   9.335
 5726TIP3    H241158   2.633   5.139   9.470
 5727TIP3   OH241159   2.554   5.135   9.640
 5727TIP3    H141160   2.583   5.083   9.717
 5727TIP3    H241161   2.565   5.227   9.673
 5728TIP3   OH241162   2.210   4.859   9.689
 5728TIP3    H141163   2.138   4.899   9.741
 5728TIP3    H241164   2.260   4.937   9.658
 5729TIP3   OH241165   2.990   4.127  10.716
 5729TIP3    H141166   3.061   4.132  10.781
 5729TIP3    H241167   2.952   4.039  10.734
 5730TIP3   OH241168   3.066   4.084   9.829
 5730TIP3    H141169   3.089   4.130   9.746
 5730TIP3    H241170   3.124   4.129   9.892
 5731TIP3   OH241171   2.836   5.301   9.709
 5731TIP3    H141172   2.754   5.354   9.717
 5731TIP3    H241173   2.890   5.357   9.651
 5732TIP3   OH241174   2.790   4.259   9.911
 5732TIP3    H141175   2.867   4.319   9.916
 5732TIP3    H241176   2.763   4.247  10.004
 5733TIP3   OH241177   2.859   4.372  10.823
 5733TIP3    H141178   2.850   4.417  10.907
 5733TIP3    H241179   2.903   4.287  10.841
 5734TIP3   OH241180   2.874   3.965   9.998
 5734TIP3    H141181   2.842   4.031  10.061
 5734TIP3    H241182   2.944   4.020   9.954
 5735TIP3   OH241183   2.577   5.404   9.713
 5735TIP3    H141184   2.585   5.485   9.657
 5735TIP3    H241185   2.548   5.441   9.799
 5736TIP3   OH241186   2.440   4.076   9.670
 5736TIP3    H141187   2.435   4.166   9.709
 5736TIP3    H241188   2.531   4.052   9.696
 5737TIP3   OH241189   3.473   4.184  10.858
 5737TIP3    H141190   3.375   4.185  10.871
 5737TIP3    H241191   3.480   4.131  10.778
 5738TIP3   OH241192   3.325   4.528  10.314
 5738TIP3    H141193   3.242   4.483  10.287
 5738TIP3    H241194   3.373   4.460  10.366
 5739TIP3   OH241195   2.263   5.121   9.573
 5739TIP3    H141196   2.331   5.182   9.606
 5739TIP3    H241197   2.316   5.073   9.506
 5740TIP3   OH241198   2.098   4.388   9.489
 5740TIP3    H141199   2.100   4.484   9.510
 5740TIP3    H241200   2.009   4.372   9.458
 5741TIP3   OH241201   3.431   5.455  10.481
 5741TIP3    H141202   3.422   5.523  10.411
 5741TIP3    H241203   3.527   5.461  10.498
 5742TIP3   OH241204   2.178   3.866  10.364
 5742TIP3    H141205   2.161   3.868  10.267
 5742TIP3    H241206   2.139   3.780  10.388
 5743TIP3   OH241207   2.075   5.259   9.979
 5743TIP3    H141208   1.990   5.302   9.972
 5743TIP3    H241209   2.122   5.304   9.907
 5744TIP3   OH241210   2.878   5.367   9.407
 5744TIP3    H141211   2.808   5.301   9.428
 5744TIP3    H241212   2.950   5.307   9.382
 5745TIP3   OH241213   3.334   5.341   9.425
 5745TIP3    H141214   3.363   5.264   9.476
 5745TIP3    H241215   3.410   5.362   9.370
 5746TIP3   OH241216   2.422   4.936   9.406
 5746TIP3    H141217   2.436   4.860   9.465
 5746TIP3    H241218   2.497   4.924   9.345
 5747TIP3   OH241219   2.965   5.047   9.385
 5747TIP3    H141220   2.938   5.054   9.478
 5747TIP3    H241221   2.947   4.951   9.370
 5748TIP3   OH241222   3.226   4.885  10.870
 5748TIP3    H141223   3.306   4.942  10.874
 5748TIP3    H241224   3.158   4.952  10.888
 5749TIP3   OH241225   2.542   4.738   9.651
 5749TIP3    H141226   2.491   4.683   9.713
 5749TIP3    H241227   2.573   4.671   9.586
 5750TIP3   OH241228   2.469   4.532  10.868
 5750TIP3    H141229   2.405   4.598  10.897
 5750TIP3    H241230   2.508   4.568  10.787
 5751TIP3   OH241231   2.650   4.560   9.470
 5751TIP3    H141232   2.635   4.552   9.373
 5751TIP3    H241233   2.748   4.564   9.477
 5752TIP3   OH241234   3.581   4.791   9.411
 5752TIP3    H141235   3.564   4.754   9.323
 5752TIP3    H241236   3.591   4.888   9.392
 5753TIP3   OH241237   2.477   4.297  10.955
 5753TIP3    H141238   2.529   4.226  10.915
 5753TIP3    H241239   2.508   4.375  10.903
 5754TIP3   OH241240   2.548   4.092  10.741
 5754TIP3    H141241   2.600   4.140  10.672
 5754TIP3    H241242   2.460   4.084  10.699
 5755TIP3   OH241243   2.705   4.636  10.760
 5755TIP3    H141244   2.782   4.627  10.704
 5755TIP3    H241245   2.668   4.723  10.734
 5756TIP3   OH241246   2.630   3.837  10.781
 5756TIP3    H141247   2.612   3.933  10.779
 5756TIP3    H241248   2.554   3.802  10.732
 5757TIP3   OH241249   2.632   5.630   9.578
 5757TIP3    H141250   2.729   5.637   9.585
 5757TIP3    H241251   2.619   5.689   9.503
 5758TIP3   OH241252   1.987   5.086   9.525
 5758TIP3    H141253   2.084   5.096   9.543
 5758TIP3    H241254   1.992   5.023   9.450
 5759TIP3   OH241255   1.866   5.625  10.021
 5759TIP3    H141256   1.794   5.576   9.976
 5759TIP3    H241257   1.894   5.560  10.088
 5760TIP3   OH241258   1.948   5.439  10.210
 5760TIP3    H141259   1.913   5.352  10.230
 5760TIP3    H241260   1.972   5.472  10.298
 5761TIP3   OH241261   3.703   5.517  10.504
 5761TIP3    H141262   3.708   5.533  10.600
 5761TIP3    H241263   3.772   5.576  10.472
 5762TIP3   OH241264   3.662   5.479  10.794
 5762TIP3    H141265   3.613   5.403  10.757
 5762TIP3    H241266   3.711   5.437  10.865
 5763TIP3   OH241267   3.636   4.884   9.806
 5763TIP3    H141268   3.723   4.923   9.825
 5763TIP3    H241269   3.634   4.813   9.873
 5764TIP3   OH241270   3.672   4.692   9.996
 5764TIP3    H141271   3.596   4.642  10.035
 5764TIP3    H241272   3.731   4.704  10.072
 5765TIP3   OH241273   3.647   4.959  10.494
 5765TIP3    H141274   3.728   4.921  10.457
 5765TIP3    H241275   3.662   5.054  10.475
 5766TIP3   OH241276   3.500   5.252  10.722
 5766TIP3    H141277   3.432   5.284  10.783
 5766TIP3    H241278   3.448   5.210  10.650
 5767TIP3   OH241279   3.702   4.673   9.634
 5767TIP3    H141280   3.645   4.706   9.562
 5767TIP3    H241281   3.691   4.745   9.700
 5768TIP3   OH241282   3.540   4.395   9.485
 5768TIP3    H141283   3.547   4.462   9.415
 5768TIP3    H241284   3.521   4.313   9.435
 5769TIP3   OH241285   3.454   4.538  10.053
 5769TIP3    H141286   3.440   4.443  10.048
 5769TIP3    H241287   3.422   4.559  10.142
 5770TIP3   OH241288   1.955   4.748  10.459
 5770TIP3    H141289   1.972   4.738  10.362
 5770TIP3    H241290   2.044   4.728  10.495
 5771TIP3   OH241291   3.465   4.144   9.399
 5771TIP3    H141292   3.523   4.099   9.463
 5771TIP3    H241293   3.378   4.103   9.414
 5772TIP3   OH241294   3.418   4.296   9.893
 5772TIP3    H141295   3.450   4.204   9.910
 5772TIP3    H241296   3.501   4.337   9.864
 5773TIP3   OH241297   3.485   4.351  10.440
 5773TIP3    H141298   3.581   4.374  10.440
 5773TIP3    H241299   3.465   4.365  10.533
 5774TIP3   OH241300   3.494   4.427  10.725
 5774TIP3    H141301   3.402   4.452  10.749
 5774TIP3    H241302   3.533   4.513  10.695
 5775TIP3   OH241303   3.488   4.025   9.903
 5775TIP3    H141304   3.510   3.983   9.988
 5775TIP3    H241305   3.429   3.961   9.859
 5776TIP3   OH241306   2.035   4.106  10.361
 5776TIP3    H141307   2.082   4.023  10.384
 5776TIP3    H241308   2.092   4.175  10.397
 5777TIP3   OH241309   1.864   4.405  10.461
 5777TIP3    H141310   1.921   4.380  10.386
 5777TIP3    H241311   1.911   4.485  10.489
 5778TIP3   OH241312   3.670   4.029   9.559
 5778TIP3    H141313   3.710   3.958   9.504
 5778TIP3    H241314   3.740   4.095   9.563
 5779TIP3   OH241315   1.902   4.035   9.871
 5779TIP3    H141316   1.807   4.049   9.854
 5779TIP3    H241317   1.943   4.082   9.797
 5780TIP3   OH241318   3.375   5.527  10.065
 5780TIP3    H141319   3.443   5.498  10.003
 5780TIP3    H241320   3.426   5.577  10.131
 5781TIP3   OH241321   1.897   3.901  10.700
 5781TIP3    H141322   1.829   3.879  10.766
 5781TIP3    H241323   1.849   3.966  10.645
 5782TIP3   OH241324   2.407   5.317  10.740
 5782TIP3    H141325   2.375   5.403  10.712
 5782TIP3    H241326   2.501   5.325  10.715
 5783TIP3   OH241327   3.069   5.604  -0.029
 5783TIP3    H141328   3.137   5.536  -0.050
 5783TIP3    H241329   3.108   5.626   0.057
 5784TIP3   OH241330   3.576   3.853  10.866
 5784TIP3    H141331   3.485   3.872  10.836
 5784TIP3    H241332   3.588   3.764  10.826
 5785TIP3   OH241333   2.150   5.644  10.745
 5785TIP3    H141334   2.075   5.691  10.705
 5785TIP3    H241335   2.118   5.619  10.833
 5786TIP3   OH241336   2.398   5.599  10.643
 5786TIP3    H141337   2.313   5.616  10.690
 5786TIP3    H241338   2.392   5.661  10.569
 5787TIP3   OH241339   2.868   5.589  10.569
 5787TIP3    H141340   2.824   5.645  10.503
 5787TIP3    H241341   2.881   5.652  10.642
 5788TIP3   OH241342   3.098   5.466  10.660
 5788TIP3    H141343   3.012   5.500  10.632
 5788TIP3    H241344   3.145   5.551  10.661
 5789TIP3   OH241345   3.367   5.630  10.690
 5789TIP3    H141346   3.353   5.724  10.666
 5789TIP3    H241347   3.380   5.590  10.602
 5790TIP3   OH241348   2.100   5.507  10.437
 5790TIP3    H141349   2.092   5.461  10.523
 5790TIP3    H241350   2.181   5.467  10.399
 5791TIP3   OH241351   2.306   5.377  10.302
 5791TIP3    H141352   2.290   5.284  10.326
 5791TIP3    H241353   2.392   5.393  10.348
 5792TIP3   OH241354   2.568   5.427  10.388
 5792TIP3    H141355   2.581   5.334  10.364
 5792TIP3    H241356   2.571   5.422  10.485
 5793TIP3   OH241357   2.912   3.991  10.304
 5793TIP3    H141358   2.844   3.927  10.332
 5793TIP3    H241359   2.967   3.937  10.246
 5794TIP3   OH241360   3.426   3.797  10.311
 5794TIP3    H141361   3.486   3.854  10.258
 5794TIP3    H241362   3.337   3.831  10.286
 5795TIP3   OH241363   3.591   3.922  10.137
 5795TIP3    H141364   3.660   3.864  10.096
 5795TIP3    H241365   3.643   4.005  10.148
 5796TIP3   OH241366   2.150   3.853  10.088
 5796TIP3    H141367   2.070   3.835  10.036
 5796TIP3    H241368   2.195   3.766  10.082
 5797TIP3   OH241369   2.025   3.828   9.660
 5797TIP3    H141370   2.075   3.893   9.607
 5797TIP3    H241371   1.969   3.886   9.715
 5798TIP3   OH241372   2.595   3.846  10.068
 5798TIP3    H141373   2.685   3.881  10.058
 5798TIP3    H241374   2.593   3.825  10.161
 5799TIP3   OH241375   3.169   3.847  10.229
 5799TIP3    H141376   3.161   3.859  10.134
 5799TIP3    H241377   3.130   3.758  10.242
 5800TIP3   OH241378   3.294   3.851   9.798
 5800TIP3    H141379   3.219   3.910   9.783
 5800TIP3    H241380   3.250   3.765   9.822
 5801TIP3   OH241381   2.016   5.423   9.765
 5801TIP3    H141382   1.952   5.421   9.692
 5801TIP3    H241383   2.017   5.519   9.781
 5802TIP3   OH241384   2.208   4.023   9.512
 5802TIP3    H141385   2.261   3.961   9.459
 5802TIP3    H241386   2.274   4.056   9.575
 5803TIP3   OH241387   2.710   4.047   9.752
 5803TIP3    H141388   2.736   3.990   9.826
 5803TIP3    H241389   2.719   4.134   9.797
 5804TIP3   OH241390   2.905   5.556   9.596
 5804TIP3    H141391   2.997   5.576   9.575
 5804TIP3    H241392   2.882   5.502   9.517
 5805TIP3   OH241393   3.573   5.504   9.870
 5805TIP3    H141394   3.555   5.426   9.813
 5805TIP3    H241395   3.567   5.578   9.805
 5806TIP3   OH241396   2.196   5.523   9.458
 5806TIP3    H141397   2.170   5.548   9.548
 5806TIP3    H241398   2.274   5.466   9.473
 5807TIP3   OH241399   4.944   4.768  10.072
 5807TIP3    H141400   4.941   4.866  10.072
 5807TIP3    H241401   4.870   4.745  10.014
 5808TIP3   OH241402   4.828   4.692  10.424
 5808TIP3    H141403   4.828   4.627  10.496
 5808TIP3    H241404   4.793   4.641  10.349
 5809TIP3   OH241405   4.064   4.660  10.578
 5809TIP3    H141406   4.072   4.592  10.647
 5809TIP3    H241407   4.138   4.718  10.601
 5810TIP3   OH241408   5.196   4.988  10.253
 5810TIP3    H141409   5.155   4.916  10.303
 5810TIP3    H241410   5.199   5.058  10.320
 5811TIP3   OH241411   4.156   5.106  10.426
 5811TIP3    H141412   4.126   5.018  10.397
 5811TIP3    H241413   4.251   5.088  10.436
 5812TIP3   OH241414   3.819   4.460   9.979
 5812TIP3    H141415   3.776   4.548   9.972
 5812TIP3    H241416   3.764   4.406   9.921
 5813TIP3   OH241417   3.892   4.684  10.195
 5813TIP3    H141418   3.920   4.601  10.238
 5813TIP3    H241419   3.960   4.695  10.127
 5814TIP3   OH241420   4.908   5.504  10.278
 5814TIP3    H141421   4.973   5.436  10.247
 5814TIP3    H241422   4.888   5.469  10.365
 5815TIP3   OH241423   4.665   4.932  10.476
 5815TIP3    H141424   4.698   4.872  10.408
 5815TIP3    H241425   4.748   4.949  10.524
 5816TIP3   OH241426   5.525   4.100  10.546
 5816TIP3    H141427   5.543   4.159  10.621
 5816TIP3    H241428   5.583   4.140  10.480
 5817TIP3   OH241429   4.979   4.380  10.505
 5817TIP3    H141430   4.999   4.285  10.506
 5817TIP3    H241431   4.971   4.394  10.409
 5818TIP3   OH241432   4.294   4.189  10.224
 5818TIP3    H141433   4.305   4.272  10.174
 5818TIP3    H241434   4.254   4.131  10.155
 5819TIP3   OH241435   5.067   4.196  10.062
 5819TIP3    H141436   5.132   4.164  10.129
 5819TIP3    H241437   5.124   4.255  10.010
 5820TIP3   OH241438   3.955   4.430  10.297
 5820TIP3    H141439   4.022   4.377  10.344
 5820TIP3    H241440   3.968   4.398  10.206
 5821TIP3   OH241441   4.472   4.586  10.231
 5821TIP3    H141442   4.540   4.527  10.269
 5821TIP3    H241443   4.421   4.520  10.179
 5822TIP3   OH241444   5.587   4.256  10.770
 5822TIP3    H141445   5.508   4.315  10.758
 5822TIP3    H241446   5.570   4.230  10.861
 5823TIP3   OH241447   4.187   4.078  10.621
 5823TIP3    H141448   4.157   4.139  10.551
 5823TIP3    H241449   4.124   4.099  10.693
 5824TIP3   OH241450   4.913   5.026   9.983
 5824TIP3    H141451   4.888   5.000   9.893
 5824TIP3    H241452   4.883   5.120   9.988
 5825TIP3   OH241453   4.436   4.843  10.655
 5825TIP3    H141454   4.365   4.909  10.674
 5825TIP3    H241455   4.506   4.902  10.622
 5826TIP3   OH241456   5.250   4.132  10.261
 5826TIP3    H141457   5.228   4.055  10.315
 5826TIP3    H241458   5.317   4.175  10.317
 5827TIP3   OH241459   4.140   4.267  10.427
 5827TIP3    H141460   4.203   4.333  10.462
 5827TIP3    H241461   4.194   4.224  10.356
 5828TIP3   OH241462   4.281   5.044  10.731
 5828TIP3    H141463   4.277   5.139  10.707
 5828TIP3    H241464   4.196   5.037  10.780
 5829TIP3   OH241465   3.889   5.003   9.812
 5829TIP3    H141466   3.865   5.039   9.725
 5829TIP3    H241467   3.898   5.085   9.865
 5830TIP3   OH241468   5.249   5.172  10.490
 5830TIP3    H141469   5.152   5.183  10.501
 5830TIP3    H241470   5.276   5.264  10.469
 5831TIP3   OH241471   5.280   4.004  10.633
 5831TIP3    H141472   5.207   4.065  10.617
 5831TIP3    H241473   5.352   4.040  10.577
 5832TIP3   OH241474   4.577   3.811  10.372
 5832TIP3    H141475   4.562   3.715  10.367
 5832TIP3    H241476   4.491   3.842  10.407
 5833TIP3   OH241477   5.076   5.350  10.147
 5833TIP3    H141478   5.118   5.278  10.097
 5833TIP3    H241479   5.121   5.429  10.109
 5834TIP3   OH241480   5.198   5.143  10.000
 5834TIP3    H141481   5.167   5.073   9.940
 5834TIP3    H241482   5.201   5.093  10.084
 5835TIP3   OH241483   5.362   5.000  10.847
 5835TIP3    H141484   5.375   4.941  10.770
 5835TIP3    H241485   5.383   5.087  10.810
 5836TIP3   OH241486   4.808   4.690   9.825
 5836TIP3    H141487   4.740   4.750   9.788
 5836TIP3    H241488   4.880   4.701   9.759
 5837TIP3   OH241489   4.818   4.549   9.526
 5837TIP3    H141490   4.888   4.548   9.593
 5837TIP3    H241491   4.847   4.476   9.470
 5838TIP3   OH241492   5.548   4.632  10.651
 5838TIP3    H141493   5.483   4.705  10.658
 5838TIP3    H241494   5.597   4.658  10.572
 5839TIP3   OH241495   5.155   4.711   9.917
 5839TIP3    H141496   5.081   4.736   9.977
 5839TIP3    H241497   5.202   4.645   9.971
 5840TIP3   OH241498   5.144   4.527  10.827
 5840TIP3    H141499   5.146   4.605  10.883
 5840TIP3    H241500   5.081   4.559  10.759
 5841TIP3   OH241501   4.315   4.778  10.109
 5841TIP3    H141502   4.283   4.739  10.024
 5841TIP3    H241503   4.376   4.709  10.143
 5842TIP3   OH241504   4.446   5.115  10.376
 5842TIP3    H141505   4.447   5.064  10.295
 5842TIP3    H241506   4.525   5.081  10.422
 5843TIP3   OH241507   4.347   4.654  10.475
 5843TIP3    H141508   4.402   4.663  10.395
 5843TIP3    H241509   4.387   4.718  10.538
 5844TIP3   OH241510   4.991   5.210  10.547
 5844TIP3    H141511   4.960   5.277  10.609
 5844TIP3    H241512   4.963   5.125  10.590
 5845TIP3   OH241513   4.455   5.112  10.939
 5845TIP3    H141514   4.412   5.178  10.996
 5845TIP3    H241515   4.380   5.088  10.880
 5846TIP3   OH241516   5.042   4.633   9.684
 5846TIP3    H141517   5.097   4.651   9.764
 5846TIP3    H241518   5.088   4.683   9.612
 5847TIP3   OH241519   4.137   4.713  10.866
 5847TIP3    H141520   4.142   4.779  10.937
 5847TIP3    H241521   4.045   4.722  10.837
 5848TIP3   OH241522   4.813   5.305  10.032
 5848TIP3    H141523   4.854   5.336  10.113
 5848TIP3    H241524   4.757   5.380  10.007
 5849TIP3   OH241525   5.415   3.806   9.676
 5849TIP3    H141526   5.319   3.816   9.699
 5849TIP3    H241527   5.434   3.889   9.631
 5850TIP3   OH241528   4.210   4.679   9.873
 5850TIP3    H141529   4.183   4.758   9.821
 5850TIP3    H241530   4.146   4.613   9.847
 5851TIP3   OH241531   5.525   5.241   9.510
 5851TIP3    H141532   5.543   5.335   9.527
 5851TIP3    H241533   5.617   5.209   9.511
 5852TIP3   OH241534   3.824   4.924  10.753
 5852TIP3    H141535   3.775   4.916  10.670
 5852TIP3    H241536   3.827   4.831  10.782
 5853TIP3   OH241537   3.797   5.197  10.438
 5853TIP3    H141538   3.893   5.184  10.436
 5853TIP3    H241539   3.789   5.277  10.492
 5854TIP3   OH241540   4.705   5.195  10.873
 5854TIP3    H141541   4.711   5.287  10.904
 5854TIP3    H241542   4.617   5.171  10.910
 5855TIP3   OH241543   4.761   5.595   9.872
 5855TIP3    H141544   4.749   5.588   9.776
 5855TIP3    H241545   4.761   5.691   9.889
 5856TIP3   OH241546   4.124   5.484  10.056
 5856TIP3    H141547   4.139   5.442  10.143
 5856TIP3    H241548   4.040   5.442  10.032
 5857TIP3   OH241549   5.066   5.517   9.571
 5857TIP3    H141550   5.112   5.441   9.528
 5857TIP3    H241551   5.070   5.491   9.665
 5858TIP3   OH241552   5.036   5.511   9.849
 5858TIP3    H141553   4.940   5.518   9.865
 5858TIP3    H241554   5.058   5.436   9.906
 5859TIP3   OH241555   4.048   5.051  10.851
 5859TIP3    H141556   4.071   5.019  10.939
 5859TIP3    H241557   3.958   5.015  10.832
 5860TIP3   OH241558   4.318   3.905  10.445
 5860TIP3    H141559   4.227   3.890  10.412
 5860TIP3    H241560   4.304   3.984  10.500
 5861TIP3   OH241561   4.780   3.876  10.788
 5861TIP3    H141562   4.819   3.830  10.864
 5861TIP3    H241563   4.683   3.859  10.803
 5862TIP3   OH241564   5.089   4.251  10.870
 5862TIP3    H141565   5.063   4.238  10.963
 5862TIP3    H241566   5.096   4.347  10.856
 5863TIP3   OH241567   5.187   4.736   9.468
 5863TIP3    H141568   5.183   4.717   9.372
 5863TIP3    H241569   5.272   4.781   9.471
 5864TIP3   OH241570   4.746   4.129   9.517
 5864TIP3    H141571   4.714   4.122   9.609
 5864TIP3    H241572   4.715   4.041   9.486
 5865TIP3   OH241573   4.325   4.401  10.575
 5865TIP3    H141574   4.253   4.400  10.641
 5865TIP3    H241575   4.320   4.491  10.537
 5866TIP3   OH241576   4.324   4.410  10.063
 5866TIP3    H141577   4.230   4.386  10.049
 5866TIP3    H241578   4.361   4.383   9.976
 5867TIP3   OH241579   4.876   4.462   9.940
 5867TIP3    H141580   4.837   4.544   9.902
 5867TIP3    H241581   4.944   4.444   9.873
 5868TIP3   OH241582   4.980   4.412  10.224
 5868TIP3    H141583   4.950   4.468  10.150
 5868TIP3    H241584   4.988   4.327  10.177
 5869TIP3   OH241585   4.082   4.428  10.747
 5869TIP3    H141586   4.099   4.465  10.836
 5869TIP3    H241587   4.050   4.338  10.766
 5870TIP3   OH241588   4.426   4.164   9.428
 5870TIP3    H141589   4.380   4.122   9.505
 5870TIP3    H241590   4.355   4.208   9.380
 5871TIP3   OH241591   3.756   4.134  10.143
 5871TIP3    H141592   3.825   4.131  10.213
 5871TIP3    H241593   3.800   4.098  10.064
 5872TIP3   OH241594   3.881   4.207   9.677
 5872TIP3    H141595   3.934   4.267   9.621
 5872TIP3    H241596   3.813   4.270   9.708
 5873TIP3   OH241597   4.903   4.568  10.686
 5873TIP3    H141598   4.938   4.501  10.622
 5873TIP3    H241599   4.849   4.513  10.746
 5874TIP3   OH241600   4.579   4.168  10.163
 5874TIP3    H141601   4.486   4.167  10.191
 5874TIP3    H241602   4.627   4.149  10.245
 5875TIP3   OH241603   4.060   4.321  10.050
 5875TIP3    H141604   3.972   4.338  10.010
 5875TIP3    H241605   4.088   4.237  10.009
 5876TIP3   OH241606   4.424   4.327   9.812
 5876TIP3    H141607   4.520   4.338   9.827
 5876TIP3    H241608   4.400   4.395   9.747
 5877TIP3   OH241609   5.021   4.090  10.489
 5877TIP3    H141610   4.950   4.097  10.557
 5877TIP3    H241611   4.970   4.065  10.410
 5878TIP3   OH241612   4.295   4.444   9.571
 5878TIP3    H141613   4.242   4.406   9.499
 5878TIP3    H241614   4.377   4.466   9.523
 5879TIP3   OH241615   4.707   4.443  10.351
 5879TIP3    H141616   4.767   4.390  10.298
 5879TIP3    H241617   4.693   4.387  10.429
 5880TIP3   OH241618   4.208   4.057   9.995
 5880TIP3    H141619   4.177   3.965   9.996
 5880TIP3    H241620   4.287   4.049   9.940
 5881TIP3   OH241621   4.571   4.274  10.592
 5881TIP3    H141622   4.489   4.326  10.599
 5881TIP3    H241623   4.627   4.310  10.663
 5882TIP3   OH241624   4.630   4.897   9.763
 5882TIP3    H141625   4.550   4.851   9.729
 5882TIP3    H241626   4.606   4.911   9.857
 5883TIP3   OH241627   5.352   4.812  10.644
 5883TIP3    H141628   5.405   4.866  10.582
 5883TIP3    H241629   5.265   4.820  10.599
 5884TIP3   OH241630   5.012   4.178   9.581
 5884TIP3    H141631   4.917   4.195   9.567
 5884TIP3    H241632   5.047   4.263   9.616
 5885TIP3   OH241633   4.779   4.927  10.878
 5885TIP3    H141634   4.747   4.883  10.958
 5885TIP3    H241635   4.748   5.018  10.890
 5886TIP3   OH241636   5.086   4.372   9.741
 5886TIP3    H141637   5.173   4.358   9.784
 5886TIP3    H241638   5.098   4.454   9.691
 5887TIP3   OH241639   4.142   4.838  10.343
 5887TIP3    H141640   4.208   4.829  10.272
 5887TIP3    H241641   4.147   4.752  10.388
 5888TIP3   OH241642   4.839   5.044   9.666
 5888TIP3    H141643   4.804   5.129   9.701
 5888TIP3    H241644   4.766   4.982   9.688
 5889TIP3   OH241645   3.838   4.680  10.869
 5889TIP3    H141646   3.859   4.638  10.953
 5889TIP3    H241647   3.779   4.618  10.822
 5890TIP3   OH241648   5.004   5.168  10.883
 5890TIP3    H141649   4.912   5.186  10.858
 5890TIP3    H241650   5.011   5.193  10.976
 5891TIP3   OH241651   5.577   4.384   9.720
 5891TIP3    H141652   5.519   4.357   9.646
 5891TIP3    H241653   5.584   4.479   9.697
 5892TIP3   OH241654   5.401   5.267   9.759
 5892TIP3    H141655   5.369   5.184   9.795
 5892TIP3    H241656   5.438   5.245   9.672
 5893TIP3   OH241657   5.127   4.749  10.472
 5893TIP3    H141658   5.033   4.728  10.459
 5893TIP3    H241659   5.169   4.674  10.425
 5894TIP3   OH241660   4.379   5.183  10.082
 5894TIP3    H141661   4.428   5.264  10.061
 5894TIP3    H241662   4.291   5.206  10.048
 5895TIP3   OH241663   3.955   4.666   9.539
 5895TIP3    H141664   4.013   4.733   9.580
 5895TIP3    H241665   3.866   4.697   9.563
 5896TIP3   OH241666   4.518   4.950  10.031
 5896TIP3    H141667   4.486   5.041  10.043
 5896TIP3    H241668   4.449   4.899  10.077
 5897TIP3   OH241669   4.565   5.368  10.670
 5897TIP3    H141670   4.611   5.451  10.650
 5897TIP3    H241671   4.620   5.333  10.741
 5898TIP3   OH241672   4.388   5.448   9.985
 5898TIP3    H141673   4.291   5.462   9.999
 5898TIP3    H241674   4.424   5.531  10.019
 5899TIP3   OH241675   4.917   4.967  10.632
 5899TIP3    H141676   4.885   4.949  10.722
 5899TIP3    H241677   4.981   4.895  10.619
 5900TIP3   OH241678   5.152   5.076   9.545
 5900TIP3    H141679   5.181   5.028   9.625
 5900TIP3    H241680   5.057   5.057   9.552
 5901TIP3   OH241681   5.176   5.451  10.863
 5901TIP3    H141682   5.128   5.383  10.813
 5901TIP3    H241683   5.215   5.507  10.793
 5902TIP3   OH241684   5.598   5.510   9.571
 5902TIP3    H141685   5.666   5.577   9.549
 5902TIP3    H241686   5.526   5.571   9.599
 5903TIP3   OH241687   4.004   4.156  10.823
 5903TIP3    H141688   3.912   4.184  10.816
 5903TIP3    H241689   4.003   4.070  10.867
 5904TIP3   OH241690   5.228   4.939   9.769
 5904TIP3    H141691   5.204   4.860   9.822
 5904TIP3    H241692   5.324   4.942   9.786
 5905TIP3   OH241693   3.969   5.330  10.667
 5905TIP3    H141694   3.997   5.237  10.667
 5905TIP3    H241695   3.999   5.358  10.754
 5906TIP3   OH241696   4.565   5.182   9.395
 5906TIP3    H141697   4.573   5.106   9.335
 5906TIP3    H241698   4.518   5.139   9.470
 5907TIP3   OH241699   4.440   5.135   9.640
 5907TIP3    H141700   4.469   5.083   9.717
 5907TIP3    H241701   4.450   5.227   9.673
 5908TIP3   OH241702   4.096   4.859   9.689
 5908TIP3    H141703   4.024   4.899   9.741
 5908TIP3    H241704   4.146   4.937   9.658
 5909TIP3   OH241705   4.876   4.127  10.716
 5909TIP3    H141706   4.947   4.132  10.781
 5909TIP3    H241707   4.837   4.039  10.734
 5910TIP3   OH241708   4.952   4.084   9.829
 5910TIP3    H141709   4.975   4.130   9.746
 5910TIP3    H241710   5.010   4.129   9.892
 5911TIP3   OH241711   4.721   5.301   9.709
 5911TIP3    H141712   4.639   5.354   9.717
 5911TIP3    H241713   4.775   5.357   9.651
 5912TIP3   OH241714   4.676   4.259   9.911
 5912TIP3    H141715   4.753   4.319   9.916
 5912TIP3    H241716   4.648   4.247  10.004
 5913TIP3   OH241717   4.745   4.372  10.823
 5913TIP3    H141718   4.736   4.417  10.907
 5913TIP3    H241719   4.789   4.287  10.841
 5914TIP3   OH241720   4.760   3.965   9.998
 5914TIP3    H141721   4.727   4.031  10.061
 5914TIP3    H241722   4.830   4.020   9.954
 5915TIP3   OH241723   4.462   5.404   9.713
 5915TIP3    H141724   4.471   5.485   9.657
 5915TIP3    H241725   4.434   5.441   9.799
 5916TIP3   OH241726   4.326   4.076   9.670
 5916TIP3    H141727   4.321   4.166   9.709
 5916TIP3    H241728   4.417   4.052   9.696
 5917TIP3   OH241729   5.353   4.180  10.862
 5917TIP3    H141730   5.256   4.184  10.871
 5917TIP3    H241731   5.368   4.135  10.778
 5918TIP3   OH241732   5.210   4.528  10.314
 5918TIP3    H141733   5.128   4.483  10.288
 5918TIP3    H241734   5.259   4.460  10.367
 5919TIP3   OH241735   4.149   5.121   9.574
 5919TIP3    H141736   4.216   5.182   9.606
 5919TIP3    H241737   4.201   5.073   9.506
 5920TIP3   OH241738   3.983   4.388   9.488
 5920TIP3    H141739   3.986   4.484   9.510
 5920TIP3    H241740   3.894   4.372   9.458
 5921TIP3   OH241741   5.317   5.454  10.481
 5921TIP3    H141742   5.307   5.523  10.412
 5921TIP3    H241743   5.413   5.461  10.498
 5922TIP3   OH241744   4.064   3.866  10.363
 5922TIP3    H141745   4.047   3.868  10.267
 5922TIP3    H241746   4.025   3.779  10.388
 5923TIP3   OH241747   3.961   5.259   9.979
 5923TIP3    H141748   3.875   5.303   9.972
 5923TIP3    H241749   4.008   5.304   9.907
 5924TIP3   OH241750   4.764   5.367   9.407
 5924TIP3    H141751   4.694   5.301   9.428
 5924TIP3    H241752   4.835   5.307   9.382
 5925TIP3   OH241753   5.219   5.341   9.425
 5925TIP3    H141754   5.248   5.264   9.476
 5925TIP3    H241755   5.296   5.362   9.370
 5926TIP3   OH241756   4.307   4.936   9.406
 5926TIP3    H141757   4.321   4.860   9.465
 5926TIP3    H241758   4.383   4.924   9.345
 5927TIP3   OH241759   4.851   5.047   9.385
 5927TIP3    H141760   4.824   5.054   9.478
 5927TIP3    H241761   4.832   4.951   9.370
 5928TIP3   OH241762   5.112   4.885  10.869
 5928TIP3    H141763   5.192   4.942  10.874
 5928TIP3    H241764   5.044   4.952  10.888
 5929TIP3   OH241765   4.428   4.738   9.651
 5929TIP3    H141766   4.376   4.683   9.713
 5929TIP3    H241767   4.458   4.671   9.586
 5930TIP3   OH241768   4.356   4.534  10.867
 5930TIP3    H141769   4.291   4.599  10.897
 5930TIP3    H241770   4.393   4.569  10.786
 5931TIP3   OH241771   4.536   4.560   9.470
 5931TIP3    H141772   4.521   4.552   9.373
 5931TIP3    H241773   4.633   4.564   9.477
 5932TIP3   OH241774   5.467   4.791   9.411
 5932TIP3    H141775   5.450   4.754   9.323
 5932TIP3    H241776   5.477   4.888   9.393
 5933TIP3   OH241777   4.362   4.300  10.954
 5933TIP3    H141778   4.413   4.226  10.918
 5933TIP3    H241779   4.395   4.375  10.902
 5934TIP3   OH241780   4.435   4.093  10.740
 5934TIP3    H141781   4.485   4.140  10.671
 5934TIP3    H241782   4.346   4.083  10.700
 5935TIP3   OH241783   4.591   4.636  10.760
 5935TIP3    H141784   4.668   4.627  10.704
 5935TIP3    H241785   4.554   4.722  10.734
 5936TIP3   OH241786   4.519   3.838  10.775
 5936TIP3    H141787   4.497   3.933  10.781
 5936TIP3    H241788   4.438   3.803  10.736
 5937TIP3   OH241789   4.518   5.630   9.578
 5937TIP3    H141790   4.615   5.637   9.585
 5937TIP3    H241791   4.504   5.689   9.503
 5938TIP3   OH241792   3.873   5.086   9.525
 5938TIP3    H141793   3.969   5.096   9.543
 5938TIP3    H241794   3.877   5.023   9.450
 5939TIP3   OH241795   3.752   5.625  10.021
 5939TIP3    H141796   3.680   5.576   9.976
 5939TIP3    H241797   3.780   5.560  10.088
 5940TIP3   OH241798   3.834   5.439  10.210
 5940TIP3    H141799   3.799   5.352  10.230
 5940TIP3    H241800   3.857   5.472  10.298
 5941TIP3   OH241801   5.589   5.517  10.504
 5941TIP3    H141802   5.593   5.533  10.600
 5941TIP3    H241803   5.658   5.576  10.472
 5942TIP3   OH241804   5.548   5.479  10.794
 5942TIP3    H141805   5.499   5.403  10.757
 5942TIP3    H241806   5.596   5.437  10.865
 5943TIP3   OH241807   5.522   4.884   9.806
 5943TIP3    H141808   5.609   4.922   9.825
 5943TIP3    H241809   5.520   4.813   9.873
 5944TIP3   OH241810   5.557   4.692   9.996
 5944TIP3    H141811   5.482   4.642  10.035
 5944TIP3    H241812   5.617   4.704  10.072
 5945TIP3   OH241813   5.533   4.959  10.494
 5945TIP3    H141814   5.613   4.921  10.456
 5945TIP3    H241815   5.547   5.054  10.475
 5946TIP3   OH241816   5.386   5.252  10.722
 5946TIP3    H141817   5.318   5.284  10.783
 5946TIP3    H241818   5.334   5.210  10.650
 5947TIP3   OH241819   5.588   4.673   9.634
 5947TIP3    H141820   5.530   4.706   9.562
 5947TIP3    H241821   5.577   4.745   9.700
 5948TIP3   OH241822   5.426   4.395   9.485
 5948TIP3    H141823   5.433   4.462   9.415
 5948TIP3    H241824   5.406   4.313   9.435
 5949TIP3   OH241825   5.340   4.538  10.053
 5949TIP3    H141826   5.325   4.443  10.048
 5949TIP3    H241827   5.308   4.558  10.143
 5950TIP3   OH241828   3.841   4.748  10.458
 5950TIP3    H141829   3.858   4.739  10.362
 5950TIP3    H241830   3.929   4.727  10.494
 5951TIP3   OH241831   5.350   4.144   9.399
 5951TIP3    H141832   5.409   4.099   9.463
 5951TIP3    H241833   5.264   4.103   9.414
 5952TIP3   OH241834   5.304   4.296   9.893
 5952TIP3    H141835   5.335   4.204   9.910
 5952TIP3    H241836   5.386   4.337   9.864
 5953TIP3   OH241837   5.371   4.351  10.441
 5953TIP3    H141838   5.467   4.374  10.441
 5953TIP3    H241839   5.352   4.365  10.535
 5954TIP3   OH241840   5.378   4.426  10.719
 5954TIP3    H141841   5.289   4.452  10.752
 5954TIP3    H241842   5.420   4.511  10.698
 5955TIP3   OH241843   5.374   4.025   9.903
 5955TIP3    H141844   5.396   3.983   9.988
 5955TIP3    H241845   5.314   3.961   9.859
 5956TIP3   OH241846   3.921   4.106  10.361
 5956TIP3    H141847   3.968   4.023  10.384
 5956TIP3    H241848   3.978   4.175  10.397
 5957TIP3   OH241849   3.751   4.404  10.464
 5957TIP3    H141850   3.806   4.379  10.387
 5957TIP3    H241851   3.797   4.486  10.487
 5958TIP3   OH241852   5.555   4.029   9.559
 5958TIP3    H141853   5.596   3.958   9.504
 5958TIP3    H241854   5.626   4.095   9.563
 5959TIP3   OH241855   3.787   4.035   9.871
 5959TIP3    H141856   3.693   4.049   9.854
 5959TIP3    H241857   3.828   4.082   9.797
 5960TIP3   OH241858   5.260   5.527  10.065
 5960TIP3    H141859   5.329   5.498  10.003
 5960TIP3    H241860   5.312   5.577  10.131
 5961TIP3   OH241861   3.785   3.904  10.703
 5961TIP3    H141862   3.714   3.877  10.765
 5961TIP3    H241863   3.735   3.965  10.644
 5962TIP3   OH241864   4.289   5.313  10.730
 5962TIP3    H141865   4.262   5.404  10.716
 5962TIP3    H241866   4.386   5.325  10.721
 5963TIP3   OH241867   4.955   5.602  -0.029
 5963TIP3    H141868   5.023   5.535  -0.049
 5963TIP3    H241869   4.992   5.628   0.057
 5964TIP3   OH241870   5.460   3.850  10.868
 5964TIP3    H141871   5.372   3.875  10.835
 5964TIP3    H241872   5.473   3.763  10.824
 5965TIP3   OH241873   4.035   5.644  10.743
 5965TIP3    H141874   3.960   5.692  10.706
 5965TIP3    H241875   4.007   5.619  10.833
 5966TIP3   OH241876   4.283   5.599  10.642
 5966TIP3    H141877   4.199   5.614  10.690
 5966TIP3    H241878   4.277   5.663  10.570
 5967TIP3   OH241879   4.759   5.592  10.564
 5967TIP3    H141880   4.708   5.647  10.502
 5967TIP3    H241881   4.767   5.653  10.641
 5968TIP3   OH241882   4.983   5.466  10.661
 5968TIP3    H141883   4.896   5.500  10.634
 5968TIP3    H241884   5.030   5.551  10.661
 5969TIP3   OH241885   5.251   5.631  10.690
 5969TIP3    H141886   5.237   5.725  10.667
 5969TIP3    H241887   5.265   5.591  10.602
 5970TIP3   OH241888   3.985   5.507  10.437
 5970TIP3    H141889   3.977   5.462  10.524
 5970TIP3    H241890   4.067   5.467  10.399
 5971TIP3   OH241891   4.192   5.377  10.302
 5971TIP3    H141892   4.176   5.284  10.326
 5971TIP3    H241893   4.278   5.393  10.348
 5972TIP3   OH241894   4.453   5.427  10.389
 5972TIP3    H141895   4.467   5.334  10.364
 5972TIP3    H241896   4.457   5.421  10.487
 5973TIP3   OH241897   4.797   3.991  10.304
 5973TIP3    H141898   4.730   3.927  10.332
 5973TIP3    H241899   4.852   3.937  10.246
 5974TIP3   OH241900   5.311   3.796  10.311
 5974TIP3    H141901   5.372   3.854  10.258
 5974TIP3    H241902   5.223   3.831  10.286
 5975TIP3   OH241903   5.477   3.922  10.137
 5975TIP3    H141904   5.546   3.864  10.096
 5975TIP3    H241905   5.529   4.005  10.148
 5976TIP3   OH241906   4.035   3.853  10.087
 5976TIP3    H141907   3.955   3.835  10.035
 5976TIP3    H241908   4.080   3.766  10.083
 5977TIP3   OH241909   3.910   3.829   9.660
 5977TIP3    H141910   3.961   3.893   9.607
 5977TIP3    H241911   3.855   3.886   9.715
 5978TIP3   OH241912   4.480   3.846  10.068
 5978TIP3    H141913   4.571   3.881  10.058
 5978TIP3    H241914   4.479   3.824  10.161
 5979TIP3   OH241915   5.054   3.847  10.229
 5979TIP3    H141916   5.047   3.859  10.134
 5979TIP3    H241917   5.015   3.758  10.242
 5980TIP3   OH241918   5.179   3.851   9.798
 5980TIP3    H141919   5.104   3.910   9.783
 5980TIP3    H241920   5.136   3.765   9.822
 5981TIP3   OH241921   3.902   5.423   9.765
 5981TIP3    H141922   3.837   5.422   9.692
 5981TIP3    H241923   3.902   5.519   9.781
 5982TIP3   OH241924   4.093   4.023   9.512
 5982TIP3    H141925   4.147   3.961   9.459
 5982TIP3    H241926   4.160   4.056   9.575
 5983TIP3   OH241927   4.596   4.047   9.752
 5983TIP3    H141928   4.622   3.990   9.826
 5983TIP3    H241929   4.605   4.134   9.797
 5984TIP3   OH241930   4.790   5.556   9.597
 5984TIP3    H141931   4.883   5.576   9.575
 5984TIP3    H241932   4.768   5.502   9.517
 5985TIP3   OH241933   5.458   5.504   9.870
 5985TIP3    H141934   5.440   5.426   9.813
 5985TIP3    H241935   5.452   5.578   9.805
 5986TIP3   OH241936   4.081   5.523   9.458
 5986TIP3    H141937   4.055   5.548   9.548
 5986TIP3    H241938   4.160   5.466   9.473
 5987TIP3   OH241939   6.834   4.771  10.065
 5987TIP3    H141940   6.824   4.865  10.093
 5987TIP3    H241941   6.749   4.740  10.031
 5988TIP3   OH241942   6.714   4.692  10.421
 5988TIP3    H141943   6.714   4.629  10.495
 5988TIP3    H241944   6.676   4.639  10.349
 5989TIP3   OH241945   5.950   4.660  10.578
 5989TIP3    H141946   5.958   4.592  10.647
 5989TIP3    H241947   6.024   4.717  10.601
 5990TIP3   OH241948   7.077   4.989  10.251
 5990TIP3    H141949   7.043   4.916  10.304
 5990TIP3    H241950   7.086   5.057  10.321
 5991TIP3   OH241951   6.042   5.106  10.427
 5991TIP3    H141952   6.012   5.018  10.397
 5991TIP3    H241953   6.137   5.088  10.436
 5992TIP3   OH241954   5.705   4.460   9.979
 5992TIP3    H141955   5.662   4.548   9.972
 5992TIP3    H241956   5.649   4.406   9.921
 5993TIP3   OH241957   5.778   4.684  10.195
 5993TIP3    H141958   5.805   4.601  10.238
 5993TIP3    H241959   5.845   4.695  10.127
 5994TIP3   OH241960   6.794   5.503  10.277
 5994TIP3    H141961   6.859   5.435  10.247
 5994TIP3    H241962   6.774   5.469  10.364
 5995TIP3   OH241963   6.550   4.933  10.477
 5995TIP3    H141964   6.583   4.871  10.410
 5995TIP3    H241965   6.633   4.950  10.524
 5996TIP3   OH241966   7.416   4.101  10.549
 5996TIP3    H141967   7.429   4.164  10.621
 5996TIP3    H241968   7.470   4.140  10.479
 5997TIP3   OH241969   6.865   4.379  10.506
 5997TIP3    H141970   6.885   4.285  10.506
 5997TIP3    H241971   6.857   4.394  10.409
 5998TIP3   OH241972   6.179   4.189  10.224
 5998TIP3    H141973   6.191   4.272  10.174
 5998TIP3    H241974   6.140   4.131  10.155
 5999TIP3   OH241975   6.953   4.196  10.061
 5999TIP3    H141976   7.018   4.164  10.129
 5999TIP3    H241977   7.010   4.255  10.010
 6000TIP3   OH241978   5.841   4.431  10.297
 6000TIP3    H141979   5.908   4.376  10.343
 6000TIP3    H241980   5.853   4.398  10.206
 6001TIP3   OH241981   6.357   4.585  10.232
 6001TIP3    H141982   6.425   4.527  10.269
 6001TIP3    H241983   6.307   4.521  10.178
 6002TIP3   OH241984   7.478   4.265  10.778
 6002TIP3    H141985   7.393   4.311  10.757
 6002TIP3    H241986   7.447   4.224  10.861
 6003TIP3   OH241987   6.072   4.077  10.624
 6003TIP3    H141988   6.043   4.138  10.553
 6003TIP3    H241989   6.006   4.099  10.694
 6004TIP3   OH241990   6.801   5.047   9.989
 6004TIP3    H141991   6.768   5.042   9.900
 6004TIP3    H241992   6.768   5.140  10.005
 6005TIP3   OH241993   6.321   4.843  10.655
 6005TIP3    H141994   6.251   4.909  10.674
 6005TIP3    H241995   6.392   4.902  10.623
 6006TIP3   OH241996   7.135   4.132  10.262
 6006TIP3    H141997   7.113   4.055  10.315
 6006TIP3    H241998   7.202   4.175  10.317
 6007TIP3   OH241999   6.025   4.267  10.428
 6007TIP3    H142000   6.089   4.333  10.462
 6007TIP3    H242001   6.079   4.224  10.357
 6008TIP3   OH242002   6.168   5.045  10.734
 6008TIP3    H142003   6.161   5.138  10.705
 6008TIP3    H242004   6.081   5.036  10.779
 6009TIP3   OH242005   5.775   5.003   9.812
 6009TIP3    H142006   5.750   5.039   9.725
 6009TIP3    H242007   5.783   5.085   9.865
 6010TIP3   OH242008   7.135   5.172  10.482
 6010TIP3    H142009   7.039   5.182  10.500
 6010TIP3    H242010   7.161   5.265  10.471
 6011TIP3   OH242011   7.163   4.005  10.633
 6011TIP3    H142012   7.091   4.066  10.616
 6011TIP3    H242013   7.236   4.040  10.578
 6012TIP3   OH242014   6.463   3.812  10.373
 6012TIP3    H142015   6.448   3.716  10.367
 6012TIP3    H242016   6.376   3.843  10.407
 6013TIP3   OH242017   6.961   5.350  10.146
 6013TIP3    H142018   7.004   5.279  10.097
 6013TIP3    H242019   7.005   5.430  10.110
 6014TIP3   OH242020   7.103   5.137   9.998
 6014TIP3    H142021   7.053   5.076   9.941
 6014TIP3    H242022   7.083   5.095  10.085
 6015TIP3   OH242023   7.249   4.999  10.847
 6015TIP3    H142024   7.260   4.941  10.770
 6015TIP3    H242025   7.269   5.087  10.810
 6016TIP3   OH242026   6.691   4.689   9.821
 6016TIP3    H142027   6.615   4.736   9.779
 6016TIP3    H242028   6.757   4.682   9.749
 6017TIP3   OH242029   6.704   4.550   9.525
 6017TIP3    H142030   6.774   4.544   9.591
 6017TIP3    H242031   6.731   4.476   9.469
 6018TIP3   OH242032   7.437   4.633  10.655
 6018TIP3    H142033   7.369   4.704  10.659
 6018TIP3    H242034   7.481   4.659  10.572
 6019TIP3   OH242035   7.040   4.715   9.918
 6019TIP3    H142036   6.969   4.729   9.985
 6019TIP3    H242037   7.091   4.645   9.965
 6020TIP3   OH242038   7.031   4.527  10.827
 6020TIP3    H142039   7.031   4.605  10.883
 6020TIP3    H242040   6.967   4.558  10.759
 6021TIP3   OH242041   6.201   4.778  10.109
 6021TIP3    H142042   6.168   4.739  10.024
 6021TIP3    H242043   6.262   4.709  10.143
 6022TIP3   OH242044   6.332   5.116  10.377
 6022TIP3    H142045   6.331   5.064  10.296
 6022TIP3    H242046   6.411   5.081  10.422
 6023TIP3   OH242047   6.233   4.654  10.476
 6023TIP3    H142048   6.287   4.663  10.395
 6023TIP3    H242049   6.273   4.718  10.538
 6024TIP3   OH242050   6.876   5.210  10.548
 6024TIP3    H142051   6.845   5.277  10.609
 6024TIP3    H242052   6.849   5.126  10.591
 6025TIP3   OH242053   6.341   5.117  10.935
 6025TIP3    H142054   6.293   5.170  11.001
 6025TIP3    H242055   6.266   5.084  10.880
 6026TIP3   OH242056   6.923   4.644   9.687
 6026TIP3    H142057   6.988   4.644   9.762
 6026TIP3    H242058   6.975   4.678   9.609
 6027TIP3   OH242059   6.022   4.713  10.866
 6027TIP3    H142060   6.027   4.778  10.936
 6027TIP3    H242061   5.930   4.719  10.838
 6028TIP3   OH242062   6.699   5.304  10.031
 6028TIP3    H142063   6.740   5.336  10.112
 6028TIP3    H242064   6.643   5.379  10.007
 6029TIP3   OH242065   7.301   3.805   9.676
 6029TIP3    H142066   7.206   3.815   9.698
 6029TIP3    H242067   7.320   3.889   9.631
 6030TIP3   OH242068   6.095   4.679   9.873
 6030TIP3    H142069   6.068   4.758   9.821
 6030TIP3    H242070   6.031   4.612   9.847
 6031TIP3   OH242071   7.411   5.240   9.517
 6031TIP3    H142072   7.429   5.335   9.523
 6031TIP3    H242073   7.504   5.209   9.508
 6032TIP3   OH242074   5.710   4.923  10.754
 6032TIP3    H142075   5.660   4.916  10.671
 6032TIP3    H242076   5.712   4.830  10.783
 6033TIP3   OH242077   5.683   5.197  10.438
 6033TIP3    H142078   5.778   5.184  10.436
 6033TIP3    H242079   5.675   5.277  10.492
 6034TIP3   OH242080   6.589   5.195  10.870
 6034TIP3    H142081   6.600   5.286  10.904
 6034TIP3    H242082   6.503   5.168  10.910
 6035TIP3   OH242083   6.647   5.595   9.872
 6035TIP3    H142084   6.635   5.589   9.775
 6035TIP3    H242085   6.646   5.691   9.889
 6036TIP3   OH242086   6.010   5.484  10.056
 6036TIP3    H142087   6.025   5.442  10.143
 6036TIP3    H242088   5.925   5.442  10.032
 6037TIP3   OH242089   6.951   5.517   9.570
 6037TIP3    H142090   6.998   5.442   9.528
 6037TIP3    H242091   6.954   5.492   9.665
 6038TIP3   OH242092   6.923   5.510   9.848
 6038TIP3    H142093   6.827   5.519   9.864
 6038TIP3    H242094   6.943   5.438   9.909
 6039TIP3   OH242095   5.934   5.052  10.853
 6039TIP3    H142096   5.955   5.017  10.939
 6039TIP3    H242097   5.845   5.016  10.832
 6040TIP3   OH242098   6.203   3.905  10.445
 6040TIP3    H142099   6.112   3.890  10.413
 6040TIP3    H242100   6.190   3.984  10.500
 6041TIP3   OH242101   6.666   3.876  10.788
 6041TIP3    H142102   6.705   3.829  10.863
 6041TIP3    H242103   6.569   3.859  10.802
 6042TIP3   OH242104   6.975   4.250  10.870
 6042TIP3    H142105   6.949   4.238  10.963
 6042TIP3    H242106   6.982   4.347  10.856
 6043TIP3   OH242107   7.073   4.736   9.470
 6043TIP3    H142108   7.068   4.717   9.373
 6043TIP3    H242109   7.159   4.780   9.470
 6044TIP3   OH242110   6.631   4.129   9.517
 6044TIP3    H142111   6.599   4.121   9.609
 6044TIP3    H242112   6.601   4.041   9.486
 6045TIP3   OH242113   6.211   4.400  10.575
 6045TIP3    H142114   6.138   4.400  10.641
 6045TIP3    H242115   6.206   4.491  10.537
 6046TIP3   OH242116   6.210   4.410  10.062
 6046TIP3    H142117   6.116   4.387  10.049
 6046TIP3    H242118   6.246   4.383   9.976
 6047TIP3   OH242119   6.765   4.465   9.942
 6047TIP3    H142120   6.721   4.542   9.900
 6047TIP3    H242121   6.829   4.439   9.873
 6048TIP3   OH242122   6.866   4.413  10.223
 6048TIP3    H142123   6.835   4.466  10.149
 6048TIP3    H242124   6.874   4.327  10.178
 6049TIP3   OH242125   5.971   4.427  10.746
 6049TIP3    H142126   5.982   4.464  10.836
 6049TIP3    H242127   5.935   4.339  10.765
 6050TIP3   OH242128   6.311   4.164   9.429
 6050TIP3    H142129   6.266   4.122   9.504
 6050TIP3    H242130   6.241   4.208   9.380
 6051TIP3   OH242131   5.641   4.134  10.143
 6051TIP3    H142132   5.710   4.131  10.213
 6051TIP3    H242133   5.686   4.098  10.064
 6052TIP3   OH242134   5.767   4.207   9.676
 6052TIP3    H142135   5.820   4.267   9.621
 6052TIP3    H242136   5.699   4.270   9.708
 6053TIP3   OH242137   6.788   4.568  10.686
 6053TIP3    H142138   6.823   4.501  10.622
 6053TIP3    H242139   6.735   4.513  10.746
 6054TIP3   OH242140   6.465   4.168  10.163
 6054TIP3    H142141   6.371   4.167  10.192
 6054TIP3    H242142   6.513   4.149  10.245
 6055TIP3   OH242143   5.945   4.321  10.049
 6055TIP3    H142144   5.857   4.338  10.010
 6055TIP3    H242145   5.974   4.237  10.009
 6056TIP3   OH242146   6.309   4.327   9.812
 6056TIP3    H142147   6.405   4.338   9.827
 6056TIP3    H242148   6.286   4.395   9.747
 6057TIP3   OH242149   6.907   4.090  10.490
 6057TIP3    H142150   6.836   4.097  10.557
 6057TIP3    H242151   6.857   4.065  10.410
 6058TIP3   OH242152   6.180   4.444   9.570
 6058TIP3    H142153   6.127   4.406   9.499
 6058TIP3    H242154   6.262   4.465   9.522
 6059TIP3   OH242155   6.593   4.443  10.351
 6059TIP3    H142156   6.653   4.390  10.298
 6059TIP3    H242157   6.578   4.387  10.428
 6060TIP3   OH242158   6.094   4.057   9.995
 6060TIP3    H142159   6.062   3.965   9.996
 6060TIP3    H242160   6.173   4.049   9.940
 6061TIP3   OH242161   6.456   4.275  10.592
 6061TIP3    H142162   6.374   4.327  10.599
 6061TIP3    H242163   6.512   4.311  10.663
 6062TIP3   OH242164   6.519   4.891   9.769
 6062TIP3    H142165   6.437   4.852   9.728
 6062TIP3    H242166   6.485   4.913   9.858
 6063TIP3   OH242167   7.238   4.812  10.644
 6063TIP3    H142168   7.290   4.866  10.582
 6063TIP3    H242169   7.150   4.820  10.600
 6064TIP3   OH242170   6.898   4.179   9.582
 6064TIP3    H142171   6.803   4.195   9.567
 6064TIP3    H242172   6.932   4.264   9.616
 6065TIP3   OH242173   6.665   4.925  10.878
 6065TIP3    H142174   6.632   4.882  10.959
 6065TIP3    H242175   6.635   5.017  10.889
 6066TIP3   OH242176   6.969   4.377   9.745
 6066TIP3    H142177   7.058   4.357   9.783
 6066TIP3    H242178   6.986   4.452   9.687
 6067TIP3   OH242179   6.027   4.838  10.343
 6067TIP3    H142180   6.093   4.829  10.272
 6067TIP3    H242181   6.032   4.752  10.388
 6068TIP3   OH242182   6.728   5.037   9.685
 6068TIP3    H142183   6.692   5.129   9.696
 6068TIP3    H242184   6.645   4.985   9.683
 6069TIP3   OH242185   5.723   4.680  10.868
 6069TIP3    H142186   5.743   4.636  10.952
 6069TIP3    H242187   5.664   4.617  10.823
 6070TIP3   OH242188   6.891   5.168  10.883
 6070TIP3    H142189   6.800   5.184  10.856
 6070TIP3    H242190   6.896   5.193  10.976
 6071TIP3   OH242191   7.460   4.383   9.722
 6071TIP3    H142192   7.405   4.356   9.646
 6071TIP3    H242193   7.470   4.478   9.697
 6072TIP3   OH242194   7.293   5.259   9.761
 6072TIP3    H142195   7.237   5.183   9.772
 6072TIP3    H242196   7.320   5.251   9.666
 6073TIP3   OH242197   7.013   4.749  10.471
 6073TIP3    H142198   6.919   4.729  10.459
 6073TIP3    H242199   7.055   4.674  10.425
 6074TIP3   OH242200   6.264   5.183  10.081
 6074TIP3    H142201   6.314   5.264  10.061
 6074TIP3    H242202   6.176   5.206  10.048
 6075TIP3   OH242203   5.841   4.666   9.538
 6075TIP3    H142204   5.898   4.733   9.580
 6075TIP3    H242205   5.752   4.697   9.563
 6076TIP3   OH242206   6.406   4.950  10.030
 6076TIP3    H142207   6.371   5.041  10.042
 6076TIP3    H242208   6.335   4.899  10.077
 6077TIP3   OH242209   6.449   5.370  10.676
 6077TIP3    H142210   6.498   5.449  10.647
 6077TIP3    H242211   6.511   5.329  10.737
 6078TIP3   OH242212   6.273   5.448   9.985
 6078TIP3    H142213   6.176   5.462   9.999
 6078TIP3    H242214   6.310   5.531  10.019
 6079TIP3   OH242215   6.803   4.966  10.631
 6079TIP3    H142216   6.770   4.949  10.722
 6079TIP3    H242217   6.867   4.895  10.619
 6080TIP3   OH242218   7.039   5.078   9.547
 6080TIP3    H142219   7.067   5.025   9.624
 6080TIP3    H242220   6.943   5.057   9.548
 6081TIP3   OH242221   7.061   5.451  10.863
 6081TIP3    H142222   7.014   5.383  10.813
 6081TIP3    H242223   7.101   5.507  10.793
 6082TIP3   OH242224   7.483   5.510   9.572
 6082TIP3    H142225   7.551   5.576   9.549
 6082TIP3    H242226   7.412   5.572   9.598
 6083TIP3   OH242227   5.892   4.155  10.822
 6083TIP3    H142228   5.800   4.186  10.818
 6083TIP3    H242229   5.885   4.069  10.867
 6084TIP3   OH242230   7.113   4.942   9.778
 6084TIP3    H142231   7.095   4.856   9.821
 6084TIP3    H242232   7.210   4.939   9.780
 6085TIP3   OH242233   5.854   5.329  10.665
 6085TIP3    H142234   5.883   5.236  10.667
 6085TIP3    H242235   5.881   5.358  10.754
 6086TIP3   OH242236   6.451   5.182   9.395
 6086TIP3    H142237   6.458   5.107   9.335
 6086TIP3    H242238   6.404   5.139   9.470
 6087TIP3   OH242239   6.329   5.134   9.641
 6087TIP3    H142240   6.351   5.084   9.719
 6087TIP3    H242241   6.336   5.227   9.673
 6088TIP3   OH242242   5.981   4.859   9.689
 6088TIP3    H142243   5.909   4.899   9.741
 6088TIP3    H242244   6.031   4.937   9.658
 6089TIP3   OH242245   6.761   4.127  10.715
 6089TIP3    H142246   6.833   4.132  10.779
 6089TIP3    H242247   6.723   4.039  10.734
 6090TIP3   OH242248   6.837   4.084   9.830
 6090TIP3    H142249   6.861   4.130   9.746
 6090TIP3    H242250   6.896   4.128   9.893
 6091TIP3   OH242251   6.608   5.299   9.708
 6091TIP3    H142252   6.526   5.353   9.717
 6091TIP3    H242253   6.660   5.358   9.651
 6092TIP3   OH242254   6.561   4.259   9.911
 6092TIP3    H142255   6.639   4.318   9.917
 6092TIP3    H242256   6.533   4.246  10.004
 6093TIP3   OH242257   6.630   4.372  10.823
 6093TIP3    H142258   6.622   4.417  10.907
 6093TIP3    H242259   6.674   4.287  10.841
 6094TIP3   OH242260   6.645   3.965   9.998
 6094TIP3    H142261   6.613   4.031  10.061
 6094TIP3    H242262   6.716   4.020   9.954
 6095TIP3   OH242263   6.350   5.403   9.713
 6095TIP3    H142264   6.356   5.485   9.657
 6095TIP3    H242265   6.320   5.441   9.799
 6096TIP3   OH242266   6.212   4.076   9.670
 6096TIP3    H142267   6.207   4.166   9.709
 6096TIP3    H242268   6.302   4.052   9.696
 6097TIP3   OH242269   7.241   4.182  10.859
 6097TIP3    H142270   7.144   4.185  10.872
 6097TIP3    H242271   7.252   4.131  10.778
 6098TIP3   OH242272   7.096   4.528  10.315
 6098TIP3    H142273   7.014   4.483  10.288
 6098TIP3    H242274   7.145   4.460  10.366
 6099TIP3   OH242275   6.034   5.120   9.574
 6099TIP3    H142276   6.102   5.182   9.606
 6099TIP3    H242277   6.086   5.074   9.505
 6100TIP3   OH242278   5.869   4.388   9.488
 6100TIP3    H142279   5.871   4.484   9.510
 6100TIP3    H242280   5.780   4.372   9.458
 6101TIP3   OH242281   7.202   5.454  10.481
 6101TIP3    H142282   7.193   5.524  10.413
 6101TIP3    H242283   7.298   5.461  10.498
 6102TIP3   OH242284   5.950   3.866  10.364
 6102TIP3    H142285   5.932   3.868  10.267
 6102TIP3    H242286   5.910   3.780  10.388
 6103TIP3   OH242287   5.848   5.258   9.978
 6103TIP3    H142288   5.762   5.302   9.972
 6103TIP3    H242289   5.894   5.304   9.906
 6104TIP3   OH242290   6.649   5.368   9.407
 6104TIP3    H142291   6.580   5.301   9.428
 6104TIP3    H242292   6.721   5.308   9.380
 6105TIP3   OH242293   7.105   5.341   9.425
 6105TIP3    H142294   7.133   5.263   9.474
 6105TIP3    H242295   7.181   5.363   9.370
 6106TIP3   OH242296   6.195   4.936   9.408
 6106TIP3    H142297   6.208   4.859   9.466
 6106TIP3    H242298   6.269   4.924   9.346
 6107TIP3   OH242299   6.740   5.046   9.387
 6107TIP3    H142300   6.705   5.056   9.476
 6107TIP3    H242301   6.718   4.952   9.368
 6108TIP3   OH242302   6.997   4.886  10.869
 6108TIP3    H142303   7.076   4.944  10.874
 6108TIP3    H242304   6.929   4.951  10.889
 6109TIP3   OH242305   6.317   4.737   9.653
 6109TIP3    H142306   6.261   4.684   9.711
 6109TIP3    H242307   6.342   4.671   9.585
 6110TIP3   OH242308   6.241   4.532  10.868
 6110TIP3    H142309   6.176   4.598  10.897
 6110TIP3    H242310   6.279   4.568  10.787
 6111TIP3   OH242311   6.420   4.559   9.469
 6111TIP3    H142312   6.405   4.552   9.373
 6111TIP3    H242313   6.518   4.563   9.475
 6112TIP3   OH242314   7.352   4.791   9.411
 6112TIP3    H142315   7.335   4.754   9.323
 6112TIP3    H242316   7.362   4.887   9.393
 6113TIP3   OH242317   6.248   4.297  10.955
 6113TIP3    H142318   6.301   4.226  10.915
 6113TIP3    H242319   6.279   4.375  10.903
 6114TIP3   OH242320   6.320   4.092  10.741
 6114TIP3    H142321   6.371   4.140  10.672
 6114TIP3    H242322   6.231   4.084  10.699
 6115TIP3   OH242323   6.476   4.636  10.760
 6115TIP3    H142324   6.553   4.626  10.704
 6115TIP3    H242325   6.439   4.722  10.734
 6116TIP3   OH242326   6.402   3.837  10.781
 6116TIP3    H142327   6.383   3.933  10.779
 6116TIP3    H242328   6.325   3.802  10.732
 6117TIP3   OH242329   6.404   5.630   9.579
 6117TIP3    H142330   6.500   5.637   9.585
 6117TIP3    H242331   6.390   5.689   9.503
 6118TIP3   OH242332   5.758   5.086   9.525
 6118TIP3    H142333   5.855   5.096   9.543
 6118TIP3    H242334   5.763   5.023   9.450
 6119TIP3   OH242335   5.638   5.625  10.021
 6119TIP3    H142336   5.565   5.576   9.976
 6119TIP3    H242337   5.666   5.560  10.088
 6120TIP3   OH242338   5.720   5.439  10.210
 6120TIP3    H142339   5.684   5.352  10.230
 6120TIP3    H242340   5.743   5.472  10.298
 6121TIP3   OH242341   7.468   5.518  10.505
 6121TIP3    H142342   7.479   5.532  10.600
 6121TIP3    H242343   7.541   5.572  10.472
 6122TIP3   OH242344   7.434   5.478  10.793
 6122TIP3    H142345   7.384   5.402  10.757
 6122TIP3    H242346   7.483   5.436  10.865
 6123TIP3   OH242347   7.404   4.892   9.814
 6123TIP3    H142348   7.497   4.919   9.822
 6123TIP3    H242349   7.405   4.812   9.871
 6124TIP3   OH242350   7.439   4.695   9.995
 6124TIP3    H142351   7.367   4.640  10.032
 6124TIP3    H242352   7.502   4.700  10.071
 6125TIP3   OH242353   7.417   4.960  10.490
 6125TIP3    H142354   7.500   4.920  10.459
 6125TIP3    H242355   7.433   5.055  10.476
 6126TIP3   OH242356   7.271   5.252  10.722
 6126TIP3    H142357   7.204   5.284  10.783
 6126TIP3    H242358   7.220   5.210  10.650
 6127TIP3   OH242359   7.474   4.673   9.633
 6127TIP3    H142360   7.416   4.706   9.562
 6127TIP3    H242361   7.464   4.743   9.699
 6128TIP3   OH242362   7.311   4.397   9.487
 6128TIP3    H142363   7.318   4.462   9.416
 6128TIP3    H242364   7.292   4.314   9.437
 6129TIP3   OH242365   7.221   4.541  10.052
 6129TIP3    H142366   7.210   4.444  10.048
 6129TIP3    H242367   7.195   4.558  10.145
 6130TIP3   OH242368   5.727   4.748  10.459
 6130TIP3    H142369   5.743   4.739  10.362
 6130TIP3    H242370   5.815   4.728  10.495
 6131TIP3   OH242371   7.236   4.144   9.399
 6131TIP3    H142372   7.294   4.099   9.463
 6131TIP3    H242373   7.149   4.103   9.413
 6132TIP3   OH242374   7.189   4.297   9.893
 6132TIP3    H142375   7.221   4.205   9.910
 6132TIP3    H242376   7.271   4.338   9.863
 6133TIP3   OH242377   7.255   4.350  10.440
 6133TIP3    H142378   7.350   4.374  10.438
 6133TIP3    H242379   7.236   4.365  10.534
 6134TIP3   OH242380   7.267   4.427  10.721
 6134TIP3    H142381   7.175   4.451  10.750
 6134TIP3    H242382   7.305   4.513  10.696
 6135TIP3   OH242383   7.257   4.027   9.903
 6135TIP3    H142384   7.281   3.983   9.988
 6135TIP3    H242385   7.200   3.961   9.859
 6136TIP3   OH242386   5.806   4.106  10.361
 6136TIP3    H142387   5.853   4.023  10.384
 6136TIP3    H242388   5.864   4.175  10.397
 6137TIP3   OH242389   5.635   4.405  10.461
 6137TIP3    H142390   5.693   4.380  10.386
 6137TIP3    H242391   5.682   4.485  10.489
 6138TIP3   OH242392   7.440   4.029   9.558
 6138TIP3    H142393   7.482   3.958   9.504
 6138TIP3    H242394   7.510   4.096   9.564
 6139TIP3   OH242395   5.673   4.035   9.871
 6139TIP3    H142396   5.578   4.049   9.854
 6139TIP3    H242397   5.714   4.082   9.797
 6140TIP3   OH242398   7.147   5.525  10.067
 6140TIP3    H142399   7.215   5.502  10.001
 6140TIP3    H242400   7.196   5.580  10.131
 6141TIP3   OH242401   5.668   3.901  10.699
 6141TIP3    H142402   5.600   3.879  10.766
 6141TIP3    H242403   5.621   3.966  10.645
 6142TIP3   OH242404   6.178   5.317  10.740
 6142TIP3    H142405   6.146   5.403  10.712
 6142TIP3    H242406   6.273   5.325  10.715
 6143TIP3   OH242407   6.838   5.598  -0.028
 6143TIP3    H142408   6.909   5.536  -0.050
 6143TIP3    H242409   6.879   5.628   0.056
 6144TIP3   OH242410   7.347   3.850  10.866
 6144TIP3    H142411   7.257   3.874  10.838
 6144TIP3    H242412   7.358   3.763  10.824
 6145TIP3   OH242413   5.921   5.644  10.745
 6145TIP3    H142414   5.847   5.692  10.706
 6145TIP3    H242415   5.889   5.619  10.833
 6146TIP3   OH242416   6.169   5.599  10.643
 6146TIP3    H142417   6.084   5.615  10.690
 6146TIP3    H242418   6.163   5.661  10.569
 6147TIP3   OH242419   6.640   5.590  10.570
 6147TIP3    H142420   6.595   5.645  10.503
 6147TIP3    H242421   6.653   5.654  10.642
 6148TIP3   OH242422   6.870   5.466  10.660
 6148TIP3    H142423   6.783   5.500  10.632
 6148TIP3    H242424   6.916   5.551  10.661
 6149TIP3   OH242425   7.136   5.631  10.690
 6149TIP3    H142426   7.123   5.725  10.667
 6149TIP3    H242427   7.151   5.591  10.602
 6150TIP3   OH242428   5.871   5.507  10.437
 6150TIP3    H142429   5.863   5.462  10.523
 6150TIP3    H242430   5.952   5.467  10.399
 6151TIP3   OH242431   6.078   5.377  10.302
 6151TIP3    H142432   6.061   5.284  10.326
 6151TIP3    H242433   6.163   5.393  10.348
 6152TIP3   OH242434   6.339   5.427  10.388
 6152TIP3    H142435   6.352   5.333  10.364
 6152TIP3    H242436   6.343   5.422  10.485
 6153TIP3   OH242437   6.683   3.991  10.304
 6153TIP3    H142438   6.615   3.927  10.332
 6153TIP3    H242439   6.738   3.937  10.246
 6154TIP3   OH242440   7.197   3.796  10.311
 6154TIP3    H142441   7.258   3.854  10.258
 6154TIP3    H242442   7.108   3.831  10.286
 6155TIP3   OH242443   7.363   3.921  10.137
 6155TIP3    H142444   7.432   3.863  10.096
 6155TIP3    H242445   7.415   4.004  10.148
 6156TIP3   OH242446   5.921   3.853  10.088
 6156TIP3    H142447   5.841   3.835  10.036
 6156TIP3    H242448   5.966   3.766  10.083
 6157TIP3   OH242449   5.797   3.828   9.660
 6157TIP3    H142450   5.847   3.894   9.607
 6157TIP3    H242451   5.741   3.886   9.714
 6158TIP3   OH242452   6.366   3.846  10.068
 6158TIP3    H142453   6.456   3.881  10.058
 6158TIP3    H242454   6.364   3.825  10.161
 6159TIP3   OH242455   6.940   3.847  10.229
 6159TIP3    H142456   6.933   3.859  10.134
 6159TIP3    H242457   6.901   3.758  10.242
 6160TIP3   OH242458   7.065   3.851   9.798
 6160TIP3    H142459   6.990   3.909   9.783
 6160TIP3    H242460   7.022   3.765   9.822
 6161TIP3   OH242461   5.788   5.423   9.765
 6161TIP3    H142462   5.722   5.422   9.693
 6161TIP3    H242463   5.788   5.519   9.781
 6162TIP3   OH242464   5.979   4.023   9.512
 6162TIP3    H142465   6.032   3.961   9.459
 6162TIP3    H242466   6.046   4.056   9.575
 6163TIP3   OH242467   6.482   4.047   9.752
 6163TIP3    H142468   6.507   3.990   9.826
 6163TIP3    H242469   6.490   4.134   9.797
 6164TIP3   OH242470   6.676   5.556   9.597
 6164TIP3    H142471   6.768   5.576   9.575
 6164TIP3    H242472   6.654   5.502   9.517
 6165TIP3   OH242473   7.344   5.499   9.870
 6165TIP3    H142474   7.324   5.429   9.805
 6165TIP3    H242475   7.339   5.578   9.809
 6166TIP3   OH242476   5.967   5.523   9.458
 6166TIP3    H142477   5.941   5.548   9.548
 6166TIP3    H242478   6.045   5.466   9.473
 6167TIP3   OH242479   7.831   4.667  10.582
 6167TIP3    H142480   7.850   4.592  10.642
 6167TIP3    H242481   7.912   4.718  10.596
 6168TIP3   OH242482   7.908   5.092  10.443
 6168TIP3    H142483   7.892   5.008  10.396
 6168TIP3    H242484   8.006   5.095  10.438
 6169TIP3   OH242485   7.588   4.460   9.978
 6169TIP3    H142486   7.547   4.549   9.971
 6169TIP3    H242487   7.531   4.407   9.921
 6170TIP3   OH242488   7.663   4.684  10.193
 6170TIP3    H142489   7.690   4.602  10.238
 6170TIP3    H242490   7.733   4.695  10.127
 6171TIP3   OH242491   7.723   4.426  10.300
 6171TIP3    H142492   7.795   4.376  10.342
 6171TIP3    H242493   7.741   4.400  10.208
 6172TIP3   OH242494   7.939   4.078  10.625
 6172TIP3    H142495   7.925   4.138  10.548
 6172TIP3    H242496   7.876   4.106  10.691
 6173TIP3   OH242497   7.901   4.252  10.424
 6173TIP3    H142498   7.957   4.324  10.462
 6173TIP3    H242499   7.958   4.221  10.351
 6174TIP3   OH242500   8.034   5.076  10.733
 6174TIP3    H142501   8.028   5.164  10.697
 6174TIP3    H242502   7.947   5.061  10.775
 6175TIP3   OH242503   7.657   5.006   9.816
 6175TIP3    H142504   7.641   5.039   9.725
 6175TIP3    H242505   7.671   5.089   9.865
 6176TIP3   OH242506   7.891   4.704  10.874
 6176TIP3    H142507   7.904   4.776  10.936
 6176TIP3    H242508   7.805   4.726  10.834
 6177TIP3   OH242509   7.980   4.683   9.867
 6177TIP3    H142510   7.951   4.764   9.821
 6177TIP3    H242511   7.912   4.618   9.847
 6178TIP3   OH242512   7.592   4.921  10.757
 6178TIP3    H142513   7.546   4.916  10.671
 6178TIP3    H242514   7.598   4.827  10.782
 6179TIP3   OH242515   7.569   5.202  10.434
 6179TIP3    H142516   7.664   5.185  10.438
 6179TIP3    H242517   7.562   5.278  10.492
 6180TIP3   OH242518   7.886   5.473  10.057
 6180TIP3    H142519   7.901   5.436  10.146
 6180TIP3    H242520   7.799   5.436  10.036
 6181TIP3   OH242521   7.813   5.056  10.864
 6181TIP3    H142522   7.837   5.014  10.947
 6181TIP3    H242523   7.729   5.013  10.835
 6182TIP3   OH242524   7.873   4.440  10.736
 6182TIP3    H142525   7.890   4.477  10.824
 6182TIP3    H242526   7.856   4.344  10.739
 6183TIP3   OH242527   7.524   4.134  10.143
 6183TIP3    H142528   7.592   4.131  10.214
 6183TIP3    H242529   7.572   4.100  10.065
 6184TIP3   OH242530   7.649   4.207   9.678
 6184TIP3    H142531   7.702   4.267   9.623
 6184TIP3    H242532   7.580   4.271   9.707
 6185TIP3   OH242533   7.827   4.326  10.048
 6185TIP3    H142534   7.739   4.334  10.008
 6185TIP3    H242535   7.860   4.240  10.018
 6186TIP3   OH242536   7.930   4.052   9.976
 6186TIP3    H142537   7.925   3.958  10.003
 6186TIP3    H242538   8.026   4.059   9.968
 6187TIP3   OH242539   7.907   4.837  10.335
 6187TIP3    H142540   7.984   4.832  10.276
 6187TIP3    H242541   7.917   4.756  10.388
 6188TIP3   OH242542   7.620   4.666  10.863
 6188TIP3    H142543   7.623   4.641  10.957
 6188TIP3    H242544   7.542   4.622  10.825
 6189TIP3   OH242545   7.732   4.665   9.540
 6189TIP3    H142546   7.784   4.735   9.582
 6189TIP3    H242547   7.640   4.693   9.561
 6190TIP3   OH242548   7.766   4.161  10.837
 6190TIP3    H142549   7.675   4.170  10.807
 6190TIP3    H242550   7.768   4.067  10.863
 6191TIP3   OH242551   7.746   5.330  10.662
 6191TIP3    H142552   7.759   5.235  10.669
 6191TIP3    H242553   7.763   5.361  10.752
 6192TIP3   OH242554   7.869   4.861   9.683
 6192TIP3    H142555   7.797   4.894   9.740
 6192TIP3    H242556   7.917   4.943   9.665
 6193TIP3   OH242557   7.918   5.124   9.566
 6193TIP3    H142558   7.982   5.183   9.609
 6193TIP3    H242559   7.978   5.075   9.509
 6194TIP3   OH242560   7.757   4.385   9.495
 6194TIP3    H142561   7.759   4.482   9.504
 6194TIP3    H242562   7.670   4.369   9.457
 6195TIP3   OH242563   7.834   3.868  10.365
 6195TIP3    H142564   7.823   3.870  10.268
 6195TIP3    H242565   7.797   3.781  10.389
 6196TIP3   OH242566   7.720   5.255   9.974
 6196TIP3    H142567   7.645   5.314   9.972
 6196TIP3    H242568   7.780   5.301   9.912
 6197TIP3   OH242569   7.647   5.087   9.527
 6197TIP3    H142570   7.744   5.098   9.541
 6197TIP3    H242571   7.650   5.024   9.451
 6198TIP3   OH242572   7.522   5.624  10.020
 6198TIP3    H142573   7.449   5.576   9.976
 6198TIP3    H242574   7.553   5.563  10.089
 6199TIP3   OH242575   7.602   5.437  10.209
 6199TIP3    H142576   7.571   5.349  10.236
 6199TIP3    H242577   7.633   5.472  10.295
 6200TIP3   OH242578   7.613   4.749  10.457
 6200TIP3    H142579   7.633   4.736  10.362
 6200TIP3    H242580   7.701   4.730  10.495
 6201TIP3   OH242581   7.688   4.106  10.364
 6201TIP3    H142582   7.741   4.024  10.380
 6201TIP3    H242583   7.752   4.174  10.391
 6202TIP3   OH242584   7.521   4.401  10.465
 6202TIP3    H142585   7.576   4.380  10.386
 6202TIP3    H242586   7.563   4.485  10.487
 6203TIP3   OH242587   7.557   4.031   9.869
 6203TIP3    H142588   7.463   4.048   9.854
 6203TIP3    H242589   7.598   4.083   9.797
 6204TIP3   OH242590   7.554   3.904  10.703
 6204TIP3    H142591   7.483   3.877  10.766
 6204TIP3    H242592   7.504   3.962  10.642
 6205TIP3   OH242593   7.808   5.645  10.750
 6205TIP3    H142594   7.733   5.689  10.706
 6205TIP3    H242595   7.771   5.620  10.835
 6206TIP3   OH242596   8.035   5.568  10.620
 6206TIP3    H142597   7.969   5.599  10.687
 6206TIP3    H242598   8.051   5.650  10.572
 6207TIP3   OH242599   7.746   5.506  10.440
 6207TIP3    H142600   7.750   5.462  10.527
 6207TIP3    H242601   7.829   5.472  10.400
 6208TIP3   OH242602   7.944   5.378  10.320
 6208TIP3    H142603   7.938   5.281  10.331
 6208TIP3    H242604   8.034   5.389  10.354
 6209TIP3   OH242605   7.798   3.847  10.092
 6209TIP3    H142606   7.720   3.829  10.036
 6209TIP3    H242607   7.852   3.766  10.087
 6210TIP3   OH242608   7.681   3.829   9.657
 6210TIP3    H142609   7.731   3.897   9.608
 6210TIP3    H242610   7.626   3.884   9.715
 6211TIP3   OH242611   7.671   5.424   9.765
 6211TIP3    H142612   7.607   5.425   9.691
 6211TIP3    H242613   7.679   5.521   9.777
 6212TIP3   OH242614   7.863   4.017   9.520
 6212TIP3    H142615   7.919   3.966   9.459
 6212TIP3    H242616   7.928   4.062   9.576
 6213TIP3   OH242617   7.857   5.528   9.459
 6213TIP3    H142618   7.828   5.553   9.548
 6213TIP3    H242619   7.929   5.467   9.477
 6214TIP3   OH242620   1.173   6.654  10.074
 6214TIP3    H142621   1.169   6.752  10.071
 6214TIP3    H242622   1.101   6.629  10.013
 6215TIP3   OH242623   1.055   6.577  10.424
 6215TIP3    H142624   1.058   6.514  10.497
 6215TIP3    H242625   1.022   6.527  10.348
 6216TIP3   OH242626   0.309   6.539  10.569
 6216TIP3    H142627   0.300   6.481  10.647
 6216TIP3    H242628   0.370   6.606  10.603
 6217TIP3   OH242629   1.426   6.875  10.252
 6217TIP3    H142630   1.384   6.804  10.301
 6217TIP3    H242631   1.429   6.945  10.320
 6218TIP3   OH242632   0.383   6.991  10.425
 6218TIP3    H142633   0.354   6.901  10.399
 6218TIP3    H242634   0.478   6.974  10.433
 6219TIP3   OH242635   0.053   6.348   9.969
 6219TIP3    H142636   0.010   6.436   9.974
 6219TIP3    H242637  -0.013   6.294   9.927
 6220TIP3   OH242638   0.120   6.566  10.192
 6220TIP3    H142639   0.147   6.484  10.238
 6220TIP3    H242640   0.189   6.577  10.126
 6221TIP3   OH242641   1.136   7.387  10.278
 6221TIP3    H142642   1.202   7.321  10.245
 6221TIP3    H242643   1.121   7.355  10.367
 6222TIP3   OH242644   0.893   6.818  10.476
 6222TIP3    H142645   0.927   6.758  10.407
 6222TIP3    H242646   0.977   6.835  10.524
 6223TIP3   OH242647   1.754   5.985  10.545
 6223TIP3    H142648   1.773   6.044  10.620
 6223TIP3    H242649   1.812   6.025  10.479
 6224TIP3   OH242650   1.202   6.264  10.504
 6224TIP3    H142651   1.230   6.170  10.505
 6224TIP3    H242652   1.203   6.279  10.407
 6225TIP3   OH242653   0.523   6.073  10.221
 6225TIP3    H142654   0.518   6.154  10.165
 6225TIP3    H242655   0.481   6.012  10.155
 6226TIP3   OH242656   1.296   6.081  10.064
 6226TIP3    H142657   1.363   6.051  10.129
 6226TIP3    H242658   1.350   6.140  10.008
 6227TIP3   OH242659   0.198   6.318  10.296
 6227TIP3    H142660   0.255   6.255  10.342
 6227TIP3    H242661   0.194   6.282  10.206
 6228TIP3   OH242662   0.697   6.468  10.234
 6228TIP3    H142663   0.774   6.417  10.265
 6228TIP3    H242664   0.650   6.409  10.172
 6229TIP3   OH242665   1.818   6.145  10.773
 6229TIP3    H142666   1.735   6.198  10.755
 6229TIP3    H242667   1.794   6.108  10.858
 6230TIP3   OH242668   0.417   5.965  10.624
 6230TIP3    H142669   0.383   6.024  10.554
 6230TIP3    H242670   0.351   5.981  10.695
 6231TIP3   OH242671   1.138   6.911   9.986
 6231TIP3    H142672   1.119   6.886   9.892
 6231TIP3    H242673   1.110   7.005   9.987
 6232TIP3   OH242674   0.668   6.730  10.657
 6232TIP3    H142675   0.595   6.794  10.672
 6232TIP3    H242676   0.737   6.788  10.621
 6233TIP3   OH242677   1.479   6.017  10.262
 6233TIP3    H142678   1.457   5.940  10.315
 6233TIP3    H242679   1.546   6.060  10.317
 6234TIP3   OH242680   0.373   6.148  10.429
 6234TIP3    H142681   0.430   6.220  10.464
 6234TIP3    H242682   0.423   6.108  10.355
 6235TIP3   OH242683   0.511   6.931  10.737
 6235TIP3    H142684   0.501   7.022  10.701
 6235TIP3    H242685   0.421   6.919  10.777
 6236TIP3   OH242686   0.116   6.891   9.810
 6236TIP3    H142687   0.091   6.925   9.724
 6236TIP3    H242688   0.126   6.971   9.864
 6237TIP3   OH242689   1.479   7.059  10.490
 6237TIP3    H142690   1.382   7.068  10.500
 6237TIP3    H242691   1.504   7.151  10.469
 6238TIP3   OH242692   1.509   5.890  10.632
 6238TIP3    H142693   1.435   5.950  10.616
 6238TIP3    H242694   1.580   5.926  10.577
 6239TIP3   OH242695   0.805   5.700  10.372
 6239TIP3    H142696   0.793   5.603  10.367
 6239TIP3    H242697   0.718   5.727  10.408
 6240TIP3   OH242698   1.306   7.235  10.149
 6240TIP3    H142699   1.347   7.164  10.096
 6240TIP3    H242700   1.351   7.315  10.111
 6241TIP3   OH242701   1.427   7.026   9.998
 6241TIP3    H142702   1.394   6.957   9.939
 6241TIP3    H242703   1.430   6.979  10.084
 6242TIP3   OH242704   1.590   6.885  10.847
 6242TIP3    H142705   1.603   6.826  10.770
 6242TIP3    H242706   1.612   6.973  10.810
 6243TIP3   OH242707   1.039   6.577   9.828
 6243TIP3    H142708   0.970   6.634   9.789
 6243TIP3    H242709   1.107   6.585   9.760
 6244TIP3   OH242710   1.061   6.466   9.489
 6244TIP3    H142711   1.091   6.446   9.580
 6244TIP3    H242712   1.064   6.371   9.469
 6245TIP3   OH242713   1.779   6.518  10.655
 6245TIP3    H142714   1.712   6.590  10.658
 6245TIP3    H242715   1.825   6.542  10.572
 6246TIP3   OH242716   1.388   6.599   9.918
 6246TIP3    H142717   1.309   6.620   9.973
 6246TIP3    H242718   1.431   6.530   9.972
 6247TIP3   OH242719   1.374   6.412  10.829
 6247TIP3    H142720   1.373   6.492  10.883
 6247TIP3    H242721   1.311   6.442  10.760
 6248TIP3   OH242722   0.544   6.663  10.112
 6248TIP3    H142723   0.510   6.626  10.027
 6248TIP3    H242724   0.607   6.595  10.142
 6249TIP3   OH242725   0.674   7.000  10.378
 6249TIP3    H142726   0.675   6.951  10.295
 6249TIP3    H242727   0.754   6.966  10.422
 6250TIP3   OH242728   0.582   6.535  10.477
 6250TIP3    H142729   0.631   6.553  10.395
 6250TIP3    H242730   0.613   6.605  10.539
 6251TIP3   OH242731   1.219   7.096  10.548
 6251TIP3    H142732   1.188   7.162  10.609
 6251TIP3    H242733   1.191   7.011  10.589
 6252TIP3   OH242734   0.689   6.990  10.925
 6252TIP3    H142735   0.645   7.057  10.970
 6252TIP3    H242736   0.616   6.958  10.866
 6253TIP3   OH242737   1.274   6.520   9.683
 6253TIP3    H142738   1.325   6.538   9.766
 6253TIP3    H242739   1.313   6.574   9.613
 6254TIP3   OH242740   0.365   6.594  10.869
 6254TIP3    H142741   0.368   6.662  10.936
 6254TIP3    H242742   0.273   6.604  10.836
 6255TIP3   OH242743   1.041   7.189  10.036
 6255TIP3    H142744   1.086   7.225  10.114
 6255TIP3    H242745   0.987   7.262  10.003
 6256TIP3   OH242746   1.643   5.692   9.676
 6256TIP3    H142747   1.548   5.703   9.699
 6256TIP3    H242748   1.662   5.776   9.632
 6257TIP3   OH242749   0.445   6.565   9.870
 6257TIP3    H142750   0.412   6.644   9.821
 6257TIP3    H242751   0.378   6.500   9.849
 6258TIP3   OH242752   1.755   7.126   9.510
 6258TIP3    H142753   1.772   7.220   9.527
 6258TIP3    H242754   1.847   7.094   9.511
 6259TIP3   OH242755   0.103   6.762  10.734
 6259TIP3    H142756   0.026   6.800  10.687
 6259TIP3    H242757   0.056   6.694  10.787
 6260TIP3   OH242758   0.050   7.106  10.422
 6260TIP3    H142759   0.140   7.074  10.443
 6260TIP3    H242760   0.031   7.162  10.498
 6261TIP3   OH242761   0.934   7.082  10.869
 6261TIP3    H142762   0.945   7.172  10.903
 6261TIP3    H242763   0.850   7.051  10.908
 6262TIP3   OH242764   0.993   7.483   9.876
 6262TIP3    H142765   0.978   7.470   9.781
 6262TIP3    H242766   0.989   7.579   9.888
 6263TIP3   OH242767   0.357   7.367  10.053
 6263TIP3    H142768   0.367   7.329  10.143
 6263TIP3    H242769   0.271   7.327  10.030
 6264TIP3   OH242770   1.298   7.404   9.571
 6264TIP3    H142771   1.340   7.327   9.527
 6264TIP3    H242772   1.297   7.376   9.665
 6265TIP3   OH242773   1.264   7.399   9.850
 6265TIP3    H142774   1.167   7.402   9.864
 6265TIP3    H242775   1.286   7.322   9.905
 6266TIP3   OH242776   0.278   6.945  10.857
 6266TIP3    H142777   0.294   6.898  10.938
 6266TIP3    H242778   0.195   6.902  10.824
 6267TIP3   OH242779   0.548   5.796  10.441
 6267TIP3    H142780   0.455   5.775  10.414
 6267TIP3    H242781   0.530   5.868  10.504
 6268TIP3   OH242782   1.009   5.762  10.788
 6268TIP3    H142783   1.048   5.715  10.863
 6268TIP3    H242784   0.913   5.745  10.802
 6269TIP3   OH242785   1.317   6.136  10.870
 6269TIP3    H142786   1.292   6.123  10.963
 6269TIP3    H242787   1.325   6.233  10.856
 6270TIP3   OH242788   1.426   6.614   9.467
 6270TIP3    H142789   1.404   6.611   9.370
 6270TIP3    H242790   1.494   6.684   9.469
 6271TIP3   OH242791   0.971   6.007   9.508
 6271TIP3    H142792   0.949   6.013   9.603
 6271TIP3    H242793   0.939   5.919   9.487
 6272TIP3   OH242794   0.554   6.284  10.568
 6272TIP3    H142795   0.487   6.283  10.640
 6272TIP3    H242796   0.547   6.379  10.540
 6273TIP3   OH242797   0.557   6.288  10.066
 6273TIP3    H142798   0.461   6.276  10.048
 6273TIP3    H242799   0.591   6.270   9.975
 6274TIP3   OH242800   1.112   6.359   9.955
 6274TIP3    H142801   1.063   6.428   9.904
 6274TIP3    H242802   1.161   6.326   9.876
 6275TIP3   OH242803   1.203   6.297  10.225
 6275TIP3    H142804   1.181   6.353  10.148
 6275TIP3    H242805   1.218   6.214  10.176
 6276TIP3   OH242806   0.317   6.313  10.745
 6276TIP3    H142807   0.323   6.352  10.835
 6276TIP3    H242808   0.276   6.228  10.764
 6277TIP3   OH242809   0.653   6.046   9.426
 6277TIP3    H142810   0.610   6.009   9.506
 6277TIP3    H242811   0.582   6.093   9.380
 6278TIP3   OH242812   0.013   6.053  10.150
 6278TIP3    H142813   0.065   6.017  10.225
 6278TIP3    H242814   0.025   5.986  10.084
 6279TIP3   OH242815   0.114   6.105   9.683
 6279TIP3    H142816   0.163   6.157   9.616
 6279TIP3    H242817   0.042   6.163   9.706
 6280TIP3   OH242818   1.133   6.453  10.686
 6280TIP3    H142819   1.167   6.387  10.623
 6280TIP3    H242820   1.078   6.399  10.746
 6281TIP3   OH242821   0.809   6.061  10.171
 6281TIP3    H142822   0.720   6.023  10.177
 6281TIP3    H242823   0.863   6.019  10.241
 6282TIP3   OH242824   0.295   6.205  10.050
 6282TIP3    H142825   0.206   6.225  10.014
 6282TIP3    H242826   0.314   6.120  10.008
 6283TIP3   OH242827   0.652   6.216   9.818
 6283TIP3    H142828   0.750   6.221   9.824
 6283TIP3    H242829   0.631   6.278   9.746
 6284TIP3   OH242830   1.252   5.975  10.491
 6284TIP3    H142831   1.180   5.982  10.559
 6284TIP3    H242832   1.203   5.950  10.411
 6285TIP3   OH242833   0.521   6.331   9.568
 6285TIP3    H142834   0.469   6.292   9.496
 6285TIP3    H242835   0.606   6.350   9.524
 6286TIP3   OH242836   0.918   6.311  10.344
 6286TIP3    H142837   0.999   6.279  10.300
 6286TIP3    H242838   0.932   6.277  10.434
 6287TIP3   OH242839   0.444   5.943   9.999
 6287TIP3    H142840   0.403   5.853   9.995
 6287TIP3    H242841   0.517   5.933   9.938
 6288TIP3   OH242842   0.799   6.162  10.586
 6288TIP3    H142843   0.717   6.211  10.605
 6288TIP3    H242844   0.856   6.192  10.660
 6289TIP3   OH242845   0.860   6.772   9.770
 6289TIP3    H142846   0.778   6.738   9.729
 6289TIP3    H242847   0.833   6.799   9.859
 6290TIP3   OH242848   1.580   6.697  10.644
 6290TIP3    H142849   1.634   6.752  10.582
 6290TIP3    H242850   1.493   6.705  10.599
 6291TIP3   OH242851   1.249   6.059   9.576
 6291TIP3    H142852   1.153   6.080   9.570
 6291TIP3    H242853   1.275   6.145   9.619
 6292TIP3   OH242854   1.006   6.811  10.877
 6292TIP3    H142855   0.976   6.767  10.959
 6292TIP3    H242856   0.980   6.903  10.889
 6293TIP3   OH242857   1.341   6.248   9.739
 6293TIP3    H142858   1.424   6.249   9.790
 6293TIP3    H242859   1.326   6.335   9.698
 6294TIP3   OH242860   0.369   6.726  10.343
 6294TIP3    H142861   0.434   6.717  10.272
 6294TIP3    H242862   0.374   6.640  10.388
 6295TIP3   OH242863   1.114   6.888   9.720
 6295TIP3    H142864   1.081   6.980   9.704
 6295TIP3    H242865   1.025   6.855   9.690
 6296TIP3   OH242866   0.080   6.546  10.867
 6296TIP3    H142867   0.085   6.515  10.958
 6296TIP3    H242868   0.002   6.502  10.829
 6297TIP3   OH242869   1.234   7.052  10.883
 6297TIP3    H142870   1.143   7.070  10.856
 6297TIP3    H242871   1.240   7.078  10.975
 6298TIP3   OH242872   1.805   6.269   9.721
 6298TIP3    H142873   1.750   6.238   9.647
 6298TIP3    H242874   1.814   6.364   9.698
 6299TIP3   OH242875   1.633   7.153   9.760
 6299TIP3    H142876   1.598   7.070   9.795
 6299TIP3    H242877   1.667   7.131   9.672
 6300TIP3   OH242878   1.356   6.633  10.472
 6300TIP3    H142879   1.262   6.614  10.457
 6300TIP3    H242880   1.398   6.559  10.424
 6301TIP3   OH242881   0.605   7.070  10.088
 6301TIP3    H142882   0.657   7.147  10.059
 6301TIP3    H242883   0.519   7.091  10.049
 6302TIP3   OH242884   0.181   6.551   9.542
 6302TIP3    H142885   0.244   6.616   9.580
 6302TIP3    H242886   0.096   6.586   9.570
 6303TIP3   OH242887   0.748   6.834  10.037
 6303TIP3    H142888   0.717   6.927  10.040
 6303TIP3    H242889   0.675   6.785  10.078
 6304TIP3   OH242890   0.790   7.257  10.681
 6304TIP3    H142891   0.840   7.333  10.646
 6304TIP3    H242892   0.858   7.214  10.735
 6305TIP3   OH242893   0.615   7.334   9.986
 6305TIP3    H142894   0.519   7.347  10.002
 6305TIP3    H242895   0.652   7.418  10.019
 6306TIP3   OH242896   1.146   6.853  10.632
 6306TIP3    H142897   1.113   6.835  10.723
 6306TIP3    H242898   1.211   6.783  10.620
 6307TIP3   OH242899   1.382   6.962   9.544
 6307TIP3    H142900   1.406   6.915   9.626
 6307TIP3    H242901   1.286   6.946   9.551
 6308TIP3   OH242902   1.404   7.338  10.866
 6308TIP3    H142903   1.358   7.269  10.815
 6308TIP3    H242904   1.445   7.393  10.795
 6309TIP3   OH242905   1.825   7.393   9.570
 6309TIP3    H142906   1.893   7.459   9.548
 6309TIP3    H242907   1.754   7.455   9.599
 6310TIP3   OH242908   0.233   6.039  10.823
 6310TIP3    H142909   0.143   6.072  10.820
 6310TIP3    H242910   0.223   5.954  10.869
 6311TIP3   OH242911   1.458   6.820   9.764
 6311TIP3    H142912   1.432   6.746   9.824
 6311TIP3    H242913   1.551   6.830   9.789
 6312TIP3   OH242914   0.198   7.213  10.662
 6312TIP3    H142915   0.226   7.120  10.667
 6312TIP3    H242916   0.217   7.244  10.751
 6313TIP3   OH242917   0.747   7.069   9.356
 6313TIP3    H142918   0.802   6.994   9.329
 6313TIP3    H242919   0.751   7.042   9.451
 6314TIP3   OH242920   0.633   7.021   9.660
 6314TIP3    H142921   0.702   6.968   9.704
 6314TIP3    H242922   0.676   7.109   9.668
 6315TIP3   OH242923   0.325   6.745   9.688
 6315TIP3    H142924   0.253   6.783   9.743
 6315TIP3    H242925   0.374   6.824   9.659
 6316TIP3   OH242926   1.104   6.012  10.716
 6316TIP3    H142927   1.175   6.018  10.780
 6316TIP3    H242928   1.066   5.924  10.734
 6317TIP3   OH242929   1.184   5.966   9.829
 6317TIP3    H142930   1.198   6.019   9.747
 6317TIP3    H242931   1.239   6.016   9.890
 6318TIP3   OH242932   0.963   7.246   9.743
 6318TIP3    H142933   0.868   7.239   9.720
 6318TIP3    H242934   1.002   7.232   9.656
 6319TIP3   OH242935   0.898   6.144   9.918
 6319TIP3    H142936   0.978   6.201   9.906
 6319TIP3    H242937   0.884   6.133  10.012
 6320TIP3   OH242938   0.972   6.257  10.821
 6320TIP3    H142939   0.964   6.303  10.905
 6320TIP3    H242940   1.017   6.173  10.840
 6321TIP3   OH242941   0.988   5.851  10.000
 6321TIP3    H142942   0.958   5.919  10.061
 6321TIP3    H242943   1.058   5.904   9.952
 6322TIP3   OH242944   0.688   7.291   9.711
 6322TIP3    H142945   0.700   7.371   9.656
 6322TIP3    H242946   0.664   7.327   9.799
 6323TIP3   OH242947   0.556   5.962   9.671
 6323TIP3    H142948   0.552   6.052   9.708
 6323TIP3    H242949   0.648   5.939   9.696
 6324TIP3   OH242950   1.583   6.069  10.860
 6324TIP3    H142951   1.486   6.069  10.871
 6324TIP3    H242952   1.597   6.017  10.779
 6325TIP3   OH242953   1.439   6.414  10.316
 6325TIP3    H142954   1.357   6.369  10.288
 6325TIP3    H242955   1.488   6.345  10.367
 6326TIP3   OH242956   0.376   7.009   9.570
 6326TIP3    H142957   0.449   7.063   9.608
 6326TIP3    H242958   0.432   6.959   9.508
 6327TIP3   OH242959   0.212   6.274   9.486
 6327TIP3    H142960   0.212   6.369   9.510
 6327TIP3    H242961   0.122   6.257   9.455
 6328TIP3   OH242962   1.544   7.341  10.481
 6328TIP3    H142963   1.535   7.409  10.410
 6328TIP3    H242964   1.640   7.348  10.497
 6329TIP3   OH242965   0.294   5.756  10.358
 6329TIP3    H142966   0.273   5.752  10.263
 6329TIP3    H242967   0.257   5.670  10.388
 6330TIP3   OH242968   0.189   7.141   9.978
 6330TIP3    H142969   0.106   7.190   9.973
 6330TIP3    H242970   0.239   7.189   9.910
 6331TIP3   OH242971   0.991   7.256   9.402
 6331TIP3    H142972   0.927   7.189   9.436
 6331TIP3    H242973   1.063   7.195   9.383
 6332TIP3   OH242974   1.450   7.227   9.425
 6332TIP3    H142975   1.476   7.149   9.476
 6332TIP3    H242976   1.526   7.247   9.369
 6333TIP3   OH242977   0.533   6.816   9.403
 6333TIP3    H142978   0.550   6.746   9.467
 6333TIP3    H242979   0.614   6.810   9.350
 6334TIP3   OH242980   1.102   6.924   9.379
 6334TIP3    H142981   1.050   6.947   9.460
 6334TIP3    H242982   1.063   6.834   9.367
 6335TIP3   OH242983   1.340   6.771  10.870
 6335TIP3    H142984   1.420   6.828  10.874
 6335TIP3    H242985   1.273   6.837  10.888
 6336TIP3   OH242986   0.655   6.623   9.650
 6336TIP3    H142987   0.608   6.567   9.714
 6336TIP3    H242988   0.691   6.557   9.587
 6337TIP3   OH242989   0.584   6.417  10.869
 6337TIP3    H142990   0.519   6.483  10.898
 6337TIP3    H242991   0.623   6.455  10.789
 6338TIP3   OH242992   0.764   6.445   9.470
 6338TIP3    H142993   0.750   6.436   9.374
 6338TIP3    H242994   0.862   6.452   9.478
 6339TIP3   OH242995   1.694   6.678   9.407
 6339TIP3    H142996   1.683   6.652   9.313
 6339TIP3    H242997   1.708   6.776   9.396
 6340TIP3   OH242998   0.593   6.182  10.957
 6340TIP3    H142999   0.644   6.111  10.915
 6340TIP3    H243000   0.622   6.260  10.905
 6341TIP3   OH243001   0.663   5.979  10.741
 6341TIP3    H143002   0.714   6.025  10.672
 6341TIP3    H243003   0.574   5.969  10.701
 6342TIP3   OH243004   0.817   6.519  10.757
 6342TIP3    H143005   0.898   6.514  10.706
 6342TIP3    H243006   0.782   6.608  10.734
 6343TIP3   OH243007   0.745   5.723  10.781
 6343TIP3    H143008   0.725   5.819  10.779
 6343TIP3    H243009   0.669   5.688  10.732
 6344TIP3   OH243010   0.745   7.519   9.581
 6344TIP3    H143011   0.843   7.521   9.584
 6344TIP3    H243012   0.734   7.574   9.502
 6345TIP3   OH243013   0.107   6.971   9.527
 6345TIP3    H143014   0.205   6.984   9.542
 6345TIP3    H243015   0.113   6.906   9.454
 6346TIP3   OH243016  -0.003   7.520  10.010
 6346TIP3    H143017  -0.084   7.474   9.981
 6346TIP3    H243018   0.015   7.460  10.084
 6347TIP3   OH243019   0.084   7.327  10.202
 6347TIP3    H143020   0.036   7.244  10.218
 6347TIP3    H243021   0.095   7.363  10.292
 6348TIP3   OH243022   1.821   7.397  10.506
 6348TIP3    H143023   1.820   7.422  10.600
 6348TIP3    H243024   1.884   7.462  10.471
 6349TIP3   OH243025   1.777   7.364  10.795
 6349TIP3    H143026   1.728   7.289  10.756
 6349TIP3    H243027   1.825   7.321  10.866
 6350TIP3   OH243028   1.753   6.766   9.802
 6350TIP3    H143029   1.836   6.809   9.826
 6350TIP3    H243030   1.748   6.699   9.874
 6351TIP3   OH243031   1.785   6.576   9.992
 6351TIP3    H143032   1.709   6.527  10.033
 6351TIP3    H243033   1.844   6.590  10.069
 6352TIP3   OH243034   1.761   6.845  10.494
 6352TIP3    H143035   1.842   6.807  10.457
 6352TIP3    H243036   1.776   6.940  10.475
 6353TIP3   OH243037   1.614   7.139  10.721
 6353TIP3    H143038   1.547   7.170  10.782
 6353TIP3    H243039   1.562   7.096  10.650
 6354TIP3   OH243040   1.810   6.556   9.633
 6354TIP3    H143041   1.765   6.605   9.563
 6354TIP3    H243042   1.810   6.626   9.702
 6355TIP3   OH243043   1.651   6.275   9.483
 6355TIP3    H143044   1.681   6.317   9.403
 6355TIP3    H243045   1.633   6.186   9.444
 6356TIP3   OH243046   1.568   6.423  10.054
 6356TIP3    H143047   1.553   6.328  10.047
 6356TIP3    H243048   1.536   6.444  10.143
 6357TIP3   OH243049   0.069   6.631  10.458
 6357TIP3    H143050   0.088   6.624  10.363
 6357TIP3    H243051   0.158   6.617  10.497
 6358TIP3   OH243052   1.579   6.031   9.402
 6358TIP3    H143053   1.637   5.981   9.463
 6358TIP3    H243054   1.492   5.989   9.414
 6359TIP3   OH243055   1.540   6.184   9.899
 6359TIP3    H143056   1.565   6.089   9.908
 6359TIP3    H243057   1.620   6.222   9.863
 6360TIP3   OH243058   1.600   6.237  10.442
 6360TIP3    H143059   1.696   6.259  10.441
 6360TIP3    H243060   1.581   6.250  10.536
 6361TIP3   OH243061   1.608   6.312  10.723
 6361TIP3    H143062   1.517   6.337  10.749
 6361TIP3    H243063   1.647   6.398  10.695
 6362TIP3   OH243064   1.603   5.911   9.902
 6362TIP3    H143065   1.625   5.868   9.988
 6362TIP3    H243066   1.543   5.847   9.859
 6363TIP3   OH243067   0.154   5.991  10.361
 6363TIP3    H143068   0.198   5.908  10.387
 6363TIP3    H243069   0.204   6.060  10.406
 6364TIP3   OH243070   0.004   6.298  10.475
 6364TIP3    H143071   0.046   6.276  10.390
 6364TIP3    H243072   0.034   6.388  10.488
 6365TIP3   OH243073   1.786   5.913   9.558
 6365TIP3    H143074   1.825   5.842   9.503
 6365TIP3    H243075   1.858   5.977   9.563
 6366TIP3   OH243076   0.036   5.899   9.821
 6366TIP3    H143077  -0.057   5.923   9.836
 6366TIP3    H243078   0.073   5.980   9.780
 6367TIP3   OH243079   1.487   7.405  10.052
 6367TIP3    H143080   1.563   7.381   9.999
 6367TIP3    H243081   1.530   7.458  10.125
 6368TIP3   OH243082   0.028   5.801  10.716
 6368TIP3    H143083  -0.045   5.762  10.765
 6368TIP3    H243084  -0.027   5.857  10.656
 6369TIP3   OH243085   0.523   7.204  10.747
 6369TIP3    H143086   0.485   7.286  10.710
 6369TIP3    H243087   0.615   7.212  10.712
 6370TIP3   OH243088   1.182   7.485  -0.027
 6370TIP3    H143089   1.251   7.420  -0.051
 6370TIP3    H243090   1.222   7.513   0.057
 6371TIP3   OH243091   1.690   5.736  10.866
 6371TIP3    H143092   1.600   5.759  10.838
 6371TIP3    H243093   1.702   5.648  10.824
 6372TIP3   OH243094   0.263   7.525  10.746
 6372TIP3    H143095   0.191   7.576  10.704
 6372TIP3    H243096   0.228   7.509  10.834
 6373TIP3   OH243097   0.513   7.479  10.645
 6373TIP3    H143098   0.428   7.500  10.690
 6373TIP3    H243099   0.510   7.542  10.571
 6374TIP3   OH243100   0.979   7.473  10.573
 6374TIP3    H143101   0.942   7.530  10.503
 6374TIP3    H243102   0.999   7.541  10.642
 6375TIP3   OH243103   1.211   7.351  10.663
 6375TIP3    H143104   1.127   7.387  10.631
 6375TIP3    H243105   1.260   7.435  10.660
 6376TIP3   OH243106   1.477   7.517  10.689
 6376TIP3    H143107   1.462   7.610  10.664
 6376TIP3    H243108   1.493   7.480  10.601
 6377TIP3   OH243109   0.216   7.395  10.434
 6377TIP3    H143110   0.203   7.350  10.521
 6377TIP3    H243111   0.297   7.353  10.397
 6378TIP3   OH243112   0.420   7.262  10.303
 6378TIP3    H143113   0.405   7.168  10.326
 6378TIP3    H243114   0.506   7.278  10.348
 6379TIP3   OH243115   0.680   7.311  10.389
 6379TIP3    H143116   0.695   7.219  10.364
 6379TIP3    H243117   0.687   7.308  10.486
 6380TIP3   OH243118   1.021   5.877  10.301
 6380TIP3    H143119   0.960   5.809  10.333
 6380TIP3    H243120   1.082   5.824  10.247
 6381TIP3   OH243121   1.540   5.682  10.311
 6381TIP3    H143122   1.601   5.740  10.258
 6381TIP3    H243123   1.451   5.717  10.286
 6382TIP3   OH243124   1.706   5.807  10.137
 6382TIP3    H143125   1.775   5.749  10.096
 6382TIP3    H243126   1.758   5.890  10.148
 6383TIP3   OH243127   0.269   5.739  10.086
 6383TIP3    H143128   0.187   5.719  10.035
 6383TIP3    H243129   0.312   5.652  10.082
 6384TIP3   OH243130   0.140   5.711   9.659
 6384TIP3    H143131   0.189   5.777   9.607
 6384TIP3    H243132   0.089   5.770   9.719
 6385TIP3   OH243133   0.708   5.739  10.070
 6385TIP3    H143134   0.801   5.763  10.057
 6385TIP3    H243135   0.708   5.707  10.161
 6386TIP3   OH243136   1.282   5.733  10.230
 6386TIP3    H143137   1.276   5.745  10.134
 6386TIP3    H243138   1.243   5.644  10.242
 6387TIP3   OH243139   1.407   5.737   9.797
 6387TIP3    H143140   1.332   5.797   9.783
 6387TIP3    H243141   1.364   5.652   9.822
 6388TIP3   OH243142   0.127   7.316   9.767
 6388TIP3    H143143   0.071   7.313   9.689
 6388TIP3    H243144   0.129   7.412   9.780
 6389TIP3   OH243145   0.325   5.908   9.513
 6389TIP3    H143146   0.378   5.847   9.459
 6389TIP3    H243147   0.394   5.939   9.575
 6390TIP3   OH243148   0.824   5.933   9.751
 6390TIP3    H143149   0.853   5.878   9.825
 6390TIP3    H243150   0.839   6.021   9.792
 6391TIP3   OH243151   1.018   7.459   9.582
 6391TIP3    H143152   1.114   7.461   9.573
 6391TIP3    H243153   0.997   7.387   9.518
 6392TIP3   OH243154   1.688   7.391   9.869
 6392TIP3    H143155   1.669   7.312   9.813
 6392TIP3    H243156   1.682   7.464   9.805
 6393TIP3   OH243157   0.307   7.402   9.456
 6393TIP3    H143158   0.286   7.434   9.545
 6393TIP3    H243159   0.390   7.353   9.472
 6394TIP3   OH243160   3.056   6.652  10.075
 6394TIP3    H143161   3.055   6.750  10.071
 6394TIP3    H243162   2.986   6.629  10.011
 6395TIP3   OH243163   2.942   6.578  10.423
 6395TIP3    H143164   2.941   6.514  10.495
 6395TIP3    H243165   2.908   6.527  10.348
 6396TIP3   OH243166   2.181   6.547  10.574
 6396TIP3    H143167   2.187   6.478  10.643
 6396TIP3    H243168   2.254   6.604  10.602
 6397TIP3   OH243169   3.311   6.874  10.252
 6397TIP3    H143170   3.270   6.803  10.302
 6397TIP3    H243171   3.314   6.944  10.320
 6398TIP3   OH243172   2.273   6.990  10.416
 6398TIP3    H143173   2.235   6.901  10.407
 6398TIP3    H243174   2.364   6.974  10.446
 6399TIP3   OH243175   1.934   6.346   9.981
 6399TIP3    H143176   1.892   6.433   9.972
 6399TIP3    H243177   1.879   6.291   9.924
 6400TIP3   OH243178   2.011   6.572  10.197
 6400TIP3    H143179   2.032   6.485  10.238
 6400TIP3    H243180   2.072   6.576  10.123
 6401TIP3   OH243181   3.020   7.389  10.275
 6401TIP3    H143182   3.085   7.322  10.244
 6401TIP3    H243183   3.003   7.356  10.363
 6402TIP3   OH243184   2.778   6.818  10.473
 6402TIP3    H143185   2.816   6.756  10.409
 6402TIP3    H243186   2.860   6.835  10.524
 6403TIP3   OH243187   3.640   5.985  10.546
 6403TIP3    H143188   3.658   6.045  10.621
 6403TIP3    H243189   3.698   6.026  10.480
 6404TIP3   OH243190   3.092   6.262  10.506
 6404TIP3    H143191   3.116   6.168  10.500
 6404TIP3    H243192   3.086   6.281  10.410
 6405TIP3   OH243193   2.408   6.072  10.224
 6405TIP3    H143194   2.419   6.156  10.175
 6405TIP3    H243195   2.368   6.016  10.154
 6406TIP3   OH243196   3.182   6.082  10.062
 6406TIP3    H143197   3.246   6.050  10.129
 6406TIP3    H243198   3.238   6.140  10.009
 6407TIP3   OH243199   2.070   6.316  10.297
 6407TIP3    H143200   2.137   6.262  10.343
 6407TIP3    H243201   2.082   6.284  10.206
 6408TIP3   OH243202   2.584   6.471  10.232
 6408TIP3    H143203   2.654   6.414  10.268
 6408TIP3    H243204   2.536   6.404  10.180
 6409TIP3   OH243205   3.701   6.142  10.770
 6409TIP3    H143206   3.622   6.201  10.758
 6409TIP3    H243207   3.685   6.116  10.861
 6410TIP3   OH243208   2.300   5.962  10.624
 6410TIP3    H143209   2.272   6.023  10.553
 6410TIP3    H243210   2.235   5.985  10.694
 6411TIP3   OH243211   3.026   6.912   9.985
 6411TIP3    H143212   3.006   6.886   9.894
 6411TIP3    H243213   2.998   7.006   9.987
 6412TIP3   OH243214   2.548   6.729  10.647
 6412TIP3    H143215   2.481   6.793  10.679
 6412TIP3    H243216   2.622   6.788  10.626
 6413TIP3   OH243217   3.363   6.018  10.263
 6413TIP3    H143218   3.342   5.940  10.315
 6413TIP3    H243219   3.431   6.060  10.317
 6414TIP3   OH243220   2.255   6.150  10.428
 6414TIP3    H143221   2.317   6.218  10.462
 6414TIP3    H243222   2.308   6.108  10.356
 6415TIP3   OH243223   2.395   6.931  10.726
 6415TIP3    H143224   2.389   7.027  10.707
 6415TIP3    H243225   2.312   6.921  10.780
 6416TIP3   OH243226   2.006   6.889   9.814
 6416TIP3    H143227   1.980   6.923   9.727
 6416TIP3    H243228   2.010   6.973   9.865
 6417TIP3   OH243229   3.364   7.058  10.490
 6417TIP3    H143230   3.267   7.068  10.501
 6417TIP3    H243231   3.391   7.149  10.469
 6418TIP3   OH243232   3.394   5.891  10.635
 6418TIP3    H143233   3.322   5.951  10.612
 6418TIP3    H243234   3.466   5.924  10.578
 6419TIP3   OH243235   2.692   5.698  10.373
 6419TIP3    H143236   2.676   5.601  10.367
 6419TIP3    H243237   2.605   5.729  10.407
 6420TIP3   OH243238   3.190   7.237  10.147
 6420TIP3    H143239   3.232   7.164  10.097
 6420TIP3    H243240   3.236   7.314  10.109
 6421TIP3   OH243241   3.313   7.029  10.002
 6421TIP3    H143242   3.282   6.961   9.940
 6421TIP3    H243243   3.316   6.979  10.085
 6422TIP3   OH243244   3.476   6.885  10.847
 6422TIP3    H143245   3.489   6.827  10.770
 6422TIP3    H243246   3.498   6.973  10.810
 6423TIP3   OH243247   2.922   6.573   9.824
 6423TIP3    H143248   2.857   6.636   9.788
 6423TIP3    H243249   2.993   6.591   9.758
 6424TIP3   OH243250   2.927   6.425   9.529
 6424TIP3    H143251   3.002   6.440   9.589
 6424TIP3    H243252   2.967   6.364   9.467
 6425TIP3   OH243253   3.662   6.517  10.651
 6425TIP3    H143254   3.598   6.591  10.658
 6425TIP3    H243255   3.712   6.543  10.572
 6426TIP3   OH243256   3.271   6.598   9.919
 6426TIP3    H143257   3.194   6.622   9.975
 6426TIP3    H243258   3.316   6.529   9.970
 6427TIP3   OH243259   3.255   6.410  10.830
 6427TIP3    H143260   3.263   6.490  10.883
 6427TIP3    H243261   3.198   6.446  10.759
 6428TIP3   OH243262   2.435   6.655  10.101
 6428TIP3    H143263   2.399   6.612  10.017
 6428TIP3    H243264   2.493   6.581  10.134
 6429TIP3   OH243265   2.556   6.992  10.377
 6429TIP3    H143266   2.578   6.956  10.292
 6429TIP3    H243267   2.639   6.970  10.425
 6430TIP3   OH243268   2.460   6.543  10.473
 6430TIP3    H143269   2.522   6.543  10.398
 6430TIP3    H243270   2.503   6.602  10.540
 6431TIP3   OH243271   3.105   7.096  10.547
 6431TIP3    H143272   3.074   7.163  10.608
 6431TIP3    H243273   3.078   7.011  10.590
 6432TIP3   OH243274   2.570   7.002  10.935
 6432TIP3    H143275   2.522   7.056  11.000
 6432TIP3    H243276   2.495   6.969  10.880
 6433TIP3   OH243277   3.181   6.489   9.687
 6433TIP3    H143278   3.213   6.535   9.768
 6433TIP3    H243279   3.184   6.564   9.621
 6434TIP3   OH243280   2.247   6.594  10.870
 6434TIP3    H143281   2.258   6.665  10.935
 6434TIP3    H243282   2.158   6.608  10.836
 6435TIP3   OH243283   2.926   7.191  10.032
 6435TIP3    H143284   2.971   7.218  10.113
 6435TIP3    H243285   2.873   7.268  10.010
 6436TIP3   OH243286   3.528   5.692   9.676
 6436TIP3    H143287   3.433   5.703   9.699
 6436TIP3    H243288   3.547   5.776   9.631
 6437TIP3   OH243289   2.322   6.566   9.875
 6437TIP3    H143290   2.296   6.642   9.818
 6437TIP3    H243291   2.262   6.497   9.845
 6438TIP3   OH243292   3.640   7.125   9.510
 6438TIP3    H143293   3.657   7.220   9.527
 6438TIP3    H243294   3.732   7.094   9.511
 6439TIP3   OH243295   1.939   6.810  10.753
 6439TIP3    H143296   1.888   6.802  10.670
 6439TIP3    H243297   1.941   6.717  10.782
 6440TIP3   OH243298   1.914   7.081  10.438
 6440TIP3    H143299   2.009   7.071  10.437
 6440TIP3    H243300   1.903   7.162  10.490
 6441TIP3   OH243301   2.818   7.080  10.870
 6441TIP3    H143302   2.829   7.170  10.906
 6441TIP3    H243303   2.732   7.053  10.910
 6442TIP3   OH243304   2.861   7.482   9.869
 6442TIP3    H143305   2.878   7.476   9.773
 6442TIP3    H243306   2.881   7.577   9.890
 6443TIP3   OH243307   2.242   7.365  10.054
 6443TIP3    H143308   2.251   7.329  10.145
 6443TIP3    H243309   2.153   7.331  10.032
 6444TIP3   OH243310   3.180   7.402   9.571
 6444TIP3    H143311   3.227   7.327   9.527
 6444TIP3    H243312   3.187   7.377   9.665
 6445TIP3   OH243313   3.149   7.397   9.849
 6445TIP3    H143314   3.054   7.401   9.867
 6445TIP3    H243315   3.176   7.323   9.906
 6446TIP3   OH243316   2.163   6.936  10.851
 6446TIP3    H143317   2.184   6.902  10.939
 6446TIP3    H243318   2.073   6.902  10.831
 6447TIP3   OH243319   2.432   5.790  10.446
 6447TIP3    H143320   2.341   5.776  10.412
 6447TIP3    H243321   2.419   5.870  10.500
 6448TIP3   OH243322   2.894   5.769  10.794
 6448TIP3    H143323   2.934   5.712  10.863
 6448TIP3    H243324   2.798   5.743  10.802
 6449TIP3   OH243325   3.196   6.141  10.872
 6449TIP3    H143326   3.200   6.127  10.969
 6449TIP3    H243327   3.225   6.235  10.858
 6450TIP3   OH243328   3.325   6.599   9.457
 6450TIP3    H143329   3.299   6.606   9.365
 6450TIP3    H243330   3.386   6.672   9.473
 6451TIP3   OH243331   2.859   6.012   9.516
 6451TIP3    H143332   2.829   6.008   9.608
 6451TIP3    H243333   2.828   5.925   9.486
 6452TIP3   OH243334   2.439   6.286  10.574
 6452TIP3    H143335   2.368   6.285  10.641
 6452TIP3    H243336   2.434   6.377  10.538
 6453TIP3   OH243337   2.437   6.299  10.063
 6453TIP3    H143338   2.344   6.271  10.050
 6453TIP3    H243339   2.475   6.269   9.978
 6454TIP3   OH243340   2.989   6.347   9.940
 6454TIP3    H143341   2.949   6.430   9.904
 6454TIP3    H243342   3.057   6.333   9.873
 6455TIP3   OH243343   3.095   6.297  10.224
 6455TIP3    H143344   3.065   6.353  10.150
 6455TIP3    H243345   3.103   6.212  10.177
 6456TIP3   OH243346   2.195   6.314  10.747
 6456TIP3    H143347   2.215   6.350  10.836
 6456TIP3    H243348   2.165   6.223  10.765
 6457TIP3   OH243349   2.541   6.050   9.428
 6457TIP3    H143350   2.496   6.009   9.505
 6457TIP3    H243351   2.470   6.094   9.380
 6458TIP3   OH243352   1.870   6.020  10.143
 6458TIP3    H143353   1.939   6.016  10.213
 6458TIP3    H243354   1.915   5.984  10.064
 6459TIP3   OH243355   1.997   6.091   9.678
 6459TIP3    H143356   2.050   6.151   9.622
 6459TIP3    H243357   1.928   6.154   9.710
 6460TIP3   OH243358   3.018   6.454  10.685
 6460TIP3    H143359   3.052   6.389  10.620
 6460TIP3    H243360   2.961   6.401  10.744
 6461TIP3   OH243361   2.694   6.054  10.163
 6461TIP3    H143362   2.600   6.052  10.192
 6461TIP3    H243363   2.741   6.034  10.245
 6462TIP3   OH243364   2.174   6.207  10.049
 6462TIP3    H143365   2.086   6.223  10.010
 6462TIP3    H243366   2.203   6.123  10.009
 6463TIP3   OH243367   2.538   6.213   9.813
 6463TIP3    H143368   2.633   6.223   9.828
 6463TIP3    H243369   2.514   6.280   9.746
 6464TIP3   OH243370   3.135   5.977  10.488
 6464TIP3    H143371   3.063   5.980  10.552
 6464TIP3    H243372   3.088   5.950  10.407
 6465TIP3   OH243373   2.409   6.330   9.571
 6465TIP3    H143374   2.356   6.291   9.499
 6465TIP3    H243375   2.491   6.351   9.523
 6466TIP3   OH243376   2.821   6.329  10.351
 6466TIP3    H143377   2.882   6.276  10.298
 6466TIP3    H243378   2.806   6.272  10.427
 6467TIP3   OH243379   2.322   5.943   9.995
 6467TIP3    H143380   2.291   5.851   9.996
 6467TIP3    H243381   2.402   5.935   9.940
 6468TIP3   OH243382   2.685   6.159  10.594
 6468TIP3    H143383   2.602   6.211  10.595
 6468TIP3    H243384   2.738   6.202  10.662
 6469TIP3   OH243385   2.743   6.786   9.763
 6469TIP3    H143386   2.667   6.735   9.727
 6469TIP3    H243387   2.723   6.793   9.858
 6470TIP3   OH243388   3.466   6.698  10.644
 6470TIP3    H143389   3.520   6.751  10.583
 6470TIP3    H243390   3.379   6.705  10.599
 6471TIP3   OH243391   3.125   6.064   9.580
 6471TIP3    H143392   3.031   6.080   9.567
 6471TIP3    H243393   3.161   6.149   9.615
 6472TIP3   OH243394   2.894   6.811  10.880
 6472TIP3    H143395   2.860   6.768  10.961
 6472TIP3    H243396   2.864   6.902  10.889
 6473TIP3   OH243397   3.204   6.246   9.741
 6473TIP3    H143398   3.291   6.243   9.785
 6473TIP3    H243399   3.208   6.335   9.697
 6474TIP3   OH243400   2.260   6.721  10.344
 6474TIP3    H143401   2.314   6.686  10.273
 6474TIP3    H243402   2.251   6.639  10.398
 6475TIP3   OH243403   2.935   6.962   9.668
 6475TIP3    H143404   2.898   7.033   9.720
 6475TIP3    H243405   2.884   6.879   9.689
 6476TIP3   OH243406   1.951   6.567  10.870
 6476TIP3    H143407   1.977   6.525  10.952
 6476TIP3    H243408   1.894   6.504  10.821
 6477TIP3   OH243409   3.120   7.053  10.883
 6477TIP3    H143410   3.029   7.070  10.856
 6477TIP3    H243411   3.125   7.079  10.976
 6478TIP3   OH243412   3.691   6.269   9.720
 6478TIP3    H143413   3.634   6.242   9.646
 6478TIP3    H243414   3.698   6.365   9.697
 6479TIP3   OH243415   3.515   7.152   9.759
 6479TIP3    H143416   3.480   7.068   9.792
 6479TIP3    H243417   3.552   7.131   9.672
 6480TIP3   OH243418   3.241   6.634  10.472
 6480TIP3    H143419   3.147   6.614  10.459
 6480TIP3    H243420   3.284   6.560  10.425
 6481TIP3   OH243421   2.486   7.064  10.086
 6481TIP3    H143422   2.543   7.141  10.064
 6481TIP3    H243423   2.402   7.094  10.047
 6482TIP3   OH243424   2.067   6.552   9.538
 6482TIP3    H143425   2.128   6.617   9.579
 6482TIP3    H243426   1.980   6.585   9.565
 6483TIP3   OH243427   2.637   6.834  10.036
 6483TIP3    H143428   2.604   6.925  10.040
 6483TIP3    H243429   2.566   6.778  10.069
 6484TIP3   OH243430   2.677   7.256  10.676
 6484TIP3    H143431   2.727   7.334  10.647
 6484TIP3    H243432   2.740   7.215  10.737
 6485TIP3   OH243433   2.499   7.337   9.982
 6485TIP3    H143434   2.401   7.342  10.003
 6485TIP3    H243435   2.527   7.413  10.038
 6486TIP3   OH243436   3.031   6.852  10.632
 6486TIP3    H143437   2.999   6.833  10.722
 6486TIP3    H243438   3.096   6.781  10.619
 6487TIP3   OH243439   3.271   6.969   9.545
 6487TIP3    H143440   3.295   6.912   9.622
 6487TIP3    H243441   3.178   6.936   9.546
 6488TIP3   OH243442   3.290   7.337  10.864
 6488TIP3    H143443   3.243   7.269  10.814
 6488TIP3    H243444   3.330   7.392  10.793
 6489TIP3   OH243445   3.710   7.393   9.570
 6489TIP3    H143446   3.779   7.459   9.548
 6489TIP3    H243447   3.640   7.455   9.599
 6490TIP3   OH243448   2.120   6.041  10.824
 6490TIP3    H143449   2.028   6.069  10.815
 6490TIP3    H243450   2.115   5.953  10.865
 6491TIP3   OH243451   3.343   6.828   9.772
 6491TIP3    H143452   3.317   6.746   9.819
 6491TIP3    H243453   3.439   6.825   9.786
 6492TIP3   OH243454   2.082   7.215  10.666
 6492TIP3    H143455   2.111   7.123  10.667
 6492TIP3    H243456   2.110   7.244  10.754
 6493TIP3   OH243457   2.674   7.072   9.395
 6493TIP3    H143458   2.691   6.995   9.337
 6493TIP3    H243459   2.635   7.023   9.470
 6494TIP3   OH243460   2.553   7.019   9.639
 6494TIP3    H143461   2.589   6.965   9.710
 6494TIP3    H243462   2.564   7.111   9.671
 6495TIP3   OH243463   2.213   6.745   9.693
 6495TIP3    H143464   2.137   6.785   9.739
 6495TIP3    H243465   2.259   6.823   9.656
 6496TIP3   OH243466   2.988   6.003  10.713
 6496TIP3    H143467   3.077   5.993  10.751
 6496TIP3    H243468   2.950   5.912  10.724
 6497TIP3   OH243469   3.066   5.970   9.829
 6497TIP3    H143470   3.090   6.015   9.746
 6497TIP3    H243471   3.123   6.017   9.892
 6498TIP3   OH243472   2.836   7.202   9.723
 6498TIP3    H143473   2.749   7.239   9.706
 6498TIP3    H243474   2.891   7.235   9.649
 6499TIP3   OH243475   2.790   6.145   9.911
 6499TIP3    H143476   2.868   6.204   9.916
 6499TIP3    H243477   2.763   6.134  10.004
 6500TIP3   OH243478   2.850   6.278  10.821
 6500TIP3    H143479   2.838   6.316  10.910
 6500TIP3    H243480   2.862   6.184  10.826
 6501TIP3   OH243481   2.875   5.851   9.999
 6501TIP3    H143482   2.842   5.917  10.062
 6501TIP3    H243483   2.944   5.905   9.955
 6502TIP3   OH243484   2.579   7.282   9.701
 6502TIP3    H143485   2.575   7.361   9.641
 6502TIP3    H243486   2.520   7.305   9.776
 6503TIP3   OH243487   2.440   5.962   9.670
 6503TIP3    H143488   2.435   6.052   9.709
 6503TIP3    H243489   2.531   5.937   9.696
 6504TIP3   OH243490   3.466   6.069  10.860
 6504TIP3    H143491   3.370   6.067  10.871
 6504TIP3    H243492   3.485   6.019  10.780
 6505TIP3   OH243493   3.325   6.414  10.314
 6505TIP3    H143494   3.243   6.369  10.287
 6505TIP3    H243495   3.373   6.346  10.367
 6506TIP3   OH243496   2.262   7.004   9.573
 6506TIP3    H143497   2.328   7.068   9.605
 6506TIP3    H243498   2.316   6.958   9.506
 6507TIP3   OH243499   2.097   6.274   9.491
 6507TIP3    H143500   2.101   6.370   9.510
 6507TIP3    H243501   2.009   6.257   9.456
 6508TIP3   OH243502   3.432   7.338  10.481
 6508TIP3    H143503   3.422   7.408  10.413
 6508TIP3    H243504   3.528   7.346  10.498
 6509TIP3   OH243505   2.178   5.752  10.364
 6509TIP3    H143506   2.161   5.753  10.267
 6509TIP3    H243507   2.139   5.665  10.388
 6510TIP3   OH243508   2.075   7.144   9.980
 6510TIP3    H143509   1.989   7.188   9.973
 6510TIP3    H243510   2.119   7.189   9.906
 6511TIP3   OH243511   2.877   7.254   9.409
 6511TIP3    H143512   2.809   7.185   9.427
 6511TIP3    H243513   2.949   7.194   9.384
 6512TIP3   OH243514   3.336   7.229   9.425
 6512TIP3    H143515   3.361   7.149   9.475
 6512TIP3    H243516   3.412   7.248   9.369
 6513TIP3   OH243517   2.419   6.820   9.405
 6513TIP3    H143518   2.435   6.746   9.465
 6513TIP3    H243519   2.497   6.812   9.347
 6514TIP3   OH243520   2.953   6.935   9.379
 6514TIP3    H143521   2.944   6.938   9.476
 6514TIP3    H243522   2.951   6.837   9.373
 6515TIP3   OH243523   3.225   6.770  10.869
 6515TIP3    H143524   3.305   6.827  10.875
 6515TIP3    H243525   3.158   6.837  10.889
 6516TIP3   OH243526   2.540   6.622   9.652
 6516TIP3    H143527   2.490   6.566   9.711
 6516TIP3    H243528   2.573   6.557   9.585
 6517TIP3   OH243529   2.465   6.416  10.861
 6517TIP3    H143530   2.412   6.486  10.903
 6517TIP3    H243531   2.508   6.457  10.786
 6518TIP3   OH243532   2.649   6.444   9.469
 6518TIP3    H143533   2.637   6.438   9.373
 6518TIP3    H243534   2.747   6.451   9.478
 6519TIP3   OH243535   3.588   6.678   9.410
 6519TIP3    H143536   3.562   6.639   9.325
 6519TIP3    H243537   3.590   6.774   9.393
 6520TIP3   OH243538   2.479   6.183  10.952
 6520TIP3    H143539   2.528   6.111  10.912
 6520TIP3    H243540   2.507   6.262  10.903
 6521TIP3   OH243541   2.550   5.979  10.741
 6521TIP3    H143542   2.598   6.025  10.669
 6521TIP3    H243543   2.460   5.968  10.701
 6522TIP3   OH243544   2.705   6.522  10.762
 6522TIP3    H143545   2.782   6.514  10.705
 6522TIP3    H243546   2.668   6.607  10.733
 6523TIP3   OH243547   2.632   5.725  10.780
 6523TIP3    H143548   2.609   5.820  10.777
 6523TIP3    H243549   2.556   5.687  10.733
 6524TIP3   OH243550   2.634   7.516   9.588
 6524TIP3    H143551   2.732   7.525   9.581
 6524TIP3    H243552   2.616   7.569   9.508
 6525TIP3   OH243553   1.988   6.972   9.526
 6525TIP3    H143554   2.085   6.982   9.543
 6525TIP3    H243555   1.993   6.910   9.449
 6526TIP3   OH243556   1.869   7.510  10.020
 6526TIP3    H143557   1.796   7.461   9.975
 6526TIP3    H243558   1.894   7.445  10.088
 6527TIP3   OH243559   1.949   7.325  10.209
 6527TIP3    H143560   1.913   7.237  10.230
 6527TIP3    H243561   1.972   7.357  10.298
 6528TIP3   OH243562   3.703   7.403  10.505
 6528TIP3    H143563   3.708   7.421  10.600
 6528TIP3    H243564   3.772   7.462  10.472
 6529TIP3   OH243565   3.662   7.364  10.795
 6529TIP3    H143566   3.613   7.288  10.757
 6529TIP3    H243567   3.712   7.321  10.865
 6530TIP3   OH243568   3.636   6.770   9.806
 6530TIP3    H143569   3.723   6.808   9.825
 6530TIP3    H243570   3.634   6.698   9.873
 6531TIP3   OH243571   3.673   6.577   9.996
 6531TIP3    H143572   3.597   6.528  10.034
 6531TIP3    H243573   3.732   6.589  10.073
 6532TIP3   OH243574   3.647   6.845  10.494
 6532TIP3    H143575   3.728   6.806  10.456
 6532TIP3    H243576   3.662   6.940  10.475
 6533TIP3   OH243577   3.501   7.138  10.722
 6533TIP3    H143578   3.433   7.169  10.783
 6533TIP3    H243579   3.448   7.096  10.650
 6534TIP3   OH243580   3.701   6.559   9.634
 6534TIP3    H143581   3.642   6.592   9.563
 6534TIP3    H243582   3.691   6.630   9.700
 6535TIP3   OH243583   3.540   6.280   9.487
 6535TIP3    H143584   3.548   6.347   9.418
 6535TIP3    H243585   3.521   6.198   9.436
 6536TIP3   OH243586   3.453   6.423  10.054
 6536TIP3    H143587   3.440   6.328  10.048
 6536TIP3    H243588   3.422   6.444  10.144
 6537TIP3   OH243589   1.956   6.637  10.458
 6537TIP3    H143590   1.971   6.622  10.362
 6537TIP3    H243591   2.043   6.611  10.496
 6538TIP3   OH243592   3.465   6.027   9.398
 6538TIP3    H143593   3.523   5.984   9.464
 6538TIP3    H243594   3.378   5.988   9.414
 6539TIP3   OH243595   3.418   6.182   9.893
 6539TIP3    H143596   3.450   6.090   9.909
 6539TIP3    H243597   3.500   6.223   9.863
 6540TIP3   OH243598   3.485   6.237  10.441
 6540TIP3    H143599   3.581   6.259  10.441
 6540TIP3    H243600   3.467   6.251  10.535
 6541TIP3   OH243601   3.490   6.311  10.719
 6541TIP3    H143602   3.402   6.339  10.752
 6541TIP3    H243603   3.535   6.396  10.697
 6542TIP3   OH243604   3.488   5.911   9.903
 6542TIP3    H143605   3.510   5.868   9.988
 6542TIP3    H243606   3.429   5.847   9.859
 6543TIP3   OH243607   2.035   5.991  10.361
 6543TIP3    H143608   2.082   5.909  10.384
 6543TIP3    H243609   2.092   6.060  10.397
 6544TIP3   OH243610   1.863   6.291  10.461
 6544TIP3    H143611   1.921   6.265  10.387
 6544TIP3    H243612   1.911   6.370  10.489
 6545TIP3   OH243613   3.670   5.914   9.559
 6545TIP3    H143614   3.710   5.843   9.504
 6545TIP3    H243615   3.741   5.980   9.563
 6546TIP3   OH243616   1.901   5.920   9.872
 6546TIP3    H143617   1.807   5.935   9.854
 6546TIP3    H243618   1.944   5.966   9.797
 6547TIP3   OH243619   3.375   7.412  10.065
 6547TIP3    H143620   3.445   7.382  10.004
 6547TIP3    H243621   3.426   7.463  10.130
 6548TIP3   OH243622   1.897   5.787  10.699
 6548TIP3    H143623   1.829   5.764  10.766
 6548TIP3    H243624   1.849   5.852  10.645
 6549TIP3   OH243625   2.407   7.202  10.740
 6549TIP3    H143626   2.375   7.289  10.712
 6549TIP3    H243627   2.502   7.211  10.715
 6550TIP3   OH243628   3.067   7.484  -0.027
 6550TIP3    H143629   3.138   7.421  -0.050
 6550TIP3    H243630   3.108   7.514   0.056
 6551TIP3   OH243631   3.576   5.736  10.866
 6551TIP3    H143632   3.486   5.760  10.837
 6551TIP3    H243633   3.588   5.649  10.824
 6552TIP3   OH243634   2.149   7.526  10.745
 6552TIP3    H143635   2.077   7.577  10.706
 6552TIP3    H243636   2.116   7.507  10.834
 6553TIP3   OH243637   2.398   7.482  10.642
 6553TIP3    H143638   2.313   7.502  10.689
 6553TIP3    H243639   2.393   7.547  10.570
 6554TIP3   OH243640   2.867   7.474  10.569
 6554TIP3    H143641   2.825   7.531  10.503
 6554TIP3    H243642   2.883   7.539  10.642
 6555TIP3   OH243643   3.098   7.352  10.660
 6555TIP3    H143644   3.012   7.386  10.632
 6555TIP3    H243645   3.145   7.436  10.661
 6556TIP3   OH243646   3.362   7.515  10.689
 6556TIP3    H143647   3.350   7.609  10.667
 6556TIP3    H243648   3.381   7.476  10.602
 6557TIP3   OH243649   2.101   7.392  10.436
 6557TIP3    H143650   2.092   7.348  10.523
 6557TIP3    H243651   2.182   7.353  10.399
 6558TIP3   OH243652   2.310   7.263  10.298
 6558TIP3    H143653   2.289   7.173  10.328
 6558TIP3    H243654   2.391   7.281  10.350
 6559TIP3   OH243655   2.567   7.312  10.386
 6559TIP3    H143656   2.584   7.218  10.367
 6559TIP3    H243657   2.572   7.312  10.484
 6560TIP3   OH243658   2.912   5.876  10.305
 6560TIP3    H143659   2.844   5.813  10.332
 6560TIP3    H243660   2.967   5.823  10.246
 6561TIP3   OH243661   3.426   5.682  10.311
 6561TIP3    H143662   3.487   5.740  10.258
 6561TIP3    H243663   3.337   5.717  10.286
 6562TIP3   OH243664   3.592   5.807  10.136
 6562TIP3    H143665   3.661   5.749  10.096
 6562TIP3    H243666   3.643   5.890  10.148
 6563TIP3   OH243667   2.150   5.739  10.088
 6563TIP3    H143668   2.070   5.720  10.036
 6563TIP3    H243669   2.195   5.652  10.083
 6564TIP3   OH243670   2.025   5.714   9.660
 6564TIP3    H143671   2.075   5.779   9.607
 6564TIP3    H243672   1.970   5.771   9.715
 6565TIP3   OH243673   2.595   5.732  10.067
 6565TIP3    H143674   2.685   5.767  10.058
 6565TIP3    H243675   2.593   5.710  10.161
 6566TIP3   OH243676   3.168   5.733  10.230
 6566TIP3    H143677   3.161   5.745  10.134
 6566TIP3    H243678   3.129   5.644  10.243
 6567TIP3   OH243679   3.294   5.736   9.798
 6567TIP3    H143680   3.219   5.795   9.783
 6567TIP3    H243681   3.250   5.651   9.822
 6568TIP3   OH243682   2.015   7.309   9.765
 6568TIP3    H143683   1.948   7.307   9.695
 6568TIP3    H243684   2.017   7.405   9.780
 6569TIP3   OH243685   2.208   5.908   9.512
 6569TIP3    H143686   2.261   5.847   9.459
 6569TIP3    H243687   2.274   5.941   9.575
 6570TIP3   OH243688   2.709   5.932   9.753
 6570TIP3    H143689   2.736   5.875   9.826
 6570TIP3    H243690   2.719   6.019   9.797
 6571TIP3   OH243691   2.904   7.442   9.598
 6571TIP3    H143692   2.996   7.463   9.575
 6571TIP3    H243693   2.884   7.388   9.518
 6572TIP3   OH243694   3.573   7.390   9.870
 6572TIP3    H143695   3.555   7.312   9.812
 6572TIP3    H243696   3.568   7.464   9.805
 6573TIP3   OH243697   2.198   7.410   9.458
 6573TIP3    H143698   2.168   7.433   9.546
 6573TIP3    H243699   2.273   7.350   9.472
 6574TIP3   OH243700   4.944   6.654  10.072
 6574TIP3    H143701   4.941   6.752  10.072
 6574TIP3    H243702   4.870   6.630  10.014
 6575TIP3   OH243703   4.827   6.577  10.425
 6575TIP3    H143704   4.828   6.512  10.496
 6575TIP3    H243705   4.792   6.527  10.349
 6576TIP3   OH243706   4.064   6.546  10.578
 6576TIP3    H143707   4.072   6.477  10.647
 6576TIP3    H243708   4.138   6.603  10.601
 6577TIP3   OH243709   5.196   6.873  10.253
 6577TIP3    H143710   5.155   6.802  10.303
 6577TIP3    H243711   5.199   6.944  10.320
 6578TIP3   OH243712   4.156   6.992  10.427
 6578TIP3    H143713   4.126   6.903  10.398
 6578TIP3    H243714   4.251   6.974  10.436
 6579TIP3   OH243715   3.819   6.346   9.979
 6579TIP3    H143716   3.776   6.433   9.972
 6579TIP3    H243717   3.764   6.292   9.921
 6580TIP3   OH243718   3.892   6.569  10.195
 6580TIP3    H143719   3.920   6.486  10.238
 6580TIP3    H243720   3.960   6.580  10.127
 6581TIP3   OH243721   4.908   7.389  10.278
 6581TIP3    H143722   4.973   7.322  10.247
 6581TIP3    H243723   4.888   7.354  10.365
 6582TIP3   OH243724   4.665   6.818  10.476
 6582TIP3    H143725   4.698   6.757  10.408
 6582TIP3    H243726   4.748   6.835  10.524
 6583TIP3   OH243727   5.525   5.985  10.546
 6583TIP3    H143728   5.543   6.045  10.621
 6583TIP3    H243729   5.583   6.026  10.480
 6584TIP3   OH243730   4.979   6.265  10.505
 6584TIP3    H143731   4.999   6.170  10.506
 6584TIP3    H243732   4.971   6.279  10.409
 6585TIP3   OH243733   4.294   6.074  10.224
 6585TIP3    H143734   4.305   6.157  10.174
 6585TIP3    H243735   4.254   6.017  10.155
 6586TIP3   OH243736   5.068   6.081  10.061
 6586TIP3    H143737   5.132   6.050  10.129
 6586TIP3    H243738   5.124   6.140  10.010
 6587TIP3   OH243739   3.956   6.316  10.297
 6587TIP3    H143740   4.023   6.262  10.343
 6587TIP3    H243741   3.968   6.284  10.206
 6588TIP3   OH243742   4.471   6.471  10.231
 6588TIP3    H143743   4.540   6.413  10.269
 6588TIP3    H243744   4.421   6.406  10.179
 6589TIP3   OH243745   5.587   6.142  10.770
 6589TIP3    H143746   5.508   6.201  10.758
 6589TIP3    H243747   5.570   6.116  10.861
 6590TIP3   OH243748   4.186   5.962  10.624
 6590TIP3    H143749   4.157   6.023  10.553
 6590TIP3    H243750   4.121   5.985  10.694
 6591TIP3   OH243751   4.913   6.912   9.983
 6591TIP3    H143752   4.888   6.885   9.893
 6591TIP3    H243753   4.883   7.005   9.988
 6592TIP3   OH243754   4.436   6.729  10.656
 6592TIP3    H143755   4.365   6.795  10.674
 6592TIP3    H243756   4.506   6.788  10.623
 6593TIP3   OH243757   5.250   6.017  10.261
 6593TIP3    H143758   5.228   5.940  10.315
 6593TIP3    H243759   5.317   6.061  10.317
 6594TIP3   OH243760   4.140   6.151  10.429
 6594TIP3    H143761   4.204   6.219  10.462
 6594TIP3    H243762   4.194   6.109  10.357
 6595TIP3   OH243763   4.283   6.931  10.734
 6595TIP3    H143764   4.275   7.024  10.705
 6595TIP3    H243765   4.196   6.921  10.779
 6596TIP3   OH243766   3.889   6.889   9.813
 6596TIP3    H143767   3.865   6.925   9.726
 6596TIP3    H243768   3.898   6.971   9.866
 6597TIP3   OH243769   5.250   7.058  10.490
 6597TIP3    H143770   5.153   7.068  10.501
 6597TIP3    H243771   5.276   7.149  10.469
 6598TIP3   OH243772   5.280   5.889  10.632
 6598TIP3    H143773   5.207   5.951  10.617
 6598TIP3    H243774   5.352   5.926  10.577
 6599TIP3   OH243775   4.577   5.698  10.372
 6599TIP3    H143776   4.562   5.602  10.367
 6599TIP3    H243777   4.491   5.729  10.407
 6600TIP3   OH243778   5.075   7.236  10.148
 6600TIP3    H143779   5.118   7.164  10.097
 6600TIP3    H243780   5.121   7.314  10.109
 6601TIP3   OH243781   5.198   7.028  10.000
 6601TIP3    H143782   5.167   6.959   9.940
 6601TIP3    H243783   5.201   6.979  10.084
 6602TIP3   OH243784   5.362   6.885  10.847
 6602TIP3    H143785   5.375   6.826  10.770
 6602TIP3    H243786   5.383   6.973  10.810
 6603TIP3   OH243787   4.808   6.576   9.825
 6603TIP3    H143788   4.740   6.635   9.788
 6603TIP3    H243789   4.880   6.586   9.760
 6604TIP3   OH243790   4.818   6.435   9.526
 6604TIP3    H143791   4.888   6.433   9.593
 6604TIP3    H243792   4.848   6.362   9.470
 6605TIP3   OH243793   5.548   6.517  10.651
 6605TIP3    H143794   5.483   6.591  10.658
 6605TIP3    H243795   5.597   6.543  10.572
 6606TIP3   OH243796   5.154   6.597   9.920
 6606TIP3    H143797   5.079   6.622   9.979
 6606TIP3    H243798   5.202   6.530   9.972
 6607TIP3   OH243799   5.144   6.412  10.827
 6607TIP3    H143800   5.146   6.491  10.883
 6607TIP3    H243801   5.081   6.444  10.759
 6608TIP3   OH243802   4.315   6.664  10.109
 6608TIP3    H143803   4.283   6.624  10.024
 6608TIP3    H243804   4.376   6.595  10.143
 6609TIP3   OH243805   4.446   7.001  10.377
 6609TIP3    H143806   4.447   6.950  10.295
 6609TIP3    H243807   4.525   6.966  10.422
 6610TIP3   OH243808   4.347   6.539  10.475
 6610TIP3    H143809   4.402   6.549  10.395
 6610TIP3    H243810   4.387   6.604  10.538
 6611TIP3   OH243811   4.990   7.096  10.547
 6611TIP3    H143812   4.960   7.163  10.608
 6611TIP3    H243813   4.963   7.011  10.590
 6612TIP3   OH243814   4.455   7.002  10.935
 6612TIP3    H143815   4.407   7.055  11.000
 6612TIP3    H243816   4.381   6.970  10.880
 6613TIP3   OH243817   5.043   6.519   9.683
 6613TIP3    H143818   5.097   6.536   9.764
 6613TIP3    H243819   5.090   6.567   9.611
 6614TIP3   OH243820   4.136   6.598  10.866
 6614TIP3    H143821   4.141   6.664  10.936
 6614TIP3    H243822   4.044   6.605  10.838
 6615TIP3   OH243823   4.813   7.191  10.031
 6615TIP3    H143824   4.855   7.221  10.112
 6615TIP3    H243825   4.757   7.265  10.007
 6616TIP3   OH243826   5.414   5.691   9.676
 6616TIP3    H143827   5.319   5.702   9.699
 6616TIP3    H243828   5.434   5.775   9.631
 6617TIP3   OH243829   4.210   6.565   9.873
 6617TIP3    H143830   4.182   6.643   9.821
 6617TIP3    H243831   4.146   6.498   9.847
 6618TIP3   OH243832   5.527   7.125   9.513
 6618TIP3    H143833   5.542   7.220   9.527
 6618TIP3    H243834   5.619   7.095   9.511
 6619TIP3   OH243835   3.824   6.809  10.754
 6619TIP3    H143836   3.775   6.802  10.670
 6619TIP3    H243837   3.826   6.715  10.783
 6620TIP3   OH243838   3.797   7.083  10.438
 6620TIP3    H143839   3.893   7.070  10.437
 6620TIP3    H243840   3.789   7.163  10.492
 6621TIP3   OH243841   4.704   7.081  10.870
 6621TIP3    H143842   4.714   7.171  10.904
 6621TIP3    H243843   4.618   7.053  10.910
 6622TIP3   OH243844   4.762   7.482   9.873
 6622TIP3    H143845   4.749   7.474   9.777
 6622TIP3    H243846   4.760   7.578   9.889
 6623TIP3   OH243847   4.124   7.369  10.055
 6623TIP3    H143848   4.139   7.328  10.143
 6623TIP3    H243849   4.040   7.328  10.032
 6624TIP3   OH243850   5.065   7.404   9.571
 6624TIP3    H143851   5.112   7.329   9.528
 6624TIP3    H243852   5.070   7.377   9.666
 6625TIP3   OH243853   5.036   7.397   9.849
 6625TIP3    H143854   4.940   7.403   9.865
 6625TIP3    H243855   5.058   7.321   9.906
 6626TIP3   OH243856   4.049   6.934  10.852
 6626TIP3    H143857   4.069   6.902  10.940
 6626TIP3    H243858   3.959   6.901  10.832
 6627TIP3   OH243859   4.318   5.791  10.445
 6627TIP3    H143860   4.226   5.776  10.412
 6627TIP3    H243861   4.304   5.870  10.500
 6628TIP3   OH243862   4.781   5.763  10.788
 6628TIP3    H143863   4.818   5.715  10.864
 6628TIP3    H243864   4.684   5.744  10.802
 6629TIP3   OH243865   5.089   6.136  10.870
 6629TIP3    H143866   5.063   6.123  10.963
 6629TIP3    H243867   5.096   6.233  10.856
 6630TIP3   OH243868   5.182   6.625   9.468
 6630TIP3    H143869   5.183   6.603   9.372
 6630TIP3    H243870   5.271   6.665   9.471
 6631TIP3   OH243871   4.746   6.014   9.517
 6631TIP3    H143872   4.714   6.007   9.609
 6631TIP3    H243873   4.715   5.927   9.486
 6632TIP3   OH243874   4.325   6.286  10.575
 6632TIP3    H143875   4.253   6.285  10.641
 6632TIP3    H243876   4.320   6.377  10.537
 6633TIP3   OH243877   4.324   6.295  10.062
 6633TIP3    H143878   4.230   6.272  10.049
 6633TIP3    H243879   4.361   6.268   9.976
 6634TIP3   OH243880   4.876   6.348   9.940
 6634TIP3    H143881   4.837   6.430   9.902
 6634TIP3    H243882   4.944   6.330   9.873
 6635TIP3   OH243883   4.980   6.297  10.224
 6635TIP3    H143884   4.950   6.353  10.150
 6635TIP3    H243885   4.988   6.212  10.177
 6636TIP3   OH243886   4.085   6.313  10.746
 6636TIP3    H143887   4.097   6.350  10.836
 6636TIP3    H243888   4.050   6.225  10.765
 6637TIP3   OH243889   4.426   6.050   9.429
 6637TIP3    H143890   4.380   6.008   9.505
 6637TIP3    H243891   4.355   6.094   9.380
 6638TIP3   OH243892   3.756   6.020  10.143
 6638TIP3    H143893   3.825   6.016  10.213
 6638TIP3    H243894   3.800   5.984  10.064
 6639TIP3   OH243895   3.881   6.092   9.676
 6639TIP3    H143896   3.934   6.153   9.621
 6639TIP3    H243897   3.813   6.155   9.708
 6640TIP3   OH243898   4.903   6.453  10.686
 6640TIP3    H143899   4.938   6.387  10.622
 6640TIP3    H243900   4.849   6.398  10.746
 6641TIP3   OH243901   4.579   6.054  10.163
 6641TIP3    H143902   4.486   6.053  10.191
 6641TIP3    H243903   4.627   6.035  10.245
 6642TIP3   OH243904   4.060   6.207  10.050
 6642TIP3    H143905   3.972   6.223  10.010
 6642TIP3    H243906   4.088   6.123  10.009
 6643TIP3   OH243907   4.424   6.213   9.812
 6643TIP3    H143908   4.520   6.223   9.827
 6643TIP3    H243909   4.400   6.281   9.747
 6644TIP3   OH243910   5.021   5.976  10.489
 6644TIP3    H143911   4.950   5.982  10.557
 6644TIP3    H243912   4.970   5.950  10.410
 6645TIP3   OH243913   4.295   6.330   9.571
 6645TIP3    H143914   4.242   6.292   9.499
 6645TIP3    H243915   4.377   6.351   9.523
 6646TIP3   OH243916   4.707   6.328  10.351
 6646TIP3    H143917   4.767   6.276  10.298
 6646TIP3    H243918   4.693   6.273  10.429
 6647TIP3   OH243919   4.208   5.943   9.995
 6647TIP3    H143920   4.177   5.851   9.996
 6647TIP3    H243921   4.287   5.935   9.940
 6648TIP3   OH243922   4.571   6.161  10.592
 6648TIP3    H143923   4.488   6.212  10.599
 6648TIP3    H243924   4.627   6.196  10.663
 6649TIP3   OH243925   4.630   6.783   9.763
 6649TIP3    H143926   4.550   6.737   9.729
 6649TIP3    H243927   4.606   6.797   9.857
 6650TIP3   OH243928   5.352   6.698  10.644
 6650TIP3    H143929   5.405   6.751  10.582
 6650TIP3    H243930   5.265   6.705  10.599
 6651TIP3   OH243931   5.012   6.064   9.581
 6651TIP3    H143932   4.917   6.080   9.567
 6651TIP3    H243933   5.047   6.149   9.616
 6652TIP3   OH243934   4.780   6.811  10.878
 6652TIP3    H143935   4.747   6.768  10.959
 6652TIP3    H243936   4.749   6.902  10.889
 6653TIP3   OH243937   5.087   6.258   9.741
 6653TIP3    H143938   5.174   6.244   9.784
 6653TIP3    H243939   5.100   6.340   9.690
 6654TIP3   OH243940   4.142   6.724  10.343
 6654TIP3    H143941   4.208   6.714  10.272
 6654TIP3    H243942   4.147   6.638  10.388
 6655TIP3   OH243943   4.839   6.930   9.666
 6655TIP3    H143944   4.804   7.014   9.701
 6655TIP3    H243945   4.766   6.868   9.688
 6656TIP3   OH243946   3.836   6.566  10.868
 6656TIP3    H143947   3.857   6.522  10.952
 6656TIP3    H243948   3.778   6.502  10.823
 6657TIP3   OH243949   5.006   7.053  10.883
 6657TIP3    H143950   4.914   7.070  10.856
 6657TIP3    H243951   5.010   7.079  10.976
 6658TIP3   OH243952   5.577   6.269   9.719
 6658TIP3    H143953   5.519   6.244   9.644
 6658TIP3    H243954   5.584   6.365   9.695
 6659TIP3   OH243955   5.401   7.153   9.760
 6659TIP3    H143956   5.369   7.069   9.795
 6659TIP3    H243957   5.438   7.132   9.673
 6660TIP3   OH243958   5.127   6.634  10.471
 6660TIP3    H143959   5.033   6.614  10.459
 6660TIP3    H243960   5.169   6.560  10.425
 6661TIP3   OH243961   4.379   7.069  10.082
 6661TIP3    H143962   4.428   7.150  10.061
 6661TIP3    H243963   4.291   7.091  10.048
 6662TIP3   OH243964   3.955   6.552   9.539
 6662TIP3    H143965   4.013   6.619   9.580
 6662TIP3    H243966   3.866   6.583   9.562
 6663TIP3   OH243967   4.519   6.835  10.031
 6663TIP3    H143968   4.487   6.927  10.042
 6663TIP3    H243969   4.449   6.785  10.077
 6664TIP3   OH243970   4.563   7.256  10.676
 6664TIP3    H143971   4.612   7.334  10.647
 6664TIP3    H243972   4.626   7.214  10.737
 6665TIP3   OH243973   4.388   7.333   9.985
 6665TIP3    H143974   4.291   7.346  10.001
 6665TIP3    H243975   4.424   7.417  10.019
 6666TIP3   OH243976   4.917   6.852  10.632
 6666TIP3    H143977   4.885   6.835  10.722
 6666TIP3    H243978   4.981   6.781  10.619
 6667TIP3   OH243979   5.153   6.961   9.544
 6667TIP3    H143980   5.181   6.913   9.624
 6667TIP3    H243981   5.058   6.942   9.551
 6668TIP3   OH243982   5.175   7.337  10.864
 6668TIP3    H143983   5.129   7.269  10.814
 6668TIP3    H243984   5.215   7.392  10.793
 6669TIP3   OH243985   5.596   7.393   9.570
 6669TIP3    H143986   5.665   7.459   9.548
 6669TIP3    H243987   5.525   7.455   9.599
 6670TIP3   OH243988   4.006   6.040  10.822
 6670TIP3    H143989   3.914   6.072  10.818
 6670TIP3    H243990   3.999   5.955  10.867
 6671TIP3   OH243991   5.228   6.824   9.770
 6671TIP3    H143992   5.204   6.745   9.823
 6671TIP3    H243993   5.325   6.825   9.783
 6672TIP3   OH243994   3.968   7.215  10.666
 6672TIP3    H143995   3.997   7.122  10.667
 6672TIP3    H243996   3.996   7.244  10.754
 6673TIP3   OH243997   4.565   7.068   9.395
 6673TIP3    H143998   4.573   6.992   9.335
 6673TIP3    H243999   4.518   7.025   9.470
 6674TIP3   OH244000   4.440   7.020   9.640
 6674TIP3    H144001   4.469   6.969   9.717
 6674TIP3    H244002   4.450   7.113   9.673
 6675TIP3   OH244003   4.096   6.745   9.689
 6675TIP3    H144004   4.024   6.785   9.741
 6675TIP3    H244005   4.146   6.823   9.658
 6676TIP3   OH244006   4.875   6.012  10.716
 6676TIP3    H144007   4.947   6.018  10.780
 6676TIP3    H244008   4.837   5.924  10.734
 6677TIP3   OH244009   4.952   5.970   9.830
 6677TIP3    H144010   4.975   6.015   9.746
 6677TIP3    H244011   5.009   6.014   9.893
 6678TIP3   OH244012   4.721   7.186   9.709
 6678TIP3    H144013   4.640   7.240   9.716
 6678TIP3    H244014   4.775   7.242   9.651
 6679TIP3   OH244015   4.676   6.145   9.911
 6679TIP3    H144016   4.753   6.205   9.916
 6679TIP3    H244017   4.648   6.133  10.004
 6680TIP3   OH244018   4.745   6.257  10.823
 6680TIP3    H144019   4.736   6.303  10.907
 6680TIP3    H244020   4.789   6.173  10.841
 6681TIP3   OH244021   4.760   5.851   9.998
 6681TIP3    H144022   4.728   5.915  10.063
 6681TIP3    H244023   4.830   5.905   9.955
 6682TIP3   OH244024   4.462   7.289   9.713
 6682TIP3    H144025   4.471   7.371   9.657
 6682TIP3    H244026   4.434   7.326   9.799
 6683TIP3   OH244027   4.326   5.962   9.670
 6683TIP3    H144028   4.321   6.052   9.709
 6683TIP3    H244029   4.417   5.937   9.696
 6684TIP3   OH244030   5.353   6.066  10.862
 6684TIP3    H144031   5.256   6.070  10.871
 6684TIP3    H244032   5.368   6.020  10.779
 6685TIP3   OH244033   5.211   6.414  10.314
 6685TIP3    H144034   5.128   6.369  10.288
 6685TIP3    H244035   5.259   6.346  10.366
 6686TIP3   OH244036   4.149   7.006   9.574
 6686TIP3    H144037   4.216   7.068   9.606
 6686TIP3    H244038   4.201   6.959   9.506
 6687TIP3   OH244039   3.983   6.274   9.488
 6687TIP3    H144040   3.986   6.370   9.510
 6687TIP3    H244041   3.894   6.257   9.457
 6688TIP3   OH244042   5.317   7.338  10.481
 6688TIP3    H144043   5.307   7.408  10.413
 6688TIP3    H244044   5.413   7.346  10.498
 6689TIP3   OH244045   4.064   5.752  10.364
 6689TIP3    H144046   4.047   5.753  10.267
 6689TIP3    H244047   4.025   5.666  10.388
 6690TIP3   OH244048   3.960   7.145   9.978
 6690TIP3    H144049   3.875   7.189   9.972
 6690TIP3    H244050   4.008   7.189   9.907
 6691TIP3   OH244051   4.765   7.253   9.407
 6691TIP3    H144052   4.694   7.187   9.428
 6691TIP3    H244053   4.836   7.192   9.382
 6692TIP3   OH244054   5.220   7.230   9.427
 6692TIP3    H144055   5.247   7.150   9.475
 6692TIP3    H244056   5.296   7.246   9.369
 6693TIP3   OH244057   4.307   6.821   9.406
 6693TIP3    H144058   4.321   6.746   9.465
 6693TIP3    H244059   4.383   6.809   9.345
 6694TIP3   OH244060   4.851   6.932   9.385
 6694TIP3    H144061   4.824   6.940   9.478
 6694TIP3    H244062   4.832   6.837   9.370
 6695TIP3   OH244063   5.112   6.771  10.869
 6695TIP3    H144064   5.192   6.828  10.874
 6695TIP3    H244065   5.044   6.837  10.888
 6696TIP3   OH244066   4.428   6.623   9.651
 6696TIP3    H144067   4.377   6.569   9.713
 6696TIP3    H244068   4.458   6.556   9.586
 6697TIP3   OH244069   4.355   6.418  10.868
 6697TIP3    H144070   4.290   6.484  10.897
 6697TIP3    H244071   4.393   6.454  10.787
 6698TIP3   OH244072   4.536   6.446   9.470
 6698TIP3    H144073   4.521   6.437   9.373
 6698TIP3    H244074   4.633   6.450   9.477
 6699TIP3   OH244075   5.434   6.717   9.421
 6699TIP3    H144076   5.456   6.645   9.359
 6699TIP3    H244077   5.483   6.792   9.386
 6700TIP3   OH244078   4.361   6.183  10.954
 6700TIP3    H144079   4.415   6.112  10.916
 6700TIP3    H244080   4.394   6.261  10.903
 6701TIP3   OH244081   4.433   5.981  10.741
 6701TIP3    H144082   4.486   6.026  10.671
 6701TIP3    H244083   4.345   5.970  10.698
 6702TIP3   OH244084   4.591   6.522  10.760
 6702TIP3    H144085   4.668   6.512  10.704
 6702TIP3    H244086   4.554   6.608  10.733
 6703TIP3   OH244087   4.520   5.727  10.772
 6703TIP3    H144088   4.494   5.821  10.779
 6703TIP3    H244089   4.440   5.685  10.737
 6704TIP3   OH244090   4.517   7.515   9.579
 6704TIP3    H144091   4.615   7.524   9.585
 6704TIP3    H244092   4.503   7.573   9.504
 6705TIP3   OH244093   3.873   6.972   9.525
 6705TIP3    H144094   3.970   6.982   9.543
 6705TIP3    H244095   3.878   6.908   9.450
 6706TIP3   OH244096   3.755   7.509  10.018
 6706TIP3    H144097   3.680   7.461   9.975
 6706TIP3    H244098   3.780   7.446  10.088
 6707TIP3   OH244099   3.835   7.324  10.209
 6707TIP3    H144100   3.799   7.237  10.230
 6707TIP3    H244101   3.857   7.358  10.298
 6708TIP3   OH244102   5.589   7.403  10.505
 6708TIP3    H144103   5.593   7.421  10.600
 6708TIP3    H244104   5.658   7.462  10.472
 6709TIP3   OH244105   5.548   7.364  10.795
 6709TIP3    H144106   5.499   7.288  10.757
 6709TIP3    H244107   5.597   7.321  10.865
 6710TIP3   OH244108   5.519   6.774   9.810
 6710TIP3    H144109   5.609   6.808   9.824
 6710TIP3    H244110   5.519   6.697   9.871
 6711TIP3   OH244111   5.557   6.577   9.993
 6711TIP3    H144112   5.482   6.528  10.033
 6711TIP3    H244113   5.616   6.589  10.070
 6712TIP3   OH244114   5.533   6.845  10.494
 6712TIP3    H144115   5.613   6.807  10.456
 6712TIP3    H244116   5.547   6.940  10.475
 6713TIP3   OH244117   5.386   7.138  10.722
 6713TIP3    H144118   5.318   7.169  10.783
 6713TIP3    H244119   5.334   7.096  10.650
 6714TIP3   OH244120   5.588   6.564   9.656
 6714TIP3    H144121   5.540   6.580   9.571
 6714TIP3    H244122   5.572   6.645   9.706
 6715TIP3   OH244123   5.406   6.268   9.493
 6715TIP3    H144124   5.437   6.343   9.435
 6715TIP3    H244125   5.406   6.194   9.431
 6716TIP3   OH244126   5.340   6.424  10.053
 6716TIP3    H144127   5.325   6.328  10.048
 6716TIP3    H244128   5.308   6.444  10.143
 6717TIP3   OH244129   3.841   6.634  10.459
 6717TIP3    H144130   3.858   6.624  10.362
 6717TIP3    H244131   3.930   6.613  10.495
 6718TIP3   OH244132   5.351   6.022   9.394
 6718TIP3    H144133   5.408   5.986   9.464
 6718TIP3    H244134   5.263   5.989   9.415
 6719TIP3   OH244135   5.304   6.182   9.893
 6719TIP3    H144136   5.335   6.090   9.910
 6719TIP3    H244137   5.387   6.223   9.862
 6720TIP3   OH244138   5.371   6.237  10.441
 6720TIP3    H144139   5.467   6.260  10.441
 6720TIP3    H244140   5.352   6.251  10.535
 6721TIP3   OH244141   5.378   6.311  10.719
 6721TIP3    H144142   5.289   6.338  10.752
 6721TIP3    H244143   5.420   6.397  10.698
 6722TIP3   OH244144   5.374   5.911   9.903
 6722TIP3    H144145   5.396   5.868   9.988
 6722TIP3    H244146   5.315   5.847   9.859
 6723TIP3   OH244147   3.921   5.991  10.361
 6723TIP3    H144148   3.968   5.909  10.384
 6723TIP3    H244149   3.978   6.060  10.397
 6724TIP3   OH244150   3.750   6.290  10.461
 6724TIP3    H144151   3.807   6.266  10.386
 6724TIP3    H244152   3.796   6.371  10.489
 6725TIP3   OH244153   5.556   5.911   9.561
 6725TIP3    H144154   5.596   5.843   9.504
 6725TIP3    H244155   5.623   5.981   9.562
 6726TIP3   OH244156   3.787   5.921   9.871
 6726TIP3    H144157   3.693   5.935   9.854
 6726TIP3    H244158   3.828   5.967   9.797
 6727TIP3   OH244159   5.261   7.412  10.066
 6727TIP3    H144160   5.329   7.382  10.003
 6727TIP3    H244161   5.312   7.462  10.130
 6728TIP3   OH244162   3.783   5.788  10.700
 6728TIP3    H144163   3.714   5.765  10.766
 6728TIP3    H244164   3.735   5.852  10.645
 6729TIP3   OH244165   4.293   7.202  10.740
 6729TIP3    H144166   4.261   7.289  10.712
 6729TIP3    H244167   4.387   7.211  10.715
 6730TIP3   OH244168   4.952   7.484  -0.027
 6730TIP3    H144169   5.024   7.421  -0.050
 6730TIP3    H244170   4.993   7.514   0.056
 6731TIP3   OH244171   5.461   5.736  10.866
 6731TIP3    H144172   5.372   5.760  10.837
 6731TIP3    H244173   5.473   5.649  10.824
 6732TIP3   OH244174   4.035   7.525  10.745
 6732TIP3    H144175   3.964   7.577  10.706
 6732TIP3    H244176   4.002   7.506  10.834
 6733TIP3   OH244177   4.282   7.481  10.642
 6733TIP3    H144178   4.198   7.502  10.689
 6733TIP3    H244179   4.279   7.545  10.569
 6734TIP3   OH244180   4.755   7.475  10.569
 6734TIP3    H144181   4.710   7.531  10.503
 6734TIP3    H244182   4.768   7.540  10.642
 6735TIP3   OH244183   4.984   7.352  10.660
 6735TIP3    H144184   4.897   7.386  10.632
 6735TIP3    H244185   5.031   7.436  10.661
 6736TIP3   OH244186   5.248   7.515  10.689
 6736TIP3    H144187   5.235   7.609  10.667
 6736TIP3    H244188   5.266   7.476  10.602
 6737TIP3   OH244189   3.985   7.392  10.436
 6737TIP3    H144190   3.977   7.348  10.524
 6737TIP3    H244191   4.066   7.353  10.399
 6738TIP3   OH244192   4.192   7.263  10.302
 6738TIP3    H144193   4.176   7.170  10.326
 6738TIP3    H244194   4.277   7.279  10.348
 6739TIP3   OH244195   4.453   7.313  10.388
 6739TIP3    H144196   4.467   7.219  10.364
 6739TIP3    H244197   4.457   7.308  10.485
 6740TIP3   OH244198   4.797   5.876  10.304
 6740TIP3    H144199   4.730   5.813  10.332
 6740TIP3    H244200   4.852   5.822  10.246
 6741TIP3   OH244201   5.311   5.682  10.311
 6741TIP3    H144202   5.372   5.740  10.258
 6741TIP3    H244203   5.223   5.717  10.286
 6742TIP3   OH244204   5.477   5.807  10.137
 6742TIP3    H144205   5.545   5.749  10.096
 6742TIP3    H244206   5.529   5.890  10.148
 6743TIP3   OH244207   4.035   5.739  10.088
 6743TIP3    H144208   3.955   5.720  10.036
 6743TIP3    H244209   4.080   5.652  10.083
 6744TIP3   OH244210   3.911   5.714   9.660
 6744TIP3    H144211   3.961   5.779   9.607
 6744TIP3    H244212   3.855   5.772   9.715
 6745TIP3   OH244213   4.480   5.732  10.068
 6745TIP3    H144214   4.570   5.767  10.058
 6745TIP3    H244215   4.479   5.710  10.161
 6746TIP3   OH244216   5.054   5.733  10.229
 6746TIP3    H144217   5.047   5.745  10.134
 6746TIP3    H244218   5.015   5.643  10.242
 6747TIP3   OH244219   5.179   5.736   9.798
 6747TIP3    H144220   5.104   5.795   9.783
 6747TIP3    H244221   5.136   5.651   9.822
 6748TIP3   OH244222   3.902   7.309   9.765
 6748TIP3    H144223   3.836   7.307   9.693
 6748TIP3    H244224   3.902   7.405   9.781
 6749TIP3   OH244225   4.093   5.908   9.512
 6749TIP3    H144226   4.147   5.847   9.459
 6749TIP3    H244227   4.160   5.941   9.575
 6750TIP3   OH244228   4.596   5.932   9.752
 6750TIP3    H144229   4.622   5.875   9.826
 6750TIP3    H244230   4.605   6.019   9.797
 6751TIP3   OH244231   4.790   7.441   9.596
 6751TIP3    H144232   4.883   7.462   9.574
 6751TIP3    H244233   4.768   7.387   9.517
 6752TIP3   OH244234   5.459   7.390   9.869
 6752TIP3    H144235   5.440   7.312   9.812
 6752TIP3    H244236   5.453   7.464   9.805
 6753TIP3   OH244237   4.081   7.408   9.458
 6753TIP3    H144238   4.055   7.434   9.548
 6753TIP3    H244239   4.160   7.352   9.473
 6754TIP3   OH244240   6.830   6.653  10.072
 6754TIP3    H144241   6.826   6.752  10.072
 6754TIP3    H244242   6.755   6.630  10.014
 6755TIP3   OH244243   6.713   6.577  10.424
 6755TIP3    H144244   6.713   6.513  10.496
 6755TIP3    H244245   6.678   6.527  10.349
 6756TIP3   OH244246   5.950   6.546  10.578
 6756TIP3    H144247   5.958   6.477  10.647
 6756TIP3    H244248   6.024   6.603  10.601
 6757TIP3   OH244249   7.082   6.873  10.253
 6757TIP3    H144250   7.041   6.801  10.303
 6757TIP3    H244251   7.085   6.944  10.320
 6758TIP3   OH244252   6.041   6.991  10.427
 6758TIP3    H144253   6.011   6.903  10.397
 6758TIP3    H244254   6.137   6.974  10.436
 6759TIP3   OH244255   5.704   6.346   9.978
 6759TIP3    H144256   5.662   6.433   9.970
 6759TIP3    H244257   5.650   6.293   9.919
 6760TIP3   OH244258   5.777   6.569  10.195
 6760TIP3    H144259   5.805   6.486  10.238
 6760TIP3    H244260   5.845   6.580  10.126
 6761TIP3   OH244261   6.794   7.389  10.278
 6761TIP3    H144262   6.859   7.322  10.247
 6761TIP3    H244263   6.774   7.354  10.365
 6762TIP3   OH244264   6.550   6.818  10.476
 6762TIP3    H144265   6.584   6.757  10.408
 6762TIP3    H244266   6.633   6.835  10.524
 6763TIP3   OH244267   7.411   5.986  10.546
 6763TIP3    H144268   7.429   6.045  10.621
 6763TIP3    H244269   7.470   6.026  10.480
 6764TIP3   OH244270   6.865   6.265  10.505
 6764TIP3    H144271   6.885   6.170  10.506
 6764TIP3    H244272   6.857   6.279  10.409
 6765TIP3   OH244273   6.179   6.074  10.224
 6765TIP3    H144274   6.191   6.157  10.174
 6765TIP3    H244275   6.140   6.017  10.155
 6766TIP3   OH244276   6.953   6.082  10.062
 6766TIP3    H144277   7.017   6.051  10.129
 6766TIP3    H244278   7.010   6.140  10.010
 6767TIP3   OH244279   5.841   6.316  10.297
 6767TIP3    H144280   5.908   6.262  10.343
 6767TIP3    H244281   5.853   6.284  10.206
 6768TIP3   OH244282   6.357   6.471  10.231
 6768TIP3    H144283   6.425   6.413  10.269
 6768TIP3    H244284   6.306   6.406  10.179
 6769TIP3   OH244285   7.472   6.143  10.769
 6769TIP3    H144286   7.393   6.201  10.758
 6769TIP3    H244287   7.456   6.116  10.861
 6770TIP3   OH244288   6.072   5.963  10.624
 6770TIP3    H144289   6.043   6.023  10.553
 6770TIP3    H244290   6.006   5.985  10.694
 6771TIP3   OH244291   6.799   6.912   9.983
 6771TIP3    H144292   6.774   6.885   9.893
 6771TIP3    H244293   6.769   7.005   9.988
 6772TIP3   OH244294   6.322   6.729  10.656
 6772TIP3    H144295   6.251   6.795  10.674
 6772TIP3    H244296   6.392   6.788  10.623
 6773TIP3   OH244297   7.136   6.017  10.261
 6773TIP3    H144298   7.113   5.941  10.315
 6773TIP3    H244299   7.203   6.061  10.317
 6774TIP3   OH244300   6.025   6.152  10.428
 6774TIP3    H144301   6.089   6.219  10.462
 6774TIP3    H244302   6.079   6.109  10.357
 6775TIP3   OH244303   6.168   6.931  10.734
 6775TIP3    H144304   6.161   7.024  10.705
 6775TIP3    H244305   6.081   6.921  10.779
 6776TIP3   OH244306   5.774   6.888   9.811
 6776TIP3    H144307   5.749   6.924   9.724
 6776TIP3    H244308   5.783   6.970   9.864
 6777TIP3   OH244309   7.135   7.058  10.490
 6777TIP3    H144310   7.038   7.068  10.501
 6777TIP3    H244311   7.162   7.149  10.469
 6778TIP3   OH244312   7.164   5.890  10.632
 6778TIP3    H144313   7.091   5.952  10.617
 6778TIP3    H244314   7.237   5.925  10.578
 6779TIP3   OH244315   6.463   5.698  10.373
 6779TIP3    H144316   6.448   5.602  10.367
 6779TIP3    H244317   6.376   5.729  10.407
 6780TIP3   OH244318   6.961   7.236  10.147
 6780TIP3    H144319   7.004   7.164  10.097
 6780TIP3    H244320   7.007   7.314  10.109
 6781TIP3   OH244321   7.084   7.028  10.000
 6781TIP3    H144322   7.053   6.959   9.940
 6781TIP3    H244323   7.086   6.979  10.084
 6782TIP3   OH244324   7.248   6.885  10.847
 6782TIP3    H144325   7.260   6.827  10.770
 6782TIP3    H244326   7.269   6.973  10.809
 6783TIP3   OH244327   6.694   6.576   9.825
 6783TIP3    H144328   6.625   6.635   9.789
 6783TIP3    H244329   6.765   6.586   9.759
 6784TIP3   OH244330   6.703   6.435   9.526
 6784TIP3    H144331   6.773   6.433   9.593
 6784TIP3    H244332   6.733   6.362   9.470
 6785TIP3   OH244333   7.435   6.517  10.652
 6785TIP3    H144334   7.369   6.590  10.659
 6785TIP3    H244335   7.482   6.544  10.572
 6786TIP3   OH244336   7.041   6.597   9.917
 6786TIP3    H144337   6.966   6.622   9.977
 6786TIP3    H244338   7.088   6.530   9.971
 6787TIP3   OH244339   7.031   6.413  10.827
 6787TIP3    H144340   7.032   6.491  10.883
 6787TIP3    H244341   6.967   6.444  10.759
 6788TIP3   OH244342   6.200   6.664  10.109
 6788TIP3    H144343   6.168   6.624  10.024
 6788TIP3    H244344   6.262   6.595  10.143
 6789TIP3   OH244345   6.332   7.001  10.377
 6789TIP3    H144346   6.332   6.950  10.295
 6789TIP3    H244347   6.411   6.966  10.422
 6790TIP3   OH244348   6.233   6.539  10.476
 6790TIP3    H144349   6.287   6.548  10.395
 6790TIP3    H244350   6.273   6.604  10.538
 6791TIP3   OH244351   6.876   7.096  10.547
 6791TIP3    H144352   6.845   7.163  10.608
 6791TIP3    H244353   6.849   7.011  10.590
 6792TIP3   OH244354   6.341   7.002  10.935
 6792TIP3    H144355   6.293   7.055  11.000
 6792TIP3    H244356   6.266   6.970  10.880
 6793TIP3   OH244357   6.928   6.519   9.683
 6793TIP3    H144358   6.983   6.536   9.764
 6793TIP3    H244359   6.973   6.568   9.612
 6794TIP3   OH244360   6.022   6.598  10.866
 6794TIP3    H144361   6.027   6.664  10.936
 6794TIP3    H244362   5.930   6.605  10.838
 6795TIP3   OH244363   6.698   7.191  10.031
 6795TIP3    H144364   6.741   7.221  10.112
 6795TIP3    H244365   6.643   7.265  10.007
 6796TIP3   OH244366   7.301   5.688   9.678
 6796TIP3    H144367   7.206   5.701   9.699
 6796TIP3    H244368   7.321   5.772   9.632
 6797TIP3   OH244369   6.096   6.564   9.873
 6797TIP3    H144370   6.068   6.643   9.821
 6797TIP3    H244371   6.031   6.498   9.847
 6798TIP3   OH244372   7.412   7.125   9.511
 6798TIP3    H144373   7.428   7.220   9.527
 6798TIP3    H244374   7.504   7.094   9.510
 6799TIP3   OH244375   5.709   6.809  10.754
 6799TIP3    H144376   5.660   6.802  10.670
 6799TIP3    H244377   5.712   6.715  10.783
 6800TIP3   OH244378   5.683   7.083  10.438
 6800TIP3    H144379   5.778   7.070  10.437
 6800TIP3    H244380   5.675   7.163  10.492
 6801TIP3   OH244381   6.589   7.081  10.870
 6801TIP3    H144382   6.600   7.171  10.904
 6801TIP3    H244383   6.503   7.053  10.910
 6802TIP3   OH244384   6.647   7.482   9.873
 6802TIP3    H144385   6.635   7.475   9.777
 6802TIP3    H244386   6.646   7.578   9.889
 6803TIP3   OH244387   6.010   7.369  10.055
 6803TIP3    H144388   6.025   7.328  10.143
 6803TIP3    H244389   5.925   7.328  10.032
 6804TIP3   OH244390   6.952   7.402   9.571
 6804TIP3    H144391   6.998   7.327   9.528
 6804TIP3    H244392   6.956   7.377   9.665
 6805TIP3   OH244393   6.922   7.397   9.849
 6805TIP3    H144394   6.825   7.403   9.865
 6805TIP3    H244395   6.944   7.321   9.906
 6806TIP3   OH244396   5.935   6.934  10.852
 6806TIP3    H144397   5.955   6.902  10.940
 6806TIP3    H244398   5.845   6.901  10.832
 6807TIP3   OH244399   6.203   5.790  10.445
 6807TIP3    H144400   6.112   5.776  10.413
 6807TIP3    H244401   6.190   5.870  10.500
 6808TIP3   OH244402   6.666   5.762  10.788
 6808TIP3    H144403   6.705   5.715  10.863
 6808TIP3    H244404   6.569   5.745  10.802
 6809TIP3   OH244405   6.974   6.136  10.870
 6809TIP3    H144406   6.949   6.123  10.963
 6809TIP3    H244407   6.982   6.233  10.856
 6810TIP3   OH244408   7.072   6.622   9.468
 6810TIP3    H144409   7.069   6.603   9.372
 6810TIP3    H244410   7.158   6.667   9.471
 6811TIP3   OH244411   6.631   6.014   9.517
 6811TIP3    H144412   6.599   6.007   9.609
 6811TIP3    H244413   6.600   5.927   9.486
 6812TIP3   OH244414   6.211   6.286  10.575
 6812TIP3    H144415   6.138   6.285  10.641
 6812TIP3    H244416   6.206   6.377  10.537
 6813TIP3   OH244417   6.209   6.295  10.062
 6813TIP3    H144418   6.115   6.272  10.049
 6813TIP3    H244419   6.247   6.268   9.976
 6814TIP3   OH244420   6.761   6.348   9.940
 6814TIP3    H144421   6.723   6.430   9.902
 6814TIP3    H244422   6.830   6.329   9.873
 6815TIP3   OH244423   6.866   6.297  10.224
 6815TIP3    H144424   6.836   6.353  10.150
 6815TIP3    H244425   6.874   6.212  10.177
 6816TIP3   OH244426   5.971   6.313  10.746
 6816TIP3    H144427   5.982   6.350  10.836
 6816TIP3    H244428   5.935   6.225  10.765
 6817TIP3   OH244429   6.312   6.050   9.428
 6817TIP3    H144430   6.266   6.008   9.504
 6817TIP3    H244431   6.241   6.094   9.380
 6818TIP3   OH244432   5.641   6.020  10.144
 6818TIP3    H144433   5.710   6.016  10.213
 6818TIP3    H244434   5.686   5.984  10.065
 6819TIP3   OH244435   5.769   6.093   9.678
 6819TIP3    H144436   5.818   6.153   9.620
 6819TIP3    H244437   5.699   6.156   9.708
 6820TIP3   OH244438   6.788   6.453  10.686
 6820TIP3    H144439   6.823   6.387  10.622
 6820TIP3    H244440   6.735   6.399  10.746
 6821TIP3   OH244441   6.465   6.054  10.163
 6821TIP3    H144442   6.371   6.053  10.192
 6821TIP3    H244443   6.513   6.035  10.245
 6822TIP3   OH244444   5.945   6.207  10.049
 6822TIP3    H144445   5.857   6.223  10.010
 6822TIP3    H244446   5.974   6.123  10.009
 6823TIP3   OH244447   6.309   6.213   9.812
 6823TIP3    H144448   6.405   6.224   9.827
 6823TIP3    H244449   6.286   6.281   9.747
 6824TIP3   OH244450   6.906   5.975  10.489
 6824TIP3    H144451   6.835   5.983  10.557
 6824TIP3    H244452   6.856   5.950  10.410
 6825TIP3   OH244453   6.181   6.330   9.571
 6825TIP3    H144454   6.126   6.293   9.499
 6825TIP3    H244455   6.262   6.351   9.523
 6826TIP3   OH244456   6.592   6.328  10.351
 6826TIP3    H144457   6.653   6.276  10.298
 6826TIP3    H244458   6.578   6.273  10.429
 6827TIP3   OH244459   6.094   5.943   9.995
 6827TIP3    H144460   6.062   5.851   9.996
 6827TIP3    H244461   6.173   5.935   9.940
 6828TIP3   OH244462   6.456   6.160  10.592
 6828TIP3    H144463   6.374   6.212  10.599
 6828TIP3    H244464   6.512   6.196  10.663
 6829TIP3   OH244465   6.516   6.783   9.763
 6829TIP3    H144466   6.435   6.737   9.729
 6829TIP3    H244467   6.492   6.797   9.857
 6830TIP3   OH244468   7.237   6.698  10.644
 6830TIP3    H144469   7.290   6.752  10.582
 6830TIP3    H244470   7.150   6.705  10.599
 6831TIP3   OH244471   6.898   6.064   9.580
 6831TIP3    H144472   6.803   6.080   9.567
 6831TIP3    H244473   6.932   6.149   9.616
 6832TIP3   OH244474   6.665   6.811  10.878
 6832TIP3    H144475   6.632   6.768  10.959
 6832TIP3    H244476   6.635   6.902  10.889
 6833TIP3   OH244477   6.971   6.258   9.741
 6833TIP3    H144478   7.059   6.244   9.784
 6833TIP3    H244479   6.983   6.340   9.691
 6834TIP3   OH244480   6.027   6.724  10.343
 6834TIP3    H144481   6.093   6.714  10.271
 6834TIP3    H244482   6.032   6.638  10.389
 6835TIP3   OH244483   6.724   6.930   9.666
 6835TIP3    H144484   6.690   7.014   9.701
 6835TIP3    H244485   6.651   6.868   9.688
 6836TIP3   OH244486   5.723   6.566  10.868
 6836TIP3    H144487   5.743   6.522  10.952
 6836TIP3    H244488   5.664   6.502  10.823
 6837TIP3   OH244489   6.891   7.053  10.883
 6837TIP3    H144490   6.800   7.070  10.856
 6837TIP3    H244491   6.896   7.078  10.976
 6838TIP3   OH244492   7.460   6.269   9.721
 6838TIP3    H144493   7.404   6.242   9.646
 6838TIP3    H244494   7.470   6.364   9.697
 6839TIP3   OH244495   7.287   7.153   9.759
 6839TIP3    H144496   7.254   7.069   9.795
 6839TIP3    H244497   7.324   7.131   9.672
 6840TIP3   OH244498   7.013   6.634  10.471
 6840TIP3    H144499   6.919   6.614  10.459
 6840TIP3    H244500   7.055   6.559  10.425
 6841TIP3   OH244501   6.264   7.069  10.082
 6841TIP3    H144502   6.314   7.150  10.061
 6841TIP3    H244503   6.176   7.091  10.048
 6842TIP3   OH244504   5.847   6.551   9.546
 6842TIP3    H144505   5.899   6.624   9.582
 6842TIP3    H244506   5.754   6.579   9.557
 6843TIP3   OH244507   6.404   6.835  10.031
 6843TIP3    H144508   6.372   6.927  10.042
 6843TIP3    H244509   6.334   6.785  10.077
 6844TIP3   OH244510   6.449   7.256  10.676
 6844TIP3    H144511   6.498   7.334  10.647
 6844TIP3    H244512   6.511   7.214  10.737
 6845TIP3   OH244513   6.273   7.333   9.985
 6845TIP3    H144514   6.177   7.346  10.001
 6845TIP3    H244515   6.310   7.417  10.019
 6846TIP3   OH244516   6.803   6.852  10.632
 6846TIP3    H144517   6.770   6.835  10.722
 6846TIP3    H244518   6.867   6.781  10.619
 6847TIP3   OH244519   7.038   6.962   9.545
 6847TIP3    H144520   7.067   6.913   9.625
 6847TIP3    H244521   6.942   6.942   9.552
 6848TIP3   OH244522   7.061   7.336  10.864
 6848TIP3    H144523   7.013   7.269  10.813
 6848TIP3    H244524   7.101   7.392  10.793
 6849TIP3   OH244525   7.482   7.393   9.570
 6849TIP3    H144526   7.551   7.459   9.549
 6849TIP3    H244527   7.411   7.455   9.598
 6850TIP3   OH244528   5.892   6.040  10.822
 6850TIP3    H144529   5.800   6.072  10.818
 6850TIP3    H244530   5.885   5.955  10.867
 6851TIP3   OH244531   7.114   6.824   9.769
 6851TIP3    H144532   7.090   6.745   9.822
 6851TIP3    H244533   7.209   6.828   9.786
 6852TIP3   OH244534   5.854   7.215  10.666
 6852TIP3    H144535   5.883   7.122  10.667
 6852TIP3    H244536   5.881   7.244  10.754
 6853TIP3   OH244537   6.450   7.068   9.395
 6853TIP3    H144538   6.459   6.992   9.335
 6853TIP3    H244539   6.404   7.025   9.470
 6854TIP3   OH244540   6.325   7.020   9.640
 6854TIP3    H144541   6.355   6.969   9.717
 6854TIP3    H244542   6.336   7.113   9.673
 6855TIP3   OH244543   5.982   6.746   9.690
 6855TIP3    H144544   5.907   6.784   9.740
 6855TIP3    H244545   6.031   6.824   9.659
 6856TIP3   OH244546   6.761   6.012  10.716
 6856TIP3    H144547   6.832   6.018  10.780
 6856TIP3    H244548   6.723   5.924  10.734
 6857TIP3   OH244549   6.837   5.970   9.829
 6857TIP3    H144550   6.861   6.015   9.746
 6857TIP3    H244551   6.895   6.014   9.892
 6858TIP3   OH244552   6.607   7.186   9.709
 6858TIP3    H144553   6.525   7.240   9.717
 6858TIP3    H244554   6.661   7.242   9.651
 6859TIP3   OH244555   6.561   6.145   9.911
 6859TIP3    H144556   6.639   6.205   9.916
 6859TIP3    H244557   6.534   6.133  10.004
 6860TIP3   OH244558   6.630   6.257  10.823
 6860TIP3    H144559   6.622   6.303  10.907
 6860TIP3    H244560   6.674   6.173  10.841
 6861TIP3   OH244561   6.647   5.850   9.998
 6861TIP3    H144562   6.613   5.916  10.061
 6861TIP3    H244563   6.716   5.905   9.954
 6862TIP3   OH244564   6.348   7.289   9.713
 6862TIP3    H144565   6.356   7.371   9.657
 6862TIP3    H244566   6.320   7.326   9.799
 6863TIP3   OH244567   6.212   5.962   9.670
 6863TIP3    H144568   6.206   6.052   9.709
 6863TIP3    H244569   6.302   5.937   9.696
 6864TIP3   OH244570   7.239   6.066  10.862
 6864TIP3    H144571   7.142   6.070  10.870
 6864TIP3    H244572   7.254   6.020  10.779
 6865TIP3   OH244573   7.096   6.414  10.314
 6865TIP3    H144574   7.014   6.369  10.288
 6865TIP3    H244575   7.145   6.346  10.367
 6866TIP3   OH244576   6.035   7.006   9.574
 6866TIP3    H144577   6.102   7.068   9.606
 6866TIP3    H244578   6.087   6.959   9.506
 6867TIP3   OH244579   5.867   6.274   9.488
 6867TIP3    H144580   5.870   6.371   9.508
 6867TIP3    H244581   5.777   6.261   9.457
 6868TIP3   OH244582   7.202   7.338  10.481
 6868TIP3    H144583   7.193   7.408  10.413
 6868TIP3    H244584   7.298   7.346  10.498
 6869TIP3   OH244585   5.950   5.752  10.364
 6869TIP3    H144586   5.932   5.753  10.267
 6869TIP3    H244587   5.910   5.666  10.388
 6870TIP3   OH244588   5.846   7.145   9.978
 6870TIP3    H144589   5.760   7.189   9.972
 6870TIP3    H244590   5.893   7.190   9.907
 6871TIP3   OH244591   6.650   7.253   9.407
 6871TIP3    H144592   6.580   7.187   9.428
 6871TIP3    H244593   6.721   7.193   9.382
 6872TIP3   OH244594   7.105   7.227   9.425
 6872TIP3    H144595   7.134   7.149   9.476
 6872TIP3    H244596   7.181   7.248   9.370
 6873TIP3   OH244597   6.193   6.821   9.406
 6873TIP3    H144598   6.207   6.746   9.465
 6873TIP3    H244599   6.268   6.809   9.345
 6874TIP3   OH244600   6.737   6.933   9.385
 6874TIP3    H144601   6.709   6.940   9.478
 6874TIP3    H244602   6.718   6.837   9.370
 6875TIP3   OH244603   6.997   6.771  10.869
 6875TIP3    H144604   7.077   6.828  10.874
 6875TIP3    H244605   6.929   6.837  10.888
 6876TIP3   OH244606   6.314   6.623   9.652
 6876TIP3    H144607   6.262   6.569   9.713
 6876TIP3    H244608   6.344   6.556   9.586
 6877TIP3   OH244609   6.241   6.418  10.868
 6877TIP3    H144610   6.176   6.484  10.898
 6877TIP3    H244611   6.278   6.454  10.787
 6878TIP3   OH244612   6.421   6.446   9.470
 6878TIP3    H144613   6.404   6.438   9.374
 6878TIP3    H244614   6.519   6.450   9.476
 6879TIP3   OH244615   7.353   6.677   9.411
 6879TIP3    H144616   7.335   6.640   9.324
 6879TIP3    H244617   7.362   6.774   9.393
 6880TIP3   OH244618   6.248   6.183  10.955
 6880TIP3    H144619   6.301   6.112  10.915
 6880TIP3    H244620   6.279   6.260  10.903
 6881TIP3   OH244621   6.320   5.978  10.741
 6881TIP3    H144622   6.371   6.026  10.672
 6881TIP3    H244623   6.231   5.969  10.699
 6882TIP3   OH244624   6.476   6.522  10.761
 6882TIP3    H144625   6.553   6.512  10.704
 6882TIP3    H244626   6.439   6.608  10.733
 6883TIP3   OH244627   6.402   5.722  10.781
 6883TIP3    H144628   6.383   5.819  10.779
 6883TIP3    H244629   6.325   5.688  10.732
 6884TIP3   OH244630   6.403   7.515   9.579
 6884TIP3    H144631   6.500   7.525   9.585
 6884TIP3    H244632   6.389   7.573   9.504
 6885TIP3   OH244633   5.759   6.974   9.525
 6885TIP3    H144634   5.856   6.981   9.543
 6885TIP3    H244635   5.762   6.909   9.451
 6886TIP3   OH244636   5.641   7.509  10.018
 6886TIP3    H144637   5.566   7.461   9.975
 6886TIP3    H244638   5.666   7.446  10.088
 6887TIP3   OH244639   5.720   7.324  10.209
 6887TIP3    H144640   5.684   7.237  10.230
 6887TIP3    H244641   5.743   7.358  10.298
 6888TIP3   OH244642   7.469   7.404  10.505
 6888TIP3    H144643   7.479   7.420  10.600
 6888TIP3    H244644   7.542   7.458  10.472
 6889TIP3   OH244645   7.433   7.365  10.793
 6889TIP3    H144646   7.384   7.288  10.757
 6889TIP3    H244647   7.483   7.323  10.863
 6890TIP3   OH244648   7.408   6.770   9.806
 6890TIP3    H144649   7.494   6.808   9.825
 6890TIP3    H244650   7.405   6.698   9.873
 6891TIP3   OH244651   7.441   6.577   9.995
 6891TIP3    H144652   7.366   6.527  10.034
 6891TIP3    H244653   7.502   6.588  10.071
 6892TIP3   OH244654   7.418   6.845  10.493
 6892TIP3    H144655   7.499   6.806  10.457
 6892TIP3    H244656   7.433   6.940  10.474
 6893TIP3   OH244657   7.271   7.138  10.722
 6893TIP3    H144658   7.203   7.170  10.782
 6893TIP3    H244659   7.220   7.096  10.650
 6894TIP3   OH244660   7.474   6.559   9.634
 6894TIP3    H144661   7.416   6.592   9.562
 6894TIP3    H244662   7.462   6.630   9.700
 6895TIP3   OH244663   7.311   6.281   9.485
 6895TIP3    H144664   7.318   6.348   9.415
 6895TIP3    H244665   7.292   6.199   9.435
 6896TIP3   OH244666   7.225   6.424  10.053
 6896TIP3    H144667   7.211   6.328  10.048
 6896TIP3    H244668   7.193   6.444  10.143
 6897TIP3   OH244669   5.727   6.634  10.459
 6897TIP3    H144670   5.743   6.624  10.362
 6897TIP3    H244671   5.815   6.613  10.495
 6898TIP3   OH244672   7.236   6.029   9.399
 6898TIP3    H144673   7.294   5.984   9.464
 6898TIP3    H244674   7.149   5.988   9.414
 6899TIP3   OH244675   7.189   6.183   9.893
 6899TIP3    H144676   7.220   6.091   9.910
 6899TIP3    H244677   7.272   6.223   9.864
 6900TIP3   OH244678   7.255   6.236  10.441
 6900TIP3    H144679   7.351   6.259  10.440
 6900TIP3    H244680   7.238   6.250  10.536
 6901TIP3   OH244681   7.263   6.311  10.720
 6901TIP3    H144682   7.174   6.337  10.752
 6901TIP3    H244683   7.306   6.397  10.698
 6902TIP3   OH244684   7.257   5.912   9.903
 6902TIP3    H144685   7.281   5.869   9.988
 6902TIP3    H244686   7.199   5.847   9.859
 6903TIP3   OH244687   5.806   5.991  10.360
 6903TIP3    H144688   5.853   5.909  10.384
 6903TIP3    H244689   5.864   6.061  10.396
 6904TIP3   OH244690   5.635   6.290  10.461
 6904TIP3    H144691   5.693   6.266  10.386
 6904TIP3    H244692   5.682   6.371  10.489
 6905TIP3   OH244693   7.440   5.914   9.558
 6905TIP3    H144694   7.482   5.843   9.505
 6905TIP3    H244695   7.509   5.981   9.564
 6906TIP3   OH244696   5.673   5.920   9.872
 6906TIP3    H144697   5.578   5.935   9.854
 6906TIP3    H244698   5.714   5.967   9.797
 6907TIP3   OH244699   7.146   7.411  10.066
 6907TIP3    H144700   7.214   7.382  10.003
 6907TIP3    H244701   7.197   7.462  10.130
 6908TIP3   OH244702   5.668   5.787  10.700
 6908TIP3    H144703   5.600   5.765  10.766
 6908TIP3    H244704   5.621   5.852  10.645
 6909TIP3   OH244705   6.178   7.202  10.740
 6909TIP3    H144706   6.146   7.289  10.712
 6909TIP3    H244707   6.273   7.211  10.715
 6910TIP3   OH244708   6.838   7.484  -0.027
 6910TIP3    H144709   6.909   7.421  -0.050
 6910TIP3    H244710   6.879   7.514   0.056
 6911TIP3   OH244711   7.347   5.736  10.866
 6911TIP3    H144712   7.258   5.760  10.838
 6911TIP3    H244713   7.359   5.648  10.824
 6912TIP3   OH244714   5.921   7.525  10.745
 6912TIP3    H144715   5.849   7.577  10.706
 6912TIP3    H244716   5.888   7.506  10.834
 6913TIP3   OH244717   6.168   7.481  10.642
 6913TIP3    H144718   6.084   7.502  10.689
 6913TIP3    H244719   6.164   7.545  10.569
 6914TIP3   OH244720   6.641   7.475  10.569
 6914TIP3    H144721   6.596   7.531  10.503
 6914TIP3    H244722   6.654   7.540  10.642
 6915TIP3   OH244723   6.869   7.352  10.660
 6915TIP3    H144724   6.783   7.386  10.632
 6915TIP3    H244725   6.917   7.436  10.661
 6916TIP3   OH244726   7.134   7.514  10.690
 6916TIP3    H144727   7.121   7.609  10.667
 6916TIP3    H244728   7.151   7.476  10.602
 6917TIP3   OH244729   5.870   7.392  10.436
 6917TIP3    H144730   5.863   7.348  10.524
 6917TIP3    H244731   5.952   7.353  10.399
 6918TIP3   OH244732   6.078   7.263  10.302
 6918TIP3    H144733   6.062   7.170  10.326
 6918TIP3    H244734   6.163   7.279  10.348
 6919TIP3   OH244735   6.339   7.313  10.388
 6919TIP3    H144736   6.353   7.219  10.364
 6919TIP3    H244737   6.343   7.308  10.485
 6920TIP3   OH244738   6.683   5.876  10.304
 6920TIP3    H144739   6.615   5.813  10.332
 6920TIP3    H244740   6.738   5.823  10.246
 6921TIP3   OH244741   7.197   5.682  10.311
 6921TIP3    H144742   7.258   5.739  10.258
 6921TIP3    H244743   7.108   5.716  10.286
 6922TIP3   OH244744   7.363   5.807  10.137
 6922TIP3    H144745   7.433   5.751  10.096
 6922TIP3    H244746   7.414   5.891  10.149
 6923TIP3   OH244747   5.921   5.739  10.088
 6923TIP3    H144748   5.841   5.721  10.036
 6923TIP3    H244749   5.966   5.652  10.082
 6924TIP3   OH244750   5.797   5.714   9.660
 6924TIP3    H144751   5.847   5.779   9.607
 6924TIP3    H244752   5.741   5.771   9.714
 6925TIP3   OH244753   6.366   5.732  10.068
 6925TIP3    H144754   6.456   5.767  10.058
 6925TIP3    H244755   6.364   5.710  10.161
 6926TIP3   OH244756   6.940   5.733  10.229
 6926TIP3    H144757   6.933   5.745  10.134
 6926TIP3    H244758   6.900   5.644  10.243
 6927TIP3   OH244759   7.065   5.737   9.797
 6927TIP3    H144760   6.990   5.796   9.782
 6927TIP3    H244761   7.020   5.652   9.822
 6928TIP3   OH244762   5.788   7.309   9.765
 6928TIP3    H144763   5.722   7.307   9.693
 6928TIP3    H244764   5.788   7.405   9.781
 6929TIP3   OH244765   5.979   5.908   9.512
 6929TIP3    H144766   6.032   5.847   9.459
 6929TIP3    H244767   6.046   5.941   9.575
 6930TIP3   OH244768   6.481   5.932   9.752
 6930TIP3    H144769   6.507   5.875   9.826
 6930TIP3    H244770   6.490   6.019   9.797
 6931TIP3   OH244771   6.676   7.441   9.596
 6931TIP3    H144772   6.768   7.462   9.574
 6931TIP3    H244773   6.654   7.387   9.517
 6932TIP3   OH244774   7.344   7.390   9.869
 6932TIP3    H144775   7.326   7.312   9.812
 6932TIP3    H244776   7.339   7.464   9.805
 6933TIP3   OH244777   5.967   7.408   9.458
 6933TIP3    H144778   5.941   7.434   9.548
 6933TIP3    H244779   6.045   7.352   9.473
 6934TIP3   OH244780   7.833   6.550  10.581
 6934TIP3    H144781   7.846   6.477  10.644
 6934TIP3    H244782   7.912   6.601  10.599
 6935TIP3   OH244783   7.908   6.978  10.443
 6935TIP3    H144784   7.892   6.894  10.396
 6935TIP3    H244785   8.006   6.981  10.438
 6936TIP3   OH244786   7.588   6.345   9.978
 6936TIP3    H144787   7.547   6.434   9.972
 6936TIP3    H244788   7.531   6.292   9.921
 6937TIP3   OH244789   7.663   6.570  10.194
 6937TIP3    H144790   7.690   6.488  10.238
 6937TIP3    H244791   7.733   6.580  10.127
 6938TIP3   OH244792   7.723   6.313  10.298
 6938TIP3    H144793   7.793   6.263  10.343
 6938TIP3    H244794   7.742   6.284  10.207
 6939TIP3   OH244795   7.937   5.962  10.623
 6939TIP3    H144796   7.924   6.026  10.550
 6939TIP3    H244797   7.878   5.994  10.692
 6940TIP3   OH244798   7.900   6.137  10.421
 6940TIP3    H144799   7.956   6.209  10.464
 6940TIP3    H244800   7.960   6.107  10.350
 6941TIP3   OH244801   8.034   6.962  10.734
 6941TIP3    H144802   8.027   7.049  10.697
 6941TIP3    H244803   7.946   6.947  10.776
 6942TIP3   OH244804   7.666   6.891   9.813
 6942TIP3    H144805   7.635   6.923   9.727
 6942TIP3    H244806   7.667   6.973   9.866
 6943TIP3   OH244807   7.895   6.597  10.870
 6943TIP3    H144808   7.901   6.663  10.940
 6943TIP3    H244809   7.805   6.606  10.837
 6944TIP3   OH244810   7.980   6.569   9.867
 6944TIP3    H144811   7.951   6.649   9.820
 6944TIP3    H244812   7.912   6.504   9.847
 6945TIP3   OH244813   7.592   6.808  10.755
 6945TIP3    H144814   7.546   6.801  10.670
 6945TIP3    H244815   7.599   6.714  10.783
 6946TIP3   OH244816   7.569   7.084  10.439
 6946TIP3    H144817   7.664   7.071  10.436
 6946TIP3    H244818   7.563   7.165  10.491
 6947TIP3   OH244819   7.884   7.360  10.057
 6947TIP3    H144820   7.901   7.322  10.145
 6947TIP3    H244821   7.798   7.320  10.036
 6948TIP3   OH244822   7.812   6.942  10.868
 6948TIP3    H144823   7.838   6.892  10.945
 6948TIP3    H244824   7.730   6.898  10.833
 6949TIP3   OH244825   7.863   6.317  10.753
 6949TIP3    H144826   7.862   6.354  10.842
 6949TIP3    H244827   7.826   6.227  10.765
 6950TIP3   OH244828   7.524   6.019  10.143
 6950TIP3    H144829   7.592   6.017  10.213
 6950TIP3    H244830   7.572   5.986  10.065
 6951TIP3   OH244831   7.649   6.093   9.678
 6951TIP3    H144832   7.702   6.153   9.623
 6951TIP3    H244833   7.580   6.156   9.707
 6952TIP3   OH244834   7.827   6.212  10.048
 6952TIP3    H144835   7.739   6.220  10.008
 6952TIP3    H244836   7.860   6.125  10.018
 6953TIP3   OH244837   7.930   5.937   9.976
 6953TIP3    H144838   7.925   5.843  10.003
 6953TIP3    H244839   8.026   5.945   9.968
 6954TIP3   OH244840   7.908   6.723  10.336
 6954TIP3    H144841   7.984   6.718  10.276
 6954TIP3    H244842   7.917   6.641  10.389
 6955TIP3   OH244843   7.610   6.566  10.869
 6955TIP3    H144844   7.629   6.521  10.952
 6955TIP3    H244845   7.550   6.503  10.823
 6956TIP3   OH244846   7.732   6.551   9.540
 6956TIP3    H144847   7.784   6.621   9.582
 6956TIP3    H244848   7.640   6.579   9.561
 6957TIP3   OH244849   7.774   6.041  10.830
 6957TIP3    H144850   7.683   6.071  10.814
 6957TIP3    H244851   7.763   5.951  10.865
 6958TIP3   OH244852   7.747   7.217  10.661
 6958TIP3    H144853   7.758   7.121  10.669
 6958TIP3    H244854   7.763   7.248  10.750
 6959TIP3   OH244855   7.868   6.747   9.684
 6959TIP3    H144856   7.796   6.781   9.741
 6959TIP3    H244857   7.916   6.828   9.665
 6960TIP3   OH244858   7.918   7.008   9.568
 6960TIP3    H144859   7.983   7.069   9.608
 6960TIP3    H244860   7.978   6.962   9.508
 6961TIP3   OH244861   7.757   6.271   9.495
 6961TIP3    H144862   7.758   6.368   9.505
 6961TIP3    H244863   7.670   6.255   9.457
 6962TIP3   OH244864   7.834   5.753  10.365
 6962TIP3    H144865   7.823   5.756  10.268
 6962TIP3    H244866   7.797   5.666  10.389
 6963TIP3   OH244867   7.725   7.144   9.977
 6963TIP3    H144868   7.642   7.192   9.972
 6963TIP3    H244869   7.778   7.188   9.909
 6964TIP3   OH244870   7.647   6.973   9.523
 6964TIP3    H144871   7.743   6.983   9.542
 6964TIP3    H244872   7.651   6.908   9.449
 6965TIP3   OH244873   7.525   7.510  10.018
 6965TIP3    H144874   7.451   7.462   9.976
 6965TIP3    H244875   7.552   7.447  10.088
 6966TIP3   OH244876   7.604   7.323  10.208
 6966TIP3    H144877   7.569   7.236  10.230
 6966TIP3    H244878   7.631   7.356  10.297
 6967TIP3   OH244879   7.613   6.636  10.457
 6967TIP3    H144880   7.634   6.622  10.362
 6967TIP3    H244881   7.700   6.614  10.496
 6968TIP3   OH244882   7.689   5.991  10.360
 6968TIP3    H144883   7.741   5.910  10.380
 6968TIP3    H244884   7.751   6.059  10.393
 6969TIP3   OH244885   7.517   6.291  10.461
 6969TIP3    H144886   7.578   6.266  10.387
 6969TIP3    H244887   7.564   6.370  10.490
 6970TIP3   OH244888   7.557   5.916   9.869
 6970TIP3    H144889   7.463   5.934   9.854
 6970TIP3    H244890   7.598   5.968   9.797
 6971TIP3   OH244891   7.552   5.786  10.700
 6971TIP3    H144892   7.483   5.765  10.766
 6971TIP3    H244893   7.506   5.851  10.644
 6972TIP3   OH244894   7.808   7.529  10.749
 6972TIP3    H144895   7.734   7.575  10.705
 6972TIP3    H244896   7.769   7.507  10.835
 6973TIP3   OH244897   8.034   7.452  10.622
 6973TIP3    H144898   7.968   7.486  10.686
 6973TIP3    H244899   8.052   7.534  10.573
 6974TIP3   OH244900   7.745   7.392  10.440
 6974TIP3    H144901   7.750   7.348  10.527
 6974TIP3    H244902   7.829   7.357  10.400
 6975TIP3   OH244903   7.944   7.263  10.319
 6975TIP3    H144904   7.938   7.166  10.331
 6975TIP3    H244905   8.034   7.275  10.353
 6976TIP3   OH244906   7.799   5.733  10.092
 6976TIP3    H144907   7.720   5.715  10.036
 6976TIP3    H244908   7.851   5.652  10.086
 6977TIP3   OH244909   7.681   5.715   9.657
 6977TIP3    H144910   7.731   5.783   9.608
 6977TIP3    H244911   7.626   5.770   9.715
 6978TIP3   OH244912   7.676   7.310   9.760
 6978TIP3    H144913   7.605   7.308   9.693
 6978TIP3    H244914   7.676   7.406   9.779
 6979TIP3   OH244915   7.863   5.903   9.520
 6979TIP3    H144916   7.919   5.852   9.459
 6979TIP3    H244917   7.928   5.948   9.576
 6980TIP3   OH244918   7.858   7.415   9.459
 6980TIP3    H144919   7.828   7.438   9.548
 6980TIP3    H244920   7.929   7.352   9.476
 6981TIP3   OH244921   1.767   7.865  10.543
 6981TIP3    H144922   1.772   7.922  10.621
 6981TIP3    H244923   1.809   7.917  10.475
 6982TIP3   OH244924   0.528   7.958  10.224
 6982TIP3    H144925   0.534   8.042  10.176
 6982TIP3    H244926   0.487   7.901  10.154
 6983TIP3   OH244927   1.297   7.968  10.049
 6983TIP3    H144928   1.355   7.937  10.124
 6983TIP3    H244929   1.365   8.022  10.009
 6984TIP3   OH244930   1.818   7.993  10.766
 6984TIP3    H144931   1.760   8.068  10.743
 6984TIP3    H244932   1.812   7.995  10.862
 6985TIP3   OH244933   0.415   7.836  10.637
 6985TIP3    H144934   0.391   7.895  10.561
 6985TIP3    H244935   0.345   7.864  10.701
 6986TIP3   OH244936   1.472   7.911  10.233
 6986TIP3    H144937   1.449   7.835  10.291
 6986TIP3    H244938   1.532   7.954  10.296
 6987TIP3   OH244939   0.394   8.000  10.445
 6987TIP3    H144940   0.425   8.090  10.466
 6987TIP3    H244941   0.431   7.987  10.354
 6988TIP3   OH244942   1.527   7.809  10.686
 6988TIP3    H144943   1.443   7.819  10.637
 6988TIP3    H244944   1.576   7.796  10.601
 6989TIP3   OH244945   0.808   7.581  10.374
 6989TIP3    H144946   0.790   7.485  10.368
 6989TIP3    H244947   0.721   7.614  10.407
 6990TIP3   OH244948   1.644   7.573   9.676
 6990TIP3    H144949   1.550   7.588   9.701
 6990TIP3    H244950   1.664   7.658   9.632
 6991TIP3   OH244951   0.549   7.675  10.446
 6991TIP3    H144952   0.457   7.661  10.415
 6991TIP3    H244953   0.535   7.754  10.501
 6992TIP3   OH244954   1.007   7.643  10.789
 6992TIP3    H144955   1.046   7.599  10.866
 6992TIP3    H244956   0.910   7.628  10.803
 6993TIP3   OH244957   1.325   8.019  10.877
 6993TIP3    H144958   1.283   8.013  10.963
 6993TIP3    H244959   1.312   8.110  10.847
 6994TIP3   OH244960   0.981   7.891   9.528
 6994TIP3    H144961   0.939   7.889   9.615
 6994TIP3    H244962   0.943   7.810   9.487
 6995TIP3   OH244963   0.653   7.930   9.427
 6995TIP3    H144964   0.612   7.897   9.510
 6995TIP3    H244965   0.580   7.974   9.383
 6996TIP3   OH244966   0.007   7.936  10.152
 6996TIP3    H144967   0.063   7.905  10.226
 6996TIP3    H244968   0.024   7.870  10.084
 6997TIP3   OH244969   0.095   7.948   9.660
 6997TIP3    H144970   0.160   8.014   9.626
 6997TIP3    H244971   0.048   8.016   9.711
 6998TIP3   OH244972   0.805   7.924  10.162
 6998TIP3    H144973   0.712   7.934  10.191
 6998TIP3    H244974   0.858   7.920  10.243
 6999TIP3   OH244975   1.231   7.892  10.490
 6999TIP3    H144976   1.167   7.873  10.559
 6999TIP3    H244977   1.203   7.836  10.415
 7000TIP3   OH244978   0.443   7.826  10.000
 7000TIP3    H144979   0.407   7.735   9.994
 7000TIP3    H244980   0.517   7.822   9.939
 7001TIP3   OH244981   0.800   8.026  10.581
 7001TIP3    H144982   0.727   8.088  10.590
 7001TIP3    H244983   0.854   8.063  10.654
 7002TIP3   OH244984   1.245   7.957   9.591
 7002TIP3    H144985   1.150   7.964   9.565
 7002TIP3    H244986   1.272   8.048   9.609
 7003TIP3   OH244987   0.230   7.920  10.826
 7003TIP3    H144988   0.141   7.957  10.818
 7003TIP3    H244989   0.216   7.837  10.872
 7004TIP3   OH244990   1.095   7.899  10.725
 7004TIP3    H144991   1.176   7.904  10.778
 7004TIP3    H244992   1.069   7.806  10.736
 7005TIP3   OH244993   1.171   7.864   9.831
 7005TIP3    H144994   1.206   7.896   9.745
 7005TIP3    H244995   1.236   7.896   9.897
 7006TIP3   OH244996   0.916   8.020   9.913
 7006TIP3    H144997   0.980   8.094   9.916
 7006TIP3    H244998   0.876   8.021  10.002
 7007TIP3   OH244999   0.991   7.739  10.004
 7007TIP3    H145000   0.958   7.806  10.067
 7007TIP3    H245001   1.059   7.792   9.954
 7008TIP3   OH245002   0.559   7.846   9.669
 7008TIP3    H145003   0.550   7.934   9.709
 7008TIP3    H245004   0.651   7.822   9.694
 7009TIP3   OH245005   1.583   7.949  10.877
 7009TIP3    H145006   1.485   7.954  10.871
 7009TIP3    H245007   1.598   7.906  10.788
 7010TIP3   OH245008   0.298   7.637  10.358
 7010TIP3    H145009   0.271   7.640  10.264
 7010TIP3    H245010   0.257   7.553  10.387
 7011TIP3   OH245011   0.579   8.078  10.955
 7011TIP3    H145012   0.638   8.005  10.931
 7011TIP3    H245013   0.635   8.147  10.915
 7012TIP3   OH245014   0.659   7.867  10.743
 7012TIP3    H145015   0.715   7.907  10.674
 7012TIP3    H245016   0.572   7.860  10.700
 7013TIP3   OH245017   0.743   7.608  10.782
 7013TIP3    H145018   0.725   7.704  10.781
 7013TIP3    H245019   0.668   7.577  10.729
 7014TIP3   OH245020   1.578   7.912   9.399
 7014TIP3    H145021   1.639   7.872   9.463
 7014TIP3    H245022   1.492   7.871   9.417
 7015TIP3   OH245023   1.554   8.052   9.930
 7015TIP3    H145024   1.577   7.958   9.915
 7015TIP3    H245025   1.613   8.095   9.865
 7016TIP3   OH245026   1.607   7.792   9.898
 7016TIP3    H145027   1.624   7.754   9.988
 7016TIP3    H245028   1.544   7.727   9.860
 7017TIP3   OH245029   0.156   7.871  10.358
 7017TIP3    H145030   0.201   7.790  10.386
 7017TIP3    H245031   0.199   7.939  10.411
 7018TIP3   OH245032   1.782   7.793   9.558
 7018TIP3    H145033   1.825   7.725   9.501
 7018TIP3    H245034   1.852   7.861   9.567
 7019TIP3   OH245035   0.034   7.777   9.832
 7019TIP3    H145036  -0.059   7.806   9.840
 7019TIP3    H245037   0.073   7.853   9.785
 7020TIP3   OH245038   0.031   7.687  10.714
 7020TIP3    H145039  -0.042   7.653  10.767
 7020TIP3    H245040  -0.026   7.744  10.655
 7021TIP3   OH245041   1.687   7.619  10.871
 7021TIP3    H145042   1.602   7.647  10.831
 7021TIP3    H245043   1.702   7.535  10.822
 7022TIP3   OH245044   1.024   7.759  10.301
 7022TIP3    H145045   0.959   7.695  10.332
 7022TIP3    H245046   1.084   7.704  10.247
 7023TIP3   OH245047   1.553   7.524  10.265
 7023TIP3    H145048   1.609   7.606  10.256
 7023TIP3    H245049   1.475   7.578  10.296
 7024TIP3   OH245050   1.707   7.690  10.133
 7024TIP3    H145051   1.777   7.633  10.095
 7024TIP3    H245052   1.756   7.774  10.150
 7025TIP3   OH245053   0.267   7.624  10.086
 7025TIP3    H145054   0.186   7.605  10.036
 7025TIP3    H245055   0.312   7.537  10.082
 7026TIP3   OH245056   0.139   7.596   9.659
 7026TIP3    H145057   0.189   7.663   9.610
 7026TIP3    H245058   0.087   7.654   9.718
 7027TIP3   OH245059   0.709   7.619  10.068
 7027TIP3    H145060   0.801   7.650  10.059
 7027TIP3    H245061   0.704   7.603  10.162
 7028TIP3   OH245062   1.261   7.622  10.222
 7028TIP3    H145063   1.279   7.625  10.128
 7028TIP3    H245064   1.244   7.528  10.241
 7029TIP3   OH245065   1.408   7.624   9.799
 7029TIP3    H145066   1.332   7.681   9.783
 7029TIP3    H245067   1.366   7.538   9.823
 7030TIP3   OH245068   0.330   7.798   9.510
 7030TIP3    H145069   0.377   7.729   9.460
 7030TIP3    H245070   0.397   7.823   9.576
 7031TIP3   OH245071   0.822   7.820   9.755
 7031TIP3    H145072   0.855   7.762   9.826
 7031TIP3    H245073   0.832   7.905   9.802
 7032TIP3   OH245074   3.639   7.870  10.539
 7032TIP3    H145075   3.660   7.921  10.621
 7032TIP3    H245076   3.698   7.914  10.476
 7033TIP3   OH245077   2.409   7.958  10.224
 7033TIP3    H145078   2.422   8.040  10.175
 7033TIP3    H245079   2.372   7.899  10.154
 7034TIP3   OH245080   3.185   7.963  10.054
 7034TIP3    H145081   3.245   7.937  10.128
 7034TIP3    H245082   3.248   8.022  10.009
 7035TIP3   OH245083   3.698   7.990  10.764
 7035TIP3    H145084   3.646   8.070  10.742
 7035TIP3    H245085   3.697   7.994  10.861
 7036TIP3   OH245086   2.301   7.835  10.636
 7036TIP3    H145087   2.277   7.894  10.560
 7036TIP3    H245088   2.233   7.865  10.700
 7037TIP3   OH245089   3.357   7.889  10.258
 7037TIP3    H145090   3.343   7.821  10.325
 7037TIP3    H245091   3.418   7.949  10.305
 7038TIP3   OH245092   2.272   7.999  10.446
 7038TIP3    H145093   2.308   8.087  10.469
 7038TIP3    H245094   2.313   7.985  10.358
 7039TIP3   OH245095   3.394   7.777  10.630
 7039TIP3    H145096   3.318   7.834  10.612
 7039TIP3    H245097   3.466   7.812  10.574
 7040TIP3   OH245098   2.691   7.580  10.369
 7040TIP3    H145099   2.676   7.484  10.371
 7040TIP3    H245100   2.607   7.614  10.409
 7041TIP3   OH245101   3.530   7.573   9.676
 7041TIP3    H145102   3.436   7.588   9.699
 7041TIP3    H245103   3.551   7.657   9.631
 7042TIP3   OH245104   2.434   7.677  10.446
 7042TIP3    H145105   2.341   7.661  10.415
 7042TIP3    H245106   2.420   7.755  10.501
 7043TIP3   OH245107   2.894   7.643  10.787
 7043TIP3    H145108   2.933   7.600  10.865
 7043TIP3    H245109   2.798   7.629  10.802
 7044TIP3   OH245110   3.210   8.019  10.873
 7044TIP3    H145111   3.174   8.010  10.962
 7044TIP3    H245112   3.198   8.112  10.850
 7045TIP3   OH245113   2.867   7.891   9.528
 7045TIP3    H145114   2.826   7.893   9.615
 7045TIP3    H245115   2.829   7.811   9.487
 7046TIP3   OH245116   2.537   7.931   9.428
 7046TIP3    H145117   2.496   7.898   9.509
 7046TIP3    H245118   2.465   7.974   9.382
 7047TIP3   OH245119   1.873   7.909  10.140
 7047TIP3    H145120   1.934   7.898  10.215
 7047TIP3    H245121   1.918   7.869  10.063
 7048TIP3   OH245122   1.980   7.946   9.666
 7048TIP3    H145123   2.041   8.011   9.627
 7048TIP3    H245124   1.929   8.013   9.714
 7049TIP3   OH245125   2.689   7.921  10.161
 7049TIP3    H145126   2.597   7.934  10.191
 7049TIP3    H245127   2.743   7.920  10.241
 7050TIP3   OH245128   3.139   7.859  10.493
 7050TIP3    H145129   3.066   7.874  10.556
 7050TIP3    H245130   3.089   7.838  10.412
 7051TIP3   OH245131   2.328   7.826  10.002
 7051TIP3    H145132   2.290   7.736   9.995
 7051TIP3    H245133   2.399   7.825   9.938
 7052TIP3   OH245134   2.687   8.026  10.581
 7052TIP3    H145135   2.613   8.087  10.590
 7052TIP3    H245136   2.740   8.063  10.654
 7053TIP3   OH245137   3.131   7.957   9.592
 7053TIP3    H145138   3.036   7.964   9.566
 7053TIP3    H245139   3.158   8.048   9.609
 7054TIP3   OH245140   2.115   7.923  10.823
 7054TIP3    H145141   2.024   7.956  10.815
 7054TIP3    H245142   2.107   7.840  10.871
 7055TIP3   OH245143   2.985   7.898  10.719
 7055TIP3    H145144   3.059   7.905  10.781
 7055TIP3    H245145   2.952   7.808  10.737
 7056TIP3   OH245146   3.057   7.862   9.832
 7056TIP3    H145147   3.091   7.896   9.746
 7056TIP3    H245148   3.122   7.895   9.897
 7057TIP3   OH245149   2.802   8.020   9.912
 7057TIP3    H145150   2.865   8.094   9.916
 7057TIP3    H245151   2.762   8.021  10.001
 7058TIP3   OH245152   2.875   7.735   9.997
 7058TIP3    H145153   2.844   7.800  10.064
 7058TIP3    H245154   2.945   7.791   9.954
 7059TIP3   OH245155   2.441   7.847   9.672
 7059TIP3    H145156   2.433   7.936   9.708
 7059TIP3    H245157   2.535   7.825   9.693
 7060TIP3   OH245158   3.463   7.929  10.859
 7060TIP3    H145159   3.368   7.952  10.866
 7060TIP3    H245160   3.481   7.907  10.767
 7061TIP3   OH245161   2.180   7.636  10.364
 7061TIP3    H145162   2.162   7.641  10.267
 7061TIP3    H245163   2.136   7.551  10.387
 7062TIP3   OH245164   2.465   8.077  10.954
 7062TIP3    H145165   2.525   8.005  10.931
 7062TIP3    H245166   2.521   8.146  10.914
 7063TIP3   OH245167   2.545   7.867  10.743
 7063TIP3    H145168   2.601   7.907  10.674
 7063TIP3    H245169   2.457   7.860  10.699
 7064TIP3   OH245170   2.631   7.611  10.778
 7064TIP3    H145171   2.610   7.706  10.780
 7064TIP3    H245172   2.553   7.576  10.731
 7065TIP3   OH245173   3.464   7.912   9.399
 7065TIP3    H145174   3.525   7.873   9.463
 7065TIP3    H245175   3.378   7.871   9.417
 7066TIP3   OH245176   3.439   8.052   9.930
 7066TIP3    H145177   3.462   7.958   9.913
 7066TIP3    H245178   3.498   8.096   9.865
 7067TIP3   OH245179   3.491   7.792   9.899
 7067TIP3    H145180   3.510   7.752   9.987
 7067TIP3    H245181   3.430   7.727   9.859
 7068TIP3   OH245182   2.040   7.875  10.353
 7068TIP3    H145183   2.085   7.793  10.382
 7068TIP3    H245184   2.087   7.940  10.406
 7069TIP3   OH245185   3.667   7.792   9.557
 7069TIP3    H145186   3.711   7.725   9.501
 7069TIP3    H245187   3.737   7.860   9.567
 7070TIP3   OH245188   1.900   7.804   9.870
 7070TIP3    H145189   1.806   7.819   9.852
 7070TIP3    H245190   1.943   7.850   9.796
 7071TIP3   OH245191   1.896   7.668  10.697
 7071TIP3    H145192   1.829   7.654  10.767
 7071TIP3    H245193   1.849   7.737  10.644
 7072TIP3   OH245194   3.576   7.623  10.865
 7072TIP3    H145195   3.485   7.645  10.837
 7072TIP3    H245196   3.588   7.534  10.824
 7073TIP3   OH245197   2.913   7.760  10.303
 7073TIP3    H145198   2.846   7.696  10.333
 7073TIP3    H245199   2.970   7.704  10.248
 7074TIP3   OH245200   3.424   7.571  10.313
 7074TIP3    H145201   3.487   7.625  10.258
 7074TIP3    H245202   3.337   7.606  10.285
 7075TIP3   OH245203   3.590   7.686  10.137
 7075TIP3    H145204   3.662   7.633  10.094
 7075TIP3    H245205   3.640   7.771  10.149
 7076TIP3   OH245206   2.152   7.624  10.087
 7076TIP3    H145207   2.070   7.606  10.036
 7076TIP3    H245208   2.193   7.536  10.086
 7077TIP3   OH245209   2.026   7.598   9.660
 7077TIP3    H145210   2.075   7.665   9.609
 7077TIP3    H245211   1.969   7.654   9.714
 7078TIP3   OH245212   2.603   7.605  10.064
 7078TIP3    H145213   2.687   7.656  10.062
 7078TIP3    H245214   2.588   7.606  10.159
 7079TIP3   OH245215   3.166   7.616  10.230
 7079TIP3    H145216   3.162   7.629  10.135
 7079TIP3    H245217   3.126   7.528  10.242
 7080TIP3   OH245218   3.293   7.622   9.796
 7080TIP3    H145219   3.218   7.683   9.784
 7080TIP3    H245220   3.250   7.537   9.822
 7081TIP3   OH245221   2.212   7.798   9.511
 7081TIP3    H145222   2.259   7.731   9.460
 7081TIP3    H245223   2.279   7.826   9.575
 7082TIP3   OH245224   2.705   7.815   9.756
 7082TIP3    H145225   2.742   7.765   9.829
 7082TIP3    H245226   2.717   7.904   9.798
 7083TIP3   OH245227   5.525   7.871  10.539
 7083TIP3    H145228   5.546   7.921  10.621
 7083TIP3    H245229   5.584   7.914  10.476
 7084TIP3   OH245230   4.296   7.958  10.224
 7084TIP3    H145231   4.307   8.040  10.175
 7084TIP3    H245232   4.258   7.900  10.155
 7085TIP3   OH245233   5.071   7.967  10.054
 7085TIP3    H145234   5.131   7.935  10.127
 7085TIP3    H245235   5.138   8.019  10.008
 7086TIP3   OH245236   5.584   7.990  10.764
 7086TIP3    H145237   5.532   8.070  10.742
 7086TIP3    H245238   5.583   7.994  10.861
 7087TIP3   OH245239   4.187   7.835  10.635
 7087TIP3    H145240   4.162   7.894  10.560
 7087TIP3    H245241   4.119   7.865  10.700
 7088TIP3   OH245242   5.242   7.889  10.258
 7088TIP3    H145243   5.228   7.821  10.325
 7088TIP3    H245244   5.304   7.949  10.304
 7089TIP3   OH245245   4.158   7.999  10.446
 7089TIP3    H145246   4.196   8.087  10.469
 7089TIP3    H245247   4.199   7.986  10.357
 7090TIP3   OH245248   5.280   7.777  10.630
 7090TIP3    H145249   5.204   7.834  10.612
 7090TIP3    H245250   5.352   7.812  10.574
 7091TIP3   OH245251   4.578   7.582  10.373
 7091TIP3    H145252   4.562   7.486  10.368
 7091TIP3    H245253   4.492   7.614  10.407
 7092TIP3   OH245254   5.415   7.573   9.677
 7092TIP3    H145255   5.321   7.588   9.699
 7092TIP3    H245256   5.436   7.657   9.631
 7093TIP3   OH245257   4.319   7.676  10.446
 7093TIP3    H145258   4.227   7.661  10.415
 7093TIP3    H245259   4.305   7.755  10.501
 7094TIP3   OH245260   4.780   7.644  10.787
 7094TIP3    H145261   4.819   7.600  10.865
 7094TIP3    H245262   4.683   7.629  10.802
 7095TIP3   OH245263   5.095   8.019  10.873
 7095TIP3    H145264   5.059   8.010  10.962
 7095TIP3    H245265   5.083   8.112  10.850
 7096TIP3   OH245266   4.753   7.891   9.528
 7096TIP3    H145267   4.710   7.890   9.615
 7096TIP3    H245268   4.714   7.811   9.488
 7097TIP3   OH245269   4.423   7.931   9.428
 7097TIP3    H145270   4.382   7.897   9.510
 7097TIP3    H245271   4.351   7.974   9.383
 7098TIP3   OH245272   3.755   7.904  10.142
 7098TIP3    H145273   3.822   7.900  10.215
 7098TIP3    H245274   3.802   7.870  10.063
 7099TIP3   OH245275   3.865   7.946   9.667
 7099TIP3    H145276   3.926   8.011   9.627
 7099TIP3    H245277   3.815   8.013   9.715
 7100TIP3   OH245278   4.575   7.925  10.162
 7100TIP3    H145279   4.483   7.934  10.192
 7100TIP3    H245280   4.629   7.920  10.242
 7101TIP3   OH245281   5.024   7.859  10.492
 7101TIP3    H145282   4.950   7.874  10.555
 7101TIP3    H245283   4.974   7.838  10.412
 7102TIP3   OH245284   4.211   7.826  10.000
 7102TIP3    H145285   4.179   7.734   9.994
 7102TIP3    H245286   4.286   7.823   9.939
 7103TIP3   OH245287   4.572   8.026  10.581
 7103TIP3    H145288   4.499   8.087  10.590
 7103TIP3    H245289   4.626   8.063  10.654
 7104TIP3   OH245290   5.016   7.957   9.592
 7104TIP3    H145291   4.921   7.964   9.566
 7104TIP3    H245292   5.043   8.048   9.608
 7105TIP3   OH245293   4.001   7.923  10.824
 7105TIP3    H145294   3.910   7.956  10.815
 7105TIP3    H245295   3.992   7.839  10.871
 7106TIP3   OH245296   4.871   7.899  10.719
 7106TIP3    H145297   4.945   7.905  10.781
 7106TIP3    H245298   4.838   7.808  10.737
 7107TIP3   OH245299   4.943   7.863   9.831
 7107TIP3    H145300   4.976   7.896   9.746
 7107TIP3    H245301   5.009   7.894   9.896
 7108TIP3   OH245302   4.685   8.023   9.912
 7108TIP3    H145303   4.753   8.092   9.917
 7108TIP3    H245304   4.646   8.020  10.002
 7109TIP3   OH245305   4.762   7.738  10.002
 7109TIP3    H145306   4.729   7.803  10.066
 7109TIP3    H245307   4.830   7.792   9.954
 7110TIP3   OH245308   4.328   7.847   9.671
 7110TIP3    H145309   4.320   7.935   9.710
 7110TIP3    H245310   4.420   7.822   9.695
 7111TIP3   OH245311   5.348   7.929  10.859
 7111TIP3    H145312   5.254   7.952  10.866
 7111TIP3    H245313   5.367   7.907  10.767
 7112TIP3   OH245314   4.066   7.636  10.364
 7112TIP3    H145315   4.048   7.640  10.267
 7112TIP3    H245316   4.024   7.551  10.387
 7113TIP3   OH245317   4.351   8.077  10.954
 7113TIP3    H145318   4.410   8.005  10.931
 7113TIP3    H245319   4.406   8.146  10.914
 7114TIP3   OH245320   4.430   7.868  10.743
 7114TIP3    H145321   4.487   7.906  10.674
 7114TIP3    H245322   4.343   7.860  10.699
 7115TIP3   OH245323   4.516   7.610  10.778
 7115TIP3    H145324   4.496   7.706  10.780
 7115TIP3    H245325   4.439   7.576  10.731
 7116TIP3   OH245326   5.349   7.912   9.399
 7116TIP3    H145327   5.411   7.872   9.463
 7116TIP3    H245328   5.264   7.870   9.416
 7117TIP3   OH245329   5.325   8.052   9.931
 7117TIP3    H145330   5.348   7.958   9.913
 7117TIP3    H245331   5.384   8.096   9.865
 7118TIP3   OH245332   5.377   7.792   9.899
 7118TIP3    H145333   5.396   7.752   9.987
 7118TIP3    H245334   5.316   7.727   9.859
 7119TIP3   OH245335   3.926   7.876  10.354
 7119TIP3    H145336   3.969   7.793  10.383
 7119TIP3    H245337   3.974   7.941  10.407
 7120TIP3   OH245338   5.553   7.792   9.557
 7120TIP3    H145339   5.597   7.725   9.501
 7120TIP3    H245340   5.623   7.860   9.567
 7121TIP3   OH245341   3.785   7.805   9.872
 7121TIP3    H145342   3.692   7.820   9.851
 7121TIP3    H245343   3.828   7.850   9.796
 7122TIP3   OH245344   3.781   7.669  10.695
 7122TIP3    H145345   3.716   7.653  10.767
 7122TIP3    H245346   3.735   7.738  10.644
 7123TIP3   OH245347   5.461   7.623  10.865
 7123TIP3    H145348   5.371   7.645  10.837
 7123TIP3    H245349   5.473   7.534  10.824
 7124TIP3   OH245350   4.799   7.756  10.304
 7124TIP3    H145351   4.730   7.694  10.332
 7124TIP3    H245352   4.854   7.702  10.246
 7125TIP3   OH245353   5.310   7.571  10.313
 7125TIP3    H145354   5.372   7.625  10.258
 7125TIP3    H245355   5.222   7.606  10.285
 7126TIP3   OH245356   5.476   7.686  10.137
 7126TIP3    H145357   5.547   7.633  10.094
 7126TIP3    H245358   5.525   7.771  10.149
 7127TIP3   OH245359   4.035   7.624  10.090
 7127TIP3    H145360   3.955   7.606  10.037
 7127TIP3    H245361   4.080   7.538  10.084
 7128TIP3   OH245362   3.910   7.598   9.659
 7128TIP3    H145363   3.960   7.666   9.609
 7128TIP3    H245364   3.854   7.655   9.714
 7129TIP3   OH245365   4.483   7.615  10.066
 7129TIP3    H145366   4.572   7.653  10.060
 7129TIP3    H245367   4.476   7.603  10.161
 7130TIP3   OH245368   5.052   7.616  10.230
 7130TIP3    H145369   5.047   7.628  10.135
 7130TIP3    H245370   5.011   7.528  10.243
 7131TIP3   OH245371   5.178   7.622   9.796
 7131TIP3    H145372   5.104   7.682   9.783
 7131TIP3    H245373   5.135   7.537   9.822
 7132TIP3   OH245374   4.097   7.798   9.511
 7132TIP3    H145375   4.145   7.730   9.460
 7132TIP3    H245376   4.165   7.826   9.575
 7133TIP3   OH245377   4.594   7.819   9.754
 7133TIP3    H145378   4.625   7.761   9.826
 7133TIP3    H245379   4.603   7.905   9.801
 7134TIP3   OH245380   7.410   7.871  10.539
 7134TIP3    H145381   7.432   7.921  10.621
 7134TIP3    H245382   7.470   7.914  10.477
 7135TIP3   OH245383   6.181   7.958  10.224
 7135TIP3    H145384   6.193   8.040  10.175
 7135TIP3    H245385   6.143   7.899  10.154
 7136TIP3   OH245386   6.956   7.963  10.054
 7136TIP3    H145387   7.016   7.937  10.128
 7136TIP3    H245388   7.019   8.022  10.009
 7137TIP3   OH245389   7.471   7.991  10.764
 7137TIP3    H145390   7.419   8.070  10.741
 7137TIP3    H245391   7.469   7.994  10.861
 7138TIP3   OH245392   6.072   7.835  10.635
 7138TIP3    H145393   6.048   7.894  10.560
 7138TIP3    H245394   6.005   7.865  10.700
 7139TIP3   OH245395   7.128   7.889  10.258
 7139TIP3    H145396   7.114   7.821  10.325
 7139TIP3    H245397   7.190   7.949  10.305
 7140TIP3   OH245398   6.044   7.999  10.446
 7140TIP3    H145399   6.081   8.087  10.468
 7140TIP3    H245400   6.084   7.984  10.358
 7141TIP3   OH245401   7.166   7.776  10.630
 7141TIP3    H145402   7.090   7.834  10.613
 7141TIP3    H245403   7.237   7.811  10.574
 7142TIP3   OH245404   6.464   7.582  10.373
 7142TIP3    H145405   6.448   7.486  10.368
 7142TIP3    H245406   6.377   7.614  10.407
 7143TIP3   OH245407   7.301   7.573   9.676
 7143TIP3    H145408   7.207   7.587   9.699
 7143TIP3    H245409   7.322   7.657   9.632
 7144TIP3   OH245410   6.205   7.677  10.446
 7144TIP3    H145411   6.113   7.661  10.415
 7144TIP3    H245412   6.191   7.755  10.501
 7145TIP3   OH245413   6.666   7.644  10.787
 7145TIP3    H145414   6.705   7.600  10.865
 7145TIP3    H245415   6.569   7.629  10.802
 7146TIP3   OH245416   6.981   8.019  10.873
 7146TIP3    H145417   6.945   8.010  10.962
 7146TIP3    H245418   6.969   8.112  10.850
 7147TIP3   OH245419   6.638   7.891   9.528
 7147TIP3    H145420   6.596   7.889   9.615
 7147TIP3    H245421   6.599   7.811   9.487
 7148TIP3   OH245422   6.309   7.931   9.428
 7148TIP3    H145423   6.268   7.897   9.510
 7148TIP3    H245424   6.237   7.974   9.382
 7149TIP3   OH245425   5.641   7.904  10.142
 7149TIP3    H145426   5.707   7.900  10.215
 7149TIP3    H245427   5.688   7.870  10.063
 7150TIP3   OH245428   5.750   7.946   9.667
 7150TIP3    H145429   5.812   8.011   9.627
 7150TIP3    H245430   5.700   8.014   9.715
 7151TIP3   OH245431   6.461   7.925  10.162
 7151TIP3    H145432   6.368   7.934  10.192
 7151TIP3    H245433   6.514   7.920  10.242
 7152TIP3   OH245434   6.910   7.858  10.492
 7152TIP3    H145435   6.836   7.874  10.555
 7152TIP3    H245436   6.860   7.838  10.412
 7153TIP3   OH245437   6.097   7.826  10.000
 7153TIP3    H145438   6.064   7.734   9.994
 7153TIP3    H245439   6.171   7.823   9.939
 7154TIP3   OH245440   6.458   8.025  10.581
 7154TIP3    H145441   6.385   8.087  10.590
 7154TIP3    H245442   6.512   8.063  10.654
 7155TIP3   OH245443   6.902   7.957   9.591
 7155TIP3    H145444   6.807   7.964   9.566
 7155TIP3    H245445   6.929   8.048   9.609
 7156TIP3   OH245446   5.887   7.923  10.824
 7156TIP3    H145447   5.796   7.956  10.815
 7156TIP3    H245448   5.878   7.839  10.871
 7157TIP3   OH245449   6.756   7.898  10.719
 7157TIP3    H145450   6.830   7.905  10.781
 7157TIP3    H245451   6.723   7.808  10.737
 7158TIP3   OH245452   6.828   7.863   9.832
 7158TIP3    H145453   6.862   7.896   9.746
 7158TIP3    H245454   6.893   7.895   9.897
 7159TIP3   OH245455   6.572   8.020   9.913
 7159TIP3    H145456   6.636   8.094   9.916
 7159TIP3    H245457   6.533   8.021  10.002
 7160TIP3   OH245458   6.648   7.737  10.002
 7160TIP3    H145459   6.614   7.802  10.067
 7160TIP3    H245460   6.715   7.791   9.954
 7161TIP3   OH245461   6.214   7.847   9.671
 7161TIP3    H145462   6.206   7.935   9.710
 7161TIP3    H245463   6.306   7.822   9.695
 7162TIP3   OH245464   7.234   7.930  10.859
 7162TIP3    H145465   7.140   7.952  10.867
 7162TIP3    H245466   7.253   7.907  10.767
 7163TIP3   OH245467   5.952   7.636  10.364
 7163TIP3    H145468   5.933   7.640  10.267
 7163TIP3    H245469   5.910   7.551  10.387
 7164TIP3   OH245470   6.236   8.077  10.954
 7164TIP3    H145471   6.296   8.004  10.931
 7164TIP3    H245472   6.292   8.146  10.914
 7165TIP3   OH245473   6.316   7.868  10.743
 7165TIP3    H145474   6.373   7.906  10.674
 7165TIP3    H245475   6.229   7.860  10.699
 7166TIP3   OH245476   6.402   7.610  10.778
 7166TIP3    H145477   6.382   7.706  10.780
 7166TIP3    H245478   6.325   7.576  10.731
 7167TIP3   OH245479   7.235   7.913   9.399
 7167TIP3    H145480   7.296   7.872   9.463
 7167TIP3    H245481   7.149   7.871   9.417
 7168TIP3   OH245482   7.211   8.052   9.930
 7168TIP3    H145483   7.233   7.958   9.913
 7168TIP3    H245484   7.270   8.096   9.865
 7169TIP3   OH245485   7.260   7.793   9.899
 7169TIP3    H145486   7.281   7.753   9.986
 7169TIP3    H245487   7.201   7.727   9.858
 7170TIP3   OH245488   5.811   7.876  10.354
 7170TIP3    H145489   5.855   7.793  10.383
 7170TIP3    H245490   5.859   7.941  10.407
 7171TIP3   OH245491   7.437   7.792   9.557
 7171TIP3    H145492   7.482   7.725   9.501
 7171TIP3    H245493   7.506   7.860   9.568
 7172TIP3   OH245494   5.671   7.806   9.872
 7172TIP3    H145495   5.577   7.820   9.852
 7172TIP3    H245496   5.714   7.850   9.797
 7173TIP3   OH245497   5.666   7.669  10.695
 7173TIP3    H145498   5.601   7.653  10.767
 7173TIP3    H245499   5.620   7.738  10.644
 7174TIP3   OH245500   7.347   7.622  10.866
 7174TIP3    H145501   7.257   7.645  10.838
 7174TIP3    H245502   7.359   7.534  10.824
 7175TIP3   OH245503   6.683   7.759  10.301
 7175TIP3    H145504   6.616   7.695  10.332
 7175TIP3    H245505   6.739   7.703  10.245
 7176TIP3   OH245506   7.195   7.571  10.313
 7176TIP3    H145507   7.258   7.625  10.258
 7176TIP3    H245508   7.107   7.606  10.285
 7177TIP3   OH245509   7.362   7.686  10.137
 7177TIP3    H145510   7.433   7.633  10.094
 7177TIP3    H245511   7.412   7.771  10.149
 7178TIP3   OH245512   5.920   7.624  10.090
 7178TIP3    H145513   5.841   7.606  10.037
 7178TIP3    H245514   5.966   7.538  10.084
 7179TIP3   OH245515   5.796   7.598   9.659
 7179TIP3    H145516   5.846   7.666   9.609
 7179TIP3    H245517   5.739   7.655   9.714
 7180TIP3   OH245518   6.368   7.615  10.066
 7180TIP3    H145519   6.458   7.653  10.060
 7180TIP3    H245520   6.361   7.603  10.161
 7181TIP3   OH245521   6.938   7.616  10.230
 7181TIP3    H145522   6.933   7.629  10.135
 7181TIP3    H245523   6.897   7.528  10.243
 7182TIP3   OH245524   7.064   7.623   9.796
 7182TIP3    H145525   6.990   7.683   9.784
 7182TIP3    H245526   7.021   7.538   9.822
 7183TIP3   OH245527   5.983   7.798   9.511
 7183TIP3    H145528   6.031   7.730   9.460
 7183TIP3    H245529   6.050   7.826   9.575
 7184TIP3   OH245530   6.479   7.818   9.754
 7184TIP3    H145531   6.510   7.761   9.826
 7184TIP3    H245532   6.489   7.904   9.801
 7185TIP3   OH245533   7.929   7.835  10.628
 7185TIP3    H145534   7.932   7.903  10.556
 7185TIP3    H245535   7.879   7.879  10.698
 7186TIP3   OH245536   7.942   8.010  10.441
 7186TIP3    H145537   7.969   8.102  10.458
 7186TIP3    H245538   7.972   7.994  10.350
 7187TIP3   OH245539   7.526   7.904  10.142
 7187TIP3    H145540   7.592   7.901  10.215
 7187TIP3    H245541   7.575   7.871  10.063
 7188TIP3   OH245542   7.632   7.946   9.666
 7188TIP3    H145543   7.696   8.010   9.630
 7188TIP3    H245544   7.581   8.014   9.714
 7189TIP3   OH245545   7.925   7.818   9.979
 7189TIP3    H145546   7.925   7.723  10.003
 7189TIP3    H245547   8.020   7.832   9.968
 7190TIP3   OH245548   7.770   7.928  10.831
 7190TIP3    H145549   7.680   7.956  10.813
 7190TIP3    H245550   7.763   7.840  10.871
 7191TIP3   OH245551   7.836   7.636  10.365
 7191TIP3    H145552   7.824   7.641  10.268
 7191TIP3    H245553   7.796   7.550  10.388
 7192TIP3   OH245554   7.695   7.876  10.357
 7192TIP3    H145555   7.742   7.793  10.380
 7192TIP3    H245556   7.749   7.941  10.403
 7193TIP3   OH245557   7.556   7.802   9.870
 7193TIP3    H145558   7.463   7.819   9.852
 7193TIP3    H245559   7.597   7.851   9.797
 7194TIP3   OH245560   7.550   7.668  10.695
 7194TIP3    H145561   7.484   7.654  10.766
 7194TIP3    H245562   7.506   7.738  10.643
 7195TIP3   OH245563   7.799   7.617  10.092
 7195TIP3    H145564   7.720   7.601  10.037
 7195TIP3    H245565   7.850   7.536  10.086
 7196TIP3   OH245566   7.680   7.598   9.656
 7196TIP3    H145567   7.730   7.668   9.610
 7196TIP3    H245568   7.625   7.653   9.715
 7197TIP3   OH245569   7.865   7.789   9.520
 7197TIP3    H145570   7.919   7.736   9.459
 7197TIP3    H245571   7.933   7.832   9.575
 7198TIP3   OH245572   1.173   0.997   0.689
 7198TIP3    H145573   1.170   1.095   0.688
 7198TIP3    H245574   1.098   0.973   0.631
 7199TIP3   OH245575   1.057   0.921   1.041
 7199TIP3    H145576   1.056   0.857   1.113
 7199TIP3    H245577   1.021   0.869   0.967
 7200TIP3   OH245578   0.309   0.879   1.208
 7200TIP3    H145579   0.307   0.812   1.282
 7200TIP3    H245580   0.374   0.941   1.244
 7201TIP3   OH245581   1.425   1.216   0.871
 7201TIP3    H145582   1.385   1.144   0.921
 7201TIP3    H245583   1.428   1.287   0.938
 7202TIP3   OH245584   0.382   1.335   1.048
 7202TIP3    H145585   0.358   1.248   1.011
 7202TIP3    H245586   0.479   1.321   1.050
 7203TIP3   OH245587   0.054   0.693   0.590
 7203TIP3    H145588   0.009   0.779   0.588
 7203TIP3    H245589  -0.010   0.636   0.546
 7204TIP3   OH245590   0.141   0.917   0.825
 7204TIP3    H145591   0.140   0.821   0.845
 7204TIP3    H245592   0.184   0.919   0.737
 7205TIP3   OH245593   1.138   1.733   0.895
 7205TIP3    H145594   1.203   1.665   0.865
 7205TIP3    H245595   1.115   1.698   0.981
 7206TIP3   OH245596   0.896   1.161   1.091
 7206TIP3    H145597   0.928   1.099   1.024
 7206TIP3    H245598   0.978   1.177   1.141
 7207TIP3   OH245599   1.758   0.320   1.162
 7207TIP3    H145600   1.771   0.383   1.237
 7207TIP3    H245601   1.809   0.367   1.095
 7208TIP3   OH245602   1.212   0.608   1.122
 7208TIP3    H145603   1.228   0.511   1.122
 7208TIP3    H245604   1.201   0.622   1.026
 7209TIP3   OH245605   0.524   0.418   0.842
 7209TIP3    H145606   0.536   0.501   0.791
 7209TIP3    H245607   0.484   0.360   0.773
 7210TIP3   OH245608   1.296   0.425   0.678
 7210TIP3    H145609   1.361   0.395   0.747
 7210TIP3    H245610   1.353   0.482   0.624
 7211TIP3   OH245611   0.204   0.668   0.914
 7211TIP3    H145612   0.255   0.598   0.960
 7211TIP3    H245613   0.196   0.626   0.825
 7212TIP3   OH245614   0.696   0.813   0.852
 7212TIP3    H145615   0.769   0.757   0.885
 7212TIP3    H245616   0.651   0.748   0.795
 7213TIP3   OH245617   1.800   0.469   1.388
 7213TIP3    H145618   1.737   0.544   1.378
 7213TIP3    H245619   1.801   0.456   1.484
 7214TIP3   OH245620   0.417   0.311   1.240
 7214TIP3    H145621   0.384   0.370   1.169
 7214TIP3    H245622   0.351   0.330   1.312
 7215TIP3   OH245623   1.141   1.256   0.601
 7215TIP3    H145624   1.115   1.227   0.512
 7215TIP3    H245625   1.112   1.349   0.604
 7216TIP3   OH245626   0.665   1.071   1.265
 7216TIP3    H145627   0.599   1.137   1.294
 7216TIP3    H245628   0.738   1.131   1.240
 7217TIP3   OH245629   1.477   0.364   0.879
 7217TIP3    H145630   1.454   0.285   0.930
 7217TIP3    H245631   1.547   0.402   0.934
 7218TIP3   OH245632   0.372   0.499   1.047
 7218TIP3    H145633   0.439   0.561   1.083
 7218TIP3    H245634   0.424   0.454   0.975
 7219TIP3   OH245635   0.509   1.270   1.347
 7219TIP3    H145636   0.505   1.364   1.319
 7219TIP3    H245637   0.423   1.265   1.395
 7220TIP3   OH245638   0.114   1.233   0.426
 7220TIP3    H145639   0.092   1.269   0.340
 7220TIP3    H245640   0.125   1.313   0.482
 7221TIP3   OH245641   1.478   1.400   1.107
 7221TIP3    H145642   1.381   1.412   1.119
 7221TIP3    H245643   1.506   1.491   1.086
 7222TIP3   OH245644   1.513   0.238   1.261
 7222TIP3    H145645   1.438   0.292   1.234
 7222TIP3    H245646   1.581   0.262   1.194
 7223TIP3   OH245647   0.801   0.051   0.957
 7223TIP3    H145648   0.808  -0.040   0.992
 7223TIP3    H245649   0.727   0.080   1.013
 7224TIP3   OH245650   1.306   1.578   0.769
 7224TIP3    H145651   1.346   1.506   0.716
 7224TIP3    H245652   1.350   1.657   0.729
 7225TIP3   OH245653   1.426   1.371   0.619
 7225TIP3    H145654   1.397   1.303   0.556
 7225TIP3    H245655   1.429   1.320   0.702
 7226TIP3   OH245656   1.586   1.232   1.467
 7226TIP3    H145657   1.603   1.165   1.396
 7226TIP3    H245658   1.609   1.315   1.421
 7227TIP3   OH245659   1.037   0.916   0.441
 7227TIP3    H145660   0.970   0.978   0.407
 7227TIP3    H245661   1.109   0.930   0.377
 7228TIP3   OH245662   1.045   0.775   0.146
 7228TIP3    H145663   1.117   0.778   0.212
 7228TIP3    H245664   1.075   0.702   0.091
 7229TIP3   OH245665   1.772   0.859   1.266
 7229TIP3    H145666   1.714   0.938   1.275
 7229TIP3    H245667   1.827   0.886   1.190
 7230TIP3   OH245668   1.383   0.941   0.537
 7230TIP3    H145669   1.308   0.965   0.596
 7230TIP3    H245670   1.431   0.873   0.589
 7231TIP3   OH245671   1.375   0.757   1.449
 7231TIP3    H145672   1.376   0.840   1.500
 7231TIP3    H245673   1.313   0.785   1.379
 7232TIP3   OH245674   0.542   1.007   0.729
 7232TIP3    H145675   0.512   0.969   0.642
 7232TIP3    H245676   0.607   0.938   0.759
 7233TIP3   OH245677   0.671   1.341   0.997
 7233TIP3    H145678   0.677   1.295   0.912
 7233TIP3    H245679   0.753   1.309   1.041
 7234TIP3   OH245680   0.570   0.886   1.089
 7234TIP3    H145681   0.633   0.888   1.014
 7234TIP3    H245682   0.614   0.947   1.154
 7235TIP3   OH245683   1.218   1.440   1.164
 7235TIP3    H145684   1.190   1.503   1.231
 7235TIP3    H245685   1.193   1.354   1.206
 7236TIP3   OH245686   0.672   1.325   1.562
 7236TIP3    H145687   0.628   1.398   1.612
 7236TIP3    H245688   0.604   1.304   1.493
 7237TIP3   OH245689   1.269   0.860   0.302
 7237TIP3    H145690   1.324   0.880   0.382
 7237TIP3    H245691   1.315   0.912   0.231
 7238TIP3   OH245692   0.365   0.940   1.478
 7238TIP3    H145693   0.372   1.007   1.548
 7238TIP3    H245694   0.269   0.949   1.459
 7239TIP3   OH245695   1.043   1.535   0.646
 7239TIP3    H145696   1.083   1.564   0.728
 7239TIP3    H245697   0.985   1.609   0.623
 7240TIP3   OH245698   0.499   1.523   1.636
 7240TIP3    H145699   0.489   1.518   1.539
 7240TIP3    H245700   0.406   1.517   1.667
 7241TIP3   OH245701   1.646   0.040   0.294
 7241TIP3    H145702   1.550   0.050   0.310
 7241TIP3    H245703   1.667   0.123   0.246
 7242TIP3   OH245704   0.443   0.909   0.489
 7242TIP3    H145705   0.412   0.987   0.438
 7242TIP3    H245706   0.378   0.842   0.465
 7243TIP3   OH245707   1.757   1.468   0.128
 7243TIP3    H145708   1.770   1.563   0.146
 7243TIP3    H245709   1.848   1.436   0.125
 7244TIP3   OH245710   0.100   1.101   1.344
 7244TIP3    H145711   0.023   1.147   1.308
 7244TIP3    H245712   0.055   1.042   1.407
 7245TIP3   OH245713   0.051   1.444   1.041
 7245TIP3    H145714   0.142   1.420   1.059
 7245TIP3    H245715   0.031   1.505   1.114
 7246TIP3   OH245716   1.847   1.497   1.625
 7246TIP3    H145717   1.840   1.400   1.622
 7246TIP3    H245718   1.760   1.519   1.664
 7247TIP3   OH245719   0.944   1.450   1.511
 7247TIP3    H145720   0.950   1.534   1.562
 7247TIP3    H245721   0.856   1.415   1.535
 7248TIP3   OH245722   0.988   1.824   0.492
 7248TIP3    H145723   0.980   1.819   0.396
 7248TIP3    H245724   0.992   1.921   0.508
 7249TIP3   OH245725   0.358   1.709   0.671
 7249TIP3    H145726   0.368   1.672   0.761
 7249TIP3    H245727   0.272   1.671   0.648
 7250TIP3   OH245728   1.289   1.741   0.196
 7250TIP3    H145729   1.344   1.672   0.152
 7250TIP3    H245730   1.301   1.716   0.289
 7251TIP3   OH245731   1.263   1.739   0.468
 7251TIP3    H145732   1.167   1.747   0.486
 7251TIP3    H245733   1.287   1.665   0.525
 7252TIP3   OH245734   1.562   0.645   1.673
 7252TIP3    H145735   1.516   0.689   1.600
 7252TIP3    H245736   1.562   0.553   1.643
 7253TIP3   OH245737   0.278   1.288   1.472
 7253TIP3    H145738   0.294   1.249   1.561
 7253TIP3    H245739   0.194   1.245   1.449
 7254TIP3   OH245740   0.548   0.136   1.062
 7254TIP3    H145741   0.460   0.131   1.020
 7254TIP3    H245742   0.532   0.214   1.118
 7255TIP3   OH245743   1.012   0.101   1.407
 7255TIP3    H145744   1.052   0.055   1.481
 7255TIP3    H245745   0.917   0.086   1.420
 7256TIP3   OH245746   1.337   0.478   1.493
 7256TIP3    H145747   1.282   0.462   1.573
 7256TIP3    H245748   1.323   0.572   1.471
 7257TIP3   OH245749   1.423   0.948   0.089
 7257TIP3    H145750   1.407   0.959  -0.006
 7257TIP3    H245751   1.499   1.006   0.096
 7258TIP3   OH245752   0.979   0.356   0.141
 7258TIP3    H145753   0.939   0.349   0.230
 7258TIP3    H245754   0.942   0.273   0.106
 7259TIP3   OH245755   0.556   0.630   1.194
 7259TIP3    H145756   0.483   0.629   1.259
 7259TIP3    H245757   0.553   0.720   1.157
 7260TIP3   OH245758   0.552   0.642   0.682
 7260TIP3    H145759   0.459   0.616   0.667
 7260TIP3    H245760   0.590   0.614   0.597
 7261TIP3   OH245761   1.105   0.690   0.553
 7261TIP3    H145762   1.067   0.774   0.518
 7261TIP3    H245763   1.175   0.673   0.488
 7262TIP3   OH245764   1.010   0.712   1.698
 7262TIP3    H145765   0.957   0.635   1.732
 7262TIP3    H245766   1.093   0.700   1.747
 7263TIP3   OH245767   1.208   0.641   0.841
 7263TIP3    H145768   1.179   0.697   0.768
 7263TIP3    H245769   1.217   0.555   0.795
 7264TIP3   OH245770   0.316   0.656   1.359
 7264TIP3    H145771   0.323   0.694   1.449
 7264TIP3    H245772   0.273   0.572   1.380
 7265TIP3   OH245773   0.659   0.304   0.057
 7265TIP3    H145774   0.621   0.321   0.146
 7265TIP3    H245775   0.603   0.374   0.018
 7266TIP3   OH245776   0.013   0.399   0.769
 7266TIP3    H145777   0.063   0.363   0.845
 7266TIP3    H245778   0.027   0.332   0.703
 7267TIP3   OH245779   0.111   0.448   0.297
 7267TIP3    H145780   0.165   0.505   0.238
 7267TIP3    H245781   0.041   0.507   0.327
 7268TIP3   OH245782   1.126   0.797   1.295
 7268TIP3    H145783   1.166   0.728   1.238
 7268TIP3    H245784   1.080   0.745   1.363
 7269TIP3   OH245785   0.809   0.400   0.780
 7269TIP3    H145786   0.716   0.394   0.807
 7269TIP3    H245787   0.857   0.377   0.862
 7270TIP3   OH245788   0.292   0.553   0.670
 7270TIP3    H145789   0.204   0.567   0.629
 7270TIP3    H245790   0.317   0.469   0.628
 7271TIP3   OH245791   0.651   0.558   0.434
 7271TIP3    H145792   0.748   0.565   0.447
 7271TIP3    H245793   0.628   0.622   0.365
 7272TIP3   OH245794   1.250   0.327   1.099
 7272TIP3    H145795   1.182   0.323   1.170
 7272TIP3    H245796   1.202   0.289   1.024
 7273TIP3   OH245797   0.518   0.684   0.193
 7273TIP3    H145798   0.472   0.635   0.123
 7273TIP3    H245799   0.603   0.691   0.147
 7274TIP3   OH245800   1.566   1.889   1.740
 7274TIP3    H145801   1.595   1.917   1.651
 7274TIP3    H245802   1.645   1.912   1.791
 7275TIP3   OH245803   0.341   1.127   1.698
 7275TIP3    H145804   0.412   1.155   1.759
 7275TIP3    H245805   0.263   1.139   1.755
 7276TIP3   OH245806   0.936   0.672   0.969
 7276TIP3    H145807   0.996   0.619   0.916
 7276TIP3    H245808   0.921   0.617   1.047
 7277TIP3   OH245809   0.438   0.286   0.614
 7277TIP3    H145810   0.404   0.195   0.614
 7277TIP3    H245811   0.516   0.276   0.557
 7278TIP3   OH245812   0.799   0.504   1.212
 7278TIP3    H145813   0.717   0.558   1.219
 7278TIP3    H245814   0.856   0.540   1.282
 7279TIP3   OH245815   0.859   1.123   0.382
 7279TIP3    H145816   0.778   1.079   0.347
 7279TIP3    H245817   0.834   1.139   0.475
 7280TIP3   OH245818   1.579   1.048   1.261
 7280TIP3    H145819   1.636   1.096   1.199
 7280TIP3    H245820   1.493   1.051   1.214
 7281TIP3   OH245821   1.243   0.415   0.182
 7281TIP3    H145822   1.147   0.421   0.186
 7281TIP3    H245823   1.277   0.490   0.237
 7282TIP3   OH245824   1.008   1.155   1.505
 7282TIP3    H145825   0.973   1.111   1.583
 7282TIP3    H245826   0.981   1.246   1.517
 7283TIP3   OH245827   1.313   0.598   0.365
 7283TIP3    H145828   1.403   0.583   0.400
 7283TIP3    H245829   1.325   0.679   0.313
 7284TIP3   OH245830   0.399   1.083   0.941
 7284TIP3    H145831   0.457   1.073   0.862
 7284TIP3    H245832   0.427   1.006   0.990
 7285TIP3   OH245833   1.069   1.273   0.285
 7285TIP3    H145834   1.033   1.358   0.317
 7285TIP3    H245835   0.995   1.211   0.305
 7286TIP3   OH245836   0.080   0.888   1.482
 7286TIP3    H145837   0.087   0.858   1.574
 7286TIP3    H245838   0.001   0.844   1.447
 7287TIP3   OH245839   0.769   0.863   1.702
 7287TIP3    H145840   0.736   0.830   1.617
 7287TIP3    H245841   0.861   0.829   1.703
 7288TIP3   OH245842   1.240   1.397   1.501
 7288TIP3    H145843   1.147   1.414   1.477
 7288TIP3    H245844   1.235   1.426   1.594
 7289TIP3   OH245845   1.805   0.616   0.340
 7289TIP3    H145846   1.747   0.585   0.267
 7289TIP3    H245847   1.811   0.710   0.313
 7290TIP3   OH245848   1.803   1.198   1.620
 7290TIP3    H145849   1.716   1.222   1.581
 7290TIP3    H245850   1.860   1.194   1.539
 7291TIP3   OH245851   1.639   1.495   0.379
 7291TIP3    H145852   1.598   1.413   0.410
 7291TIP3    H245853   1.662   1.477   0.286
 7292TIP3   OH245854   1.356   0.978   1.089
 7292TIP3    H145855   1.261   0.958   1.078
 7292TIP3    H245856   1.398   0.902   1.044
 7293TIP3   OH245857   0.608   1.410   0.700
 7293TIP3    H145858   0.657   1.492   0.679
 7293TIP3    H245859   0.520   1.434   0.666
 7294TIP3   OH245860   0.178   0.896   0.154
 7294TIP3    H145861   0.242   0.956   0.197
 7294TIP3    H245862   0.094   0.931   0.185
 7295TIP3   OH245863   0.748   1.178   0.650
 7295TIP3    H145864   0.716   1.269   0.659
 7295TIP3    H245865   0.677   1.128   0.695
 7296TIP3   OH245866   0.793   1.597   1.293
 7296TIP3    H145867   0.840   1.676   1.263
 7296TIP3    H245868   0.856   1.562   1.359
 7297TIP3   OH245869   0.616   1.676   0.604
 7297TIP3    H145870   0.520   1.691   0.617
 7297TIP3    H245871   0.653   1.761   0.636
 7298TIP3   OH245872   1.144   1.195   1.253
 7298TIP3    H145873   1.114   1.176   1.344
 7298TIP3    H245874   1.209   1.125   1.236
 7299TIP3   OH245875   1.373   1.300   0.163
 7299TIP3    H145876   1.410   1.257   0.242
 7299TIP3    H245877   1.280   1.283   0.178
 7300TIP3   OH245878   1.429   1.654   1.502
 7300TIP3    H145879   1.358   1.605   1.455
 7300TIP3    H245880   1.446   1.724   1.435
 7301TIP3   OH245881   1.826   1.741   0.187
 7301TIP3    H145882   1.897   1.804   0.170
 7301TIP3    H245883   1.754   1.802   0.215
 7302TIP3   OH245884   0.235   0.379   1.438
 7302TIP3    H145885   0.145   0.414   1.445
 7302TIP3    H245886   0.222   0.295   1.487
 7303TIP3   OH245887   1.457   1.167   0.392
 7303TIP3    H145888   1.433   1.087   0.442
 7303TIP3    H245889   1.553   1.169   0.404
 7304TIP3   OH245890   0.196   1.558   1.281
 7304TIP3    H145891   0.227   1.466   1.286
 7304TIP3    H245892   0.219   1.589   1.369
 7305TIP3   OH245893   0.667   1.365   0.258
 7305TIP3    H145894   0.700   1.313   0.332
 7305TIP3    H245895   0.679   1.458   0.289
 7306TIP3   OH245896   0.321   1.088   0.306
 7306TIP3    H145897   0.251   1.126   0.364
 7306TIP3    H245898   0.371   1.166   0.278
 7307TIP3   OH245899   1.107   0.356   1.339
 7307TIP3    H145900   1.179   0.359   1.403
 7307TIP3    H245901   1.072   0.267   1.356
 7308TIP3   OH245902   1.189   0.309   0.451
 7308TIP3    H145903   1.205   0.361   0.371
 7308TIP3    H245904   1.238   0.362   0.516
 7309TIP3   OH245905   0.947   1.527   0.324
 7309TIP3    H145906   0.868   1.584   0.340
 7309TIP3    H245907   1.004   1.582   0.269
 7310TIP3   OH245908   0.904   0.489   0.529
 7310TIP3    H145909   0.982   0.548   0.533
 7310TIP3    H245910   0.877   0.478   0.623
 7311TIP3   OH245911   0.960   0.593   1.447
 7311TIP3    H145912   0.968   0.647   1.529
 7311TIP3    H245913   1.024   0.521   1.457
 7312TIP3   OH245914   0.993   0.196   0.622
 7312TIP3    H145915   0.956   0.264   0.681
 7312TIP3    H245916   1.058   0.250   0.572
 7313TIP3   OH245917   0.687   1.635   0.333
 7313TIP3    H145918   0.704   1.717   0.280
 7313TIP3    H245919   0.661   1.670   0.420
 7314TIP3   OH245920   0.550   0.305   0.299
 7314TIP3    H145921   0.550   0.398   0.325
 7314TIP3    H245922   0.644   0.282   0.312
 7315TIP3   OH245923   1.576   0.382   1.531
 7315TIP3    H145924   1.482   0.411   1.517
 7315TIP3    H245925   1.606   0.373   1.439
 7316TIP3   OH245926   1.439   0.757   0.931
 7316TIP3    H145927   1.356   0.712   0.905
 7316TIP3    H245928   1.488   0.689   0.983
 7317TIP3   OH245929   0.381   1.349   0.191
 7317TIP3    H145930   0.447   1.411   0.226
 7317TIP3    H245931   0.432   1.303   0.123
 7318TIP3   OH245932   0.212   0.619   0.105
 7318TIP3    H145933   0.209   0.715   0.126
 7318TIP3    H245934   0.125   0.597   0.072
 7319TIP3   OH245935   1.545   1.684   1.100
 7319TIP3    H145936   1.537   1.752   1.029
 7319TIP3    H245937   1.642   1.688   1.117
 7320TIP3   OH245938   0.279   0.119   0.967
 7320TIP3    H145939   0.264   0.104   0.871
 7320TIP3    H245940   0.261   0.030   1.004
 7321TIP3   OH245941   0.190   1.484   0.594
 7321TIP3    H145942   0.107   1.532   0.591
 7321TIP3    H245943   0.239   1.533   0.526
 7322TIP3   OH245944   0.112   1.750   1.723
 7322TIP3    H145945   0.171   1.725   1.797
 7322TIP3    H245946   0.067   1.665   1.703
 7323TIP3   OH245947   0.578   1.641   1.882
 7323TIP3    H145948   0.655   1.595   1.917
 7323TIP3    H245949   0.577   1.616   1.788
 7324TIP3   OH245950   0.998   1.606   0.052
 7324TIP3    H145951   0.928   1.541   0.069
 7324TIP3    H245952   1.069   1.556   0.009
 7325TIP3   OH245953   1.228   1.483   1.760
 7325TIP3    H145954   1.196   1.394   1.787
 7325TIP3    H245955   1.305   1.495   1.818
 7326TIP3   OH245956   1.470   1.564   0.100
 7326TIP3    H145957   1.482   1.468   0.097
 7326TIP3    H245958   1.503   1.594   0.013
 7327TIP3   OH245959   0.102   1.133   1.826
 7327TIP3    H145960   0.118   1.042   1.795
 7327TIP3    H245961   0.032   1.159   1.765
 7328TIP3   OH245962   0.521   1.147   0.026
 7328TIP3    H145963   0.552   1.080   0.088
 7328TIP3    H245964   0.599   1.153  -0.032
 7329TIP3   OH245965   0.774   1.129   1.760
 7329TIP3    H145966   0.740   1.161   1.674
 7329TIP3    H245967   0.779   1.031   1.749
 7330TIP3   OH245968   1.339   1.114   1.501
 7330TIP3    H145969   1.420   1.170   1.496
 7330TIP3    H245970   1.271   1.183   1.504
 7331TIP3   OH245971   0.178   0.850   1.763
 7331TIP3    H145972   0.236   0.772   1.753
 7331TIP3    H245973   0.166   0.852   1.859
 7332TIP3   OH245974   0.657   0.969   0.266
 7332TIP3    H145975   0.607   0.913   0.328
 7332TIP3    H245976   0.690   0.900   0.203
 7333TIP3   OH245977   0.583   0.745   1.497
 7333TIP3    H145978   0.524   0.818   1.523
 7333TIP3    H245979   0.627   0.783   1.419
 7334TIP3   OH245980   0.766   0.792   0.094
 7334TIP3    H145981   0.746   0.776  -0.001
 7334TIP3    H245982   0.863   0.798   0.097
 7335TIP3   OH245983   1.091   1.004   1.831
 7335TIP3    H145984   1.187   1.001   1.816
 7335TIP3    H245985   1.074   0.927   1.887
 7336TIP3   OH245986   1.695   1.018  11.013
 7336TIP3    H145987   1.679   0.980  10.927
 7336TIP3    H245988   1.702   1.113  10.992
 7337TIP3   OH245989   0.627   0.487   1.602
 7337TIP3    H145990   0.637   0.417   1.535
 7337TIP3    H245991   0.617   0.568   1.547
 7338TIP3   OH245992   0.665   0.324   1.357
 7338TIP3    H145993   0.716   0.370   1.286
 7338TIP3    H245994   0.576   0.316   1.317
 7339TIP3   OH245995   0.817   0.873   1.380
 7339TIP3    H145996   0.894   0.856   1.324
 7339TIP3    H245997   0.781   0.956   1.346
 7340TIP3   OH245998   1.257   0.646   1.876
 7340TIP3    H145999   1.282   0.553   1.867
 7340TIP3    H246000   1.344   0.691   1.881
 7341TIP3   OH246001   1.392   0.929   1.696
 7341TIP3    H146002   1.366   0.999   1.633
 7341TIP3    H246003   1.488   0.924   1.676
 7342TIP3   OH246004   0.470   0.611   1.793
 7342TIP3    H146005   0.394   0.552   1.778
 7342TIP3    H246006   0.536   0.572   1.732
 7343TIP3   OH246007   0.734   0.075   1.399
 7343TIP3    H146008   0.724   0.173   1.387
 7343TIP3    H246009   0.659   0.038   1.353
 7344TIP3   OH246010   0.871   0.500   1.760
 7344TIP3    H146011   0.838   0.479   1.850
 7344TIP3    H246012   0.793   0.479   1.706
 7345TIP3   OH246013   1.143   0.420   1.670
 7345TIP3    H146014   1.046   0.417   1.679
 7345TIP3    H246015   1.171   0.353   1.735
 7346TIP3   OH246016   1.299   0.285   1.857
 7346TIP3    H146017   1.298   0.186   1.855
 7346TIP3    H246018   1.274   0.303   1.949
 7347TIP3   OH246019   0.283   0.403   1.769
 7347TIP3    H146020   0.307   0.329   1.710
 7347TIP3    H246021   0.274   0.358   1.856
 7348TIP3   OH246022   0.775   8.142   1.644
 7348TIP3    H146023   0.842   8.071   1.649
 7348TIP3    H246024   0.752   8.128   1.550
 7349TIP3   OH246025   0.800   0.172   1.878
 7349TIP3    H146026   0.786   0.127   1.792
 7349TIP3    H246027   0.741   0.250   1.869
 7350TIP3   OH246028   0.748   1.861   0.199
 7350TIP3    H146029   0.845   1.868   0.203
 7350TIP3    H246030   0.726   1.924   0.129
 7351TIP3   OH246031   0.112   1.313   0.143
 7351TIP3    H146032   0.208   1.330   0.160
 7351TIP3    H246033   0.116   1.254   0.068
 7352TIP3   OH246034  -0.004   1.865   0.628
 7352TIP3    H146035  -0.085   1.817   0.599
 7352TIP3    H246036   0.015   1.804   0.702
 7353TIP3   OH246037   0.084   1.670   0.819
 7353TIP3    H146038   0.036   1.587   0.836
 7353TIP3    H246039   0.095   1.707   0.909
 7354TIP3   OH246040   1.817   1.748   1.120
 7354TIP3    H146041   1.823   1.761   1.216
 7354TIP3    H246042   1.887   1.806   1.089
 7355TIP3   OH246043   1.773   1.706   1.416
 7355TIP3    H146044   1.728   1.630   1.375
 7355TIP3    H246045   1.824   1.659   1.485
 7356TIP3   OH246046   1.618   1.279   1.883
 7356TIP3    H146047   1.528   1.277   1.918
 7356TIP3    H246048   1.656   1.360   1.922
 7357TIP3   OH246049   1.753   1.111   0.423
 7357TIP3    H146050   1.838   1.152   0.445
 7357TIP3    H246051   1.749   1.041   0.492
 7358TIP3   OH246052   1.786   0.921   0.614
 7358TIP3    H146053   1.711   0.871   0.652
 7358TIP3    H246054   1.846   0.933   0.690
 7359TIP3   OH246055   1.761   1.190   1.110
 7359TIP3    H146056   1.842   1.151   1.072
 7359TIP3    H246057   1.778   1.285   1.096
 7360TIP3   OH246058   1.619   1.480   1.338
 7360TIP3    H146059   1.550   1.515   1.396
 7360TIP3    H246060   1.564   1.440   1.267
 7361TIP3   OH246061   1.816   0.902   0.247
 7361TIP3    H146062   1.755   0.937   0.178
 7361TIP3    H246063   1.804   0.971   0.316
 7362TIP3   OH246064   1.654   0.629   0.102
 7362TIP3    H146065   1.654   0.695   0.032
 7362TIP3    H246066   1.632   0.545   0.058
 7363TIP3   OH246067   1.569   0.767   0.671
 7363TIP3    H146068   1.554   0.672   0.665
 7363TIP3    H246069   1.537   0.787   0.761
 7364TIP3   OH246070   0.050   0.972   1.079
 7364TIP3    H146071   0.070   0.966   0.983
 7364TIP3    H246072   0.129   0.963   1.135
 7365TIP3   OH246073   1.655   0.964   1.643
 7365TIP3    H146074   1.717   0.888   1.651
 7365TIP3    H246075   1.715   1.041   1.639
 7366TIP3   OH246076   1.803   0.750   1.706
 7366TIP3    H146077   1.715   0.711   1.689
 7366TIP3    H246078   1.861   0.672   1.697
 7367TIP3   OH246079   1.556   0.359   0.125
 7367TIP3    H146080   1.642   0.328   0.093
 7367TIP3    H246081   1.501   0.329   0.053
 7368TIP3   OH246082   1.532   0.530   0.515
 7368TIP3    H146083   1.562   0.437   0.525
 7368TIP3    H246084   1.613   0.568   0.477
 7369TIP3   OH246085   1.599   0.582   1.059
 7369TIP3    H146086   1.695   0.601   1.059
 7369TIP3    H246087   1.581   0.590   1.154
 7370TIP3   OH246088   1.605   0.654   1.337
 7370TIP3    H146089   1.517   0.682   1.369
 7370TIP3    H246090   1.649   0.739   1.315
 7371TIP3   OH246091   0.050   0.472   1.656
 7371TIP3    H146092   0.134   0.475   1.705
 7371TIP3    H246093  -0.008   0.425   1.716
 7372TIP3   OH246094   1.846   0.068   1.888
 7372TIP3    H146095   1.859   0.001   1.819
 7372TIP3    H246096   1.839   0.144   1.828
 7373TIP3   OH246097   1.598   0.260   0.520
 7373TIP3    H146098   1.623   0.214   0.604
 7373TIP3    H246099   1.539   0.195   0.477
 7374TIP3   OH246100   0.147   0.341   0.983
 7374TIP3    H146101   0.196   0.258   1.000
 7374TIP3    H246102   0.207   0.407   1.021
 7375TIP3   OH246103   0.005   0.643   1.089
 7375TIP3    H146104   0.046   0.619   1.005
 7375TIP3    H246105   0.033   0.732   1.106
 7376TIP3   OH246106   1.788   0.273   1.705
 7376TIP3    H146107   1.692   0.294   1.702
 7376TIP3    H246108   1.787   0.211   1.630
 7377TIP3   OH246109   1.796   0.252   0.181
 7377TIP3    H146110   1.832   0.187   0.119
 7377TIP3    H246111   1.860   0.324   0.185
 7378TIP3   OH246112   0.031   0.242   0.446
 7378TIP3    H146113  -0.062   0.267   0.454
 7378TIP3    H246114   0.071   0.318   0.400
 7379TIP3   OH246115   1.489   1.755   0.682
 7379TIP3    H146116   1.557   1.726   0.618
 7379TIP3    H246117   1.540   1.805   0.747
 7380TIP3   OH246118   0.015   0.116   1.313
 7380TIP3    H146119  -0.048   0.102   1.384
 7380TIP3    H246120  -0.029   0.193   1.271
 7381TIP3   OH246121   0.234   1.447   1.733
 7381TIP3    H146122   0.150   1.469   1.691
 7381TIP3    H246123   0.211   1.445   1.827
 7382TIP3   OH246124   0.521   1.545   1.357
 7382TIP3    H146125   0.490   1.634   1.333
 7382TIP3    H246126   0.615   1.555   1.331
 7383TIP3   OH246127   0.957   1.689   1.651
 7383TIP3    H146128   0.969   1.655   1.743
 7383TIP3    H246129   1.047   1.719   1.627
 7384TIP3   OH246130   1.184   1.815   1.581
 7384TIP3    H146131   1.259   1.758   1.558
 7384TIP3    H246132   1.220   1.858   1.661
 7385TIP3   OH246133   1.670   0.101   1.497
 7385TIP3    H146134   1.585   0.118   1.454
 7385TIP3    H246135   1.683   0.008   1.474
 7386TIP3   OH246136   0.265   1.870   1.360
 7386TIP3    H146137   0.191   1.921   1.322
 7386TIP3    H246138   0.233   1.856   1.450
 7387TIP3   OH246139   0.516   1.828   1.268
 7387TIP3    H146140   0.427   1.842   1.307
 7387TIP3    H246141   0.509   1.888   1.192
 7388TIP3   OH246142   0.984   1.818   1.183
 7388TIP3    H146143   0.938   1.875   1.119
 7388TIP3    H246144   0.997   1.881   1.258
 7389TIP3   OH246145   1.212   1.699   1.289
 7389TIP3    H146146   1.128   1.728   1.250
 7389TIP3    H246147   1.262   1.781   1.280
 7390TIP3   OH246148   1.470   1.856   1.309
 7390TIP3    H146149   1.467   1.952   1.286
 7390TIP3    H246150   1.493   1.819   1.221
 7391TIP3   OH246151   0.216   1.739   1.051
 7391TIP3    H146152   0.202   1.694   1.137
 7391TIP3    H246153   0.296   1.696   1.014
 7392TIP3   OH246154   0.421   1.607   0.919
 7392TIP3    H146155   0.405   1.514   0.943
 7392TIP3    H246156   0.506   1.623   0.965
 7393TIP3   OH246157   0.680   1.654   1.009
 7393TIP3    H146158   0.696   1.561   0.982
 7393TIP3    H246159   0.687   1.649   1.105
 7394TIP3   OH246160   1.021   0.228   0.917
 7394TIP3    H146161   0.960   0.159   0.949
 7394TIP3    H246162   1.084   0.172   0.868
 7395TIP3   OH246163   1.541   0.063   0.946
 7395TIP3    H146164   1.604   0.088   0.875
 7395TIP3    H246165   1.454   0.058   0.904
 7396TIP3   OH246166   1.708   0.158   0.749
 7396TIP3    H146167   1.771   0.091   0.717
 7396TIP3    H246168   1.761   0.239   0.765
 7397TIP3   OH246169   0.266   0.084   0.703
 7397TIP3    H146170   0.186   0.065   0.651
 7397TIP3    H246171   0.309  -0.002   0.700
 7398TIP3   OH246172   0.171   0.101   0.288
 7398TIP3    H146173   0.188   0.155   0.210
 7398TIP3    H246174   0.090   0.139   0.328
 7399TIP3   OH246175   0.705   0.087   0.684
 7399TIP3    H146176   0.798   0.114   0.676
 7399TIP3    H246177   0.711   0.053   0.774
 7400TIP3   OH246178   1.277   0.080   0.848
 7400TIP3    H146179   1.277   0.084   0.752
 7400TIP3    H246180   1.250  -0.013   0.862
 7401TIP3   OH246181   1.390   0.091   0.378
 7401TIP3    H146182   1.323   0.157   0.402
 7401TIP3    H246183   1.366   0.017   0.434
 7402TIP3   OH246184   0.132   1.658   0.379
 7402TIP3    H146185   0.067   1.656   0.308
 7402TIP3    H246186   0.132   1.753   0.396
 7403TIP3   OH246187   0.326   0.255   0.123
 7403TIP3    H146188   0.379   0.189   0.077
 7403TIP3    H246189   0.392   0.281   0.189
 7404TIP3   OH246190   0.825   0.280   0.366
 7404TIP3    H146191   0.852   0.220   0.437
 7404TIP3    H246192   0.833   0.364   0.416
 7405TIP3   OH246193   1.016   1.797   0.217
 7405TIP3    H146194   1.112   1.806   0.201
 7405TIP3    H246195   0.998   1.737   0.141
 7406TIP3   OH246196   1.688   1.736   0.485
 7406TIP3    H146197   1.668   1.656   0.430
 7406TIP3    H246198   1.680   1.809   0.419
 7407TIP3   OH246199   0.252   0.147   1.661
 7407TIP3    H146200   0.220   0.060   1.687
 7407TIP3    H246201   0.347   0.132   1.683
 7408TIP3   OH246202   0.459   0.081   1.828
 7408TIP3    H146203   0.540   0.047   1.789
 7408TIP3    H246204   0.410  -0.002   1.842
 7409TIP3   OH246205   0.311   1.741   0.074
 7409TIP3    H146206   0.287   1.779   0.159
 7409TIP3    H246207   0.394   1.697   0.092
 7410TIP3   OH246208   1.304   8.106   1.835
 7410TIP3    H146209   1.302   8.039   1.905
 7410TIP3    H246210   1.387   8.083   1.790
 7411TIP3   OH246211   1.612   1.607   1.692
 7411TIP3    H146212   1.532   1.595   1.637
 7411TIP3    H246213   1.602   1.701   1.714
 7412TIP3   OH246214   3.058   0.997   0.689
 7412TIP3    H146215   3.056   1.095   0.688
 7412TIP3    H246216   2.984   0.973   0.631
 7413TIP3   OH246217   2.943   0.921   1.041
 7413TIP3    H146218   2.942   0.857   1.113
 7413TIP3    H246219   2.907   0.869   0.967
 7414TIP3   OH246220   2.180   0.890   1.195
 7414TIP3    H146221   2.186   0.822   1.265
 7414TIP3    H246222   2.252   0.949   1.222
 7415TIP3   OH246223   3.311   1.217   0.871
 7415TIP3    H146224   3.270   1.145   0.920
 7415TIP3    H246225   3.314   1.287   0.938
 7416TIP3   OH246226   2.270   1.336   1.039
 7416TIP3    H146227   2.240   1.246   1.017
 7416TIP3    H246228   2.365   1.318   1.053
 7417TIP3   OH246229   1.934   0.690   0.596
 7417TIP3    H146230   1.890   0.776   0.590
 7417TIP3    H246231   1.878   0.635   0.539
 7418TIP3   OH246232   2.006   0.915   0.812
 7418TIP3    H146233   2.033   0.831   0.855
 7418TIP3    H246234   2.074   0.924   0.744
 7419TIP3   OH246235   3.023   1.733   0.894
 7419TIP3    H146236   3.088   1.665   0.865
 7419TIP3    H246237   3.001   1.698   0.980
 7420TIP3   OH246238   2.780   1.160   1.090
 7420TIP3    H146239   2.813   1.099   1.023
 7420TIP3    H246240   2.862   1.175   1.141
 7421TIP3   OH246241   3.645   0.321   1.163
 7421TIP3    H146242   3.656   0.386   1.236
 7421TIP3    H246243   3.695   0.367   1.095
 7422TIP3   OH246244   3.097   0.608   1.122
 7422TIP3    H146245   3.114   0.511   1.122
 7422TIP3    H246246   3.087   0.622   1.026
 7423TIP3   OH246247   2.409   0.419   0.842
 7423TIP3    H146248   2.421   0.502   0.791
 7423TIP3    H246249   2.369   0.361   0.773
 7424TIP3   OH246250   3.182   0.425   0.678
 7424TIP3    H146251   3.246   0.395   0.746
 7424TIP3    H246252   3.239   0.482   0.624
 7425TIP3   OH246253   2.070   0.660   0.915
 7425TIP3    H146254   2.137   0.606   0.961
 7425TIP3    H246255   2.081   0.628   0.824
 7426TIP3   OH246256   2.586   0.814   0.848
 7426TIP3    H146257   2.654   0.756   0.886
 7426TIP3    H246258   2.535   0.749   0.796
 7427TIP3   OH246259   3.687   0.472   1.388
 7427TIP3    H146260   3.621   0.544   1.376
 7427TIP3    H246261   3.686   0.457   1.484
 7428TIP3   OH246262   2.300   0.310   1.241
 7428TIP3    H146263   2.270   0.370   1.169
 7428TIP3    H246264   2.233   0.331   1.312
 7429TIP3   OH246265   3.027   1.256   0.601
 7429TIP3    H146266   3.000   1.227   0.513
 7429TIP3    H246267   2.998   1.350   0.604
 7430TIP3   OH246268   2.554   1.069   1.266
 7430TIP3    H146269   2.482   1.132   1.292
 7430TIP3    H246270   2.622   1.133   1.240
 7431TIP3   OH246271   3.362   0.365   0.879
 7431TIP3    H146272   3.339   0.285   0.930
 7431TIP3    H246273   3.432   0.404   0.935
 7432TIP3   OH246274   2.256   0.499   1.047
 7432TIP3    H146275   2.321   0.564   1.081
 7432TIP3    H246276   2.307   0.455   0.974
 7433TIP3   OH246277   2.401   1.266   1.340
 7433TIP3    H146278   2.393   1.362   1.319
 7433TIP3    H246279   2.318   1.259   1.393
 7434TIP3   OH246280   2.002   1.231   0.429
 7434TIP3    H146281   1.980   1.267   0.340
 7434TIP3    H246282   2.010   1.313   0.482
 7435TIP3   OH246283   3.364   1.401   1.107
 7435TIP3    H146284   3.267   1.412   1.119
 7435TIP3    H246285   3.390   1.493   1.087
 7436TIP3   OH246286   3.399   0.235   1.257
 7436TIP3    H146287   3.324   0.292   1.235
 7436TIP3    H246288   3.467   0.264   1.194
 7437TIP3   OH246289   2.686   0.051   0.957
 7437TIP3    H146290   2.694  -0.039   0.992
 7437TIP3    H246291   2.612   0.080   1.013
 7438TIP3   OH246292   3.192   1.578   0.769
 7438TIP3    H146293   3.232   1.506   0.716
 7438TIP3    H246294   3.236   1.657   0.729
 7439TIP3   OH246295   3.312   1.371   0.619
 7439TIP3    H146296   3.283   1.303   0.556
 7439TIP3    H246297   3.315   1.320   0.702
 7440TIP3   OH246298   3.472   1.232   1.467
 7440TIP3    H146299   3.488   1.165   1.396
 7440TIP3    H246300   3.494   1.315   1.421
 7441TIP3   OH246301   2.923   0.916   0.441
 7441TIP3    H146302   2.855   0.978   0.407
 7441TIP3    H246303   2.995   0.930   0.377
 7442TIP3   OH246304   2.931   0.775   0.146
 7442TIP3    H146305   3.003   0.778   0.212
 7442TIP3    H246306   2.960   0.702   0.091
 7443TIP3   OH246307   3.662   0.863   1.271
 7443TIP3    H146308   3.596   0.935   1.274
 7443TIP3    H246309   3.713   0.886   1.190
 7444TIP3   OH246310   3.269   0.941   0.537
 7444TIP3    H146311   3.194   0.965   0.596
 7444TIP3    H246312   3.316   0.874   0.589
 7445TIP3   OH246313   3.261   0.757   1.449
 7445TIP3    H146314   3.261   0.840   1.500
 7445TIP3    H246315   3.199   0.786   1.379
 7446TIP3   OH246316   2.429   1.007   0.727
 7446TIP3    H146317   2.396   0.967   0.643
 7446TIP3    H246318   2.491   0.938   0.761
 7447TIP3   OH246319   2.561   1.345   0.995
 7447TIP3    H146320   2.560   1.293   0.913
 7447TIP3    H246321   2.639   1.309   1.041
 7448TIP3   OH246322   2.462   0.880   1.093
 7448TIP3    H146323   2.516   0.891   1.013
 7448TIP3    H246324   2.501   0.948   1.154
 7449TIP3   OH246325   3.105   1.440   1.166
 7449TIP3    H146326   3.073   1.501   1.231
 7449TIP3    H246327   3.078   1.354   1.206
 7450TIP3   OH246328   2.557   1.327   1.561
 7450TIP3    H146329   2.513   1.399   1.612
 7450TIP3    H246330   2.489   1.307   1.493
 7451TIP3   OH246331   3.155   0.861   0.302
 7451TIP3    H146332   3.210   0.880   0.382
 7451TIP3    H246333   3.200   0.912   0.231
 7452TIP3   OH246334   2.252   0.931   1.481
 7452TIP3    H146335   2.257   1.004   1.546
 7452TIP3    H246336   2.160   0.953   1.457
 7453TIP3   OH246337   2.929   1.535   0.646
 7453TIP3    H146338   2.969   1.564   0.728
 7453TIP3    H246339   2.871   1.609   0.623
 7454TIP3   OH246340   2.399   1.538   1.651
 7454TIP3    H146341   2.384   1.525   1.554
 7454TIP3    H246342   2.304   1.519   1.669
 7455TIP3   OH246343   3.535   0.044   0.299
 7455TIP3    H146344   3.437   0.043   0.309
 7455TIP3    H246345   3.551   0.123   0.244
 7456TIP3   OH246346   2.326   0.908   0.486
 7456TIP3    H146347   2.296   0.987   0.438
 7456TIP3    H246348   2.260   0.842   0.465
 7457TIP3   OH246349   3.643   1.468   0.128
 7457TIP3    H146350   3.655   1.563   0.146
 7457TIP3    H246351   3.734   1.436   0.125
 7458TIP3   OH246352   1.897   1.151   1.369
 7458TIP3    H146353   1.883   1.136   1.275
 7458TIP3    H246354   1.943   1.068   1.396
 7459TIP3   OH246355   1.913   1.426   1.056
 7459TIP3    H146356   2.008   1.414   1.058
 7459TIP3    H246357   1.903   1.507   1.108
 7460TIP3   OH246358   3.738   1.494   1.629
 7460TIP3    H146359   3.721   1.399   1.620
 7460TIP3    H246360   3.649   1.519   1.664
 7461TIP3   OH246361   2.831   1.449   1.512
 7461TIP3    H146362   2.834   1.533   1.563
 7461TIP3    H246363   2.743   1.414   1.535
 7462TIP3   OH246364   2.874   1.825   0.491
 7462TIP3    H146365   2.865   1.819   0.395
 7462TIP3    H246366   2.878   1.921   0.507
 7463TIP3   OH246367   2.238   1.713   0.672
 7463TIP3    H146368   2.254   1.672   0.760
 7463TIP3    H246369   2.154   1.671   0.649
 7464TIP3   OH246370   3.175   1.742   0.196
 7464TIP3    H146371   3.230   1.672   0.152
 7464TIP3    H246372   3.186   1.715   0.289
 7465TIP3   OH246373   3.149   1.739   0.468
 7465TIP3    H146374   3.053   1.747   0.486
 7465TIP3    H246375   3.173   1.665   0.525
 7466TIP3   OH246376   3.449   0.645   1.673
 7466TIP3    H146377   3.401   0.689   1.601
 7466TIP3    H246378   3.448   0.553   1.643
 7467TIP3   OH246379   2.121   1.174   1.490
 7467TIP3    H146380   2.174   1.235   1.546
 7467TIP3    H246381   2.071   1.245   1.447
 7468TIP3   OH246382   2.434   0.136   1.062
 7468TIP3    H146383   2.346   0.132   1.021
 7468TIP3    H246384   2.418   0.213   1.119
 7469TIP3   OH246385   2.897   0.102   1.408
 7469TIP3    H146386   2.938   0.055   1.481
 7469TIP3    H246387   2.802   0.086   1.420
 7470TIP3   OH246388   3.222   0.478   1.490
 7470TIP3    H146389   3.168   0.462   1.571
 7470TIP3    H246390   3.209   0.573   1.470
 7471TIP3   OH246391   3.308   0.948   0.089
 7471TIP3    H146392   3.293   0.959  -0.006
 7471TIP3    H246393   3.385   1.006   0.096
 7472TIP3   OH246394   2.864   0.356   0.141
 7472TIP3    H146395   2.825   0.348   0.229
 7472TIP3    H246396   2.828   0.273   0.106
 7473TIP3   OH246397   2.442   0.630   1.195
 7473TIP3    H146398   2.368   0.629   1.258
 7473TIP3    H246399   2.437   0.720   1.156
 7474TIP3   OH246400   2.438   0.639   0.681
 7474TIP3    H146401   2.344   0.615   0.666
 7474TIP3    H246402   2.475   0.612   0.595
 7475TIP3   OH246403   2.990   0.690   0.553
 7475TIP3    H146404   2.952   0.774   0.518
 7475TIP3    H246405   3.060   0.673   0.488
 7476TIP3   OH246406   2.895   0.712   1.700
 7476TIP3    H146407   2.843   0.634   1.730
 7476TIP3    H246408   2.979   0.700   1.747
 7477TIP3   OH246409   3.094   0.641   0.841
 7477TIP3    H146410   3.065   0.697   0.768
 7477TIP3    H246411   3.103   0.555   0.795
 7478TIP3   OH246412   2.205   0.652   1.359
 7478TIP3    H146413   2.213   0.694   1.446
 7478TIP3    H246414   2.159   0.569   1.382
 7479TIP3   OH246415   2.544   0.305   0.058
 7479TIP3    H146416   2.506   0.321   0.146
 7479TIP3    H246417   2.488   0.374   0.018
 7480TIP3   OH246418   1.872   0.372   0.760
 7480TIP3    H146419   1.939   0.366   0.831
 7480TIP3    H246420   1.915   0.330   0.684
 7481TIP3   OH246421   1.996   0.441   0.297
 7481TIP3    H146422   2.048   0.501   0.239
 7481TIP3    H246423   1.928   0.503   0.330
 7482TIP3   OH246424   3.013   0.797   1.295
 7482TIP3    H146425   3.052   0.728   1.237
 7482TIP3    H246426   2.965   0.745   1.362
 7483TIP3   OH246427   2.695   0.400   0.780
 7483TIP3    H146428   2.602   0.393   0.807
 7483TIP3    H246429   2.743   0.377   0.862
 7484TIP3   OH246430   2.174   0.551   0.667
 7484TIP3    H146431   2.086   0.565   0.627
 7484TIP3    H246432   2.202   0.467   0.628
 7485TIP3   OH246433   2.537   0.557   0.434
 7485TIP3    H146434   2.634   0.565   0.447
 7485TIP3    H246435   2.514   0.622   0.365
 7486TIP3   OH246436   3.136   0.323   1.099
 7486TIP3    H146437   3.068   0.323   1.170
 7486TIP3    H246438   3.087   0.289   1.024
 7487TIP3   OH246439   2.403   0.684   0.193
 7487TIP3    H146440   2.357   0.634   0.124
 7487TIP3    H246441   2.488   0.691   0.147
 7488TIP3   OH246442   3.450   1.885   1.733
 7488TIP3    H146443   3.490   1.925   1.653
 7488TIP3    H246444   3.522   1.913   1.793
 7489TIP3   OH246445   2.231   1.115   1.712
 7489TIP3    H146446   2.297   1.163   1.762
 7489TIP3    H246447   2.147   1.140   1.755
 7490TIP3   OH246448   2.821   0.672   0.969
 7490TIP3    H146449   2.882   0.619   0.916
 7490TIP3    H246450   2.807   0.617   1.047
 7491TIP3   OH246451   2.320   0.285   0.614
 7491TIP3    H146452   2.291   0.194   0.613
 7491TIP3    H246453   2.399   0.277   0.558
 7492TIP3   OH246454   2.685   0.504   1.211
 7492TIP3    H146455   2.603   0.558   1.219
 7492TIP3    H246456   2.742   0.540   1.282
 7493TIP3   OH246457   2.744   1.123   0.382
 7493TIP3    H146458   2.664   1.079   0.347
 7493TIP3    H246459   2.720   1.139   0.475
 7494TIP3   OH246460   3.464   1.048   1.261
 7494TIP3    H146461   3.519   1.096   1.197
 7494TIP3    H246462   3.378   1.050   1.215
 7495TIP3   OH246463   3.129   0.415   0.182
 7495TIP3    H146464   3.032   0.421   0.186
 7495TIP3    H246465   3.162   0.490   0.237
 7496TIP3   OH246466   2.892   1.155   1.504
 7496TIP3    H146467   2.860   1.111   1.584
 7496TIP3    H246468   2.867   1.248   1.517
 7497TIP3   OH246469   3.198   0.599   0.366
 7497TIP3    H146470   3.289   0.583   0.400
 7497TIP3    H246471   3.210   0.679   0.313
 7498TIP3   OH246472   2.256   1.068   0.961
 7498TIP3    H146473   2.323   1.058   0.891
 7498TIP3    H246474   2.261   0.981   1.006
 7499TIP3   OH246475   2.954   1.273   0.285
 7499TIP3    H146476   2.918   1.358   0.317
 7499TIP3    H246477   2.880   1.211   0.305
 7500TIP3   OH246478   1.953   0.903   1.486
 7500TIP3    H146479   1.971   0.861   1.572
 7500TIP3    H246480   1.891   0.843   1.442
 7501TIP3   OH246481   2.655   0.862   1.704
 7501TIP3    H146482   2.623   0.830   1.618
 7501TIP3    H246483   2.747   0.829   1.703
 7502TIP3   OH246484   3.125   1.401   1.499
 7502TIP3    H146485   3.031   1.411   1.476
 7502TIP3    H246486   3.119   1.423   1.594
 7503TIP3   OH246487   3.690   0.617   0.340
 7503TIP3    H146488   3.633   0.585   0.267
 7503TIP3    H246489   3.697   0.710   0.313
 7504TIP3   OH246490   3.690   1.199   1.618
 7504TIP3    H146491   3.600   1.222   1.582
 7504TIP3    H246492   3.744   1.195   1.537
 7505TIP3   OH246493   3.525   1.495   0.379
 7505TIP3    H146494   3.483   1.413   0.410
 7505TIP3    H246495   3.548   1.477   0.286
 7506TIP3   OH246496   3.241   0.978   1.089
 7506TIP3    H146497   3.147   0.957   1.077
 7506TIP3    H246498   3.284   0.903   1.044
 7507TIP3   OH246499   2.492   1.411   0.699
 7507TIP3    H146500   2.542   1.492   0.679
 7507TIP3    H246501   2.405   1.434   0.666
 7508TIP3   OH246502   2.067   0.897   0.149
 7508TIP3    H146503   2.127   0.956   0.199
 7508TIP3    H246504   1.980   0.926   0.183
 7509TIP3   OH246505   2.634   1.178   0.651
 7509TIP3    H146506   2.601   1.270   0.659
 7509TIP3    H246507   2.563   1.128   0.696
 7510TIP3   OH246508   2.683   1.598   1.288
 7510TIP3    H146509   2.729   1.679   1.264
 7510TIP3    H246510   2.739   1.562   1.359
 7511TIP3   OH246511   2.502   1.677   0.603
 7511TIP3    H146512   2.405   1.691   0.617
 7511TIP3    H246513   2.538   1.761   0.636
 7512TIP3   OH246514   3.030   1.195   1.253
 7512TIP3    H146515   2.999   1.176   1.344
 7512TIP3    H246516   3.095   1.125   1.236
 7513TIP3   OH246517   3.259   1.300   0.163
 7513TIP3    H146518   3.296   1.257   0.242
 7513TIP3    H246519   3.165   1.283   0.178
 7514TIP3   OH246520   3.308   1.658   1.501
 7514TIP3    H146521   3.246   1.598   1.455
 7514TIP3    H246522   3.338   1.711   1.424
 7515TIP3   OH246523   3.713   1.742   0.186
 7515TIP3    H146524   3.783   1.806   0.168
 7515TIP3    H246525   3.640   1.802   0.215
 7516TIP3   OH246526   2.120   0.379   1.442
 7516TIP3    H146527   2.029   0.413   1.438
 7516TIP3    H246528   2.105   0.293   1.485
 7517TIP3   OH246529   3.343   1.167   0.392
 7517TIP3    H146530   3.319   1.087   0.442
 7517TIP3    H246531   3.439   1.169   0.404
 7518TIP3   OH246532   2.076   1.567   1.268
 7518TIP3    H146533   2.111   1.476   1.280
 7518TIP3    H246534   2.105   1.587   1.361
 7519TIP3   OH246535   2.553   1.366   0.258
 7519TIP3    H146536   2.586   1.313   0.332
 7519TIP3    H246537   2.565   1.458   0.290
 7520TIP3   OH246538   2.206   1.089   0.303
 7520TIP3    H146539   2.137   1.128   0.360
 7520TIP3    H246540   2.261   1.165   0.280
 7521TIP3   OH246541   2.993   0.356   1.339
 7521TIP3    H146542   3.065   0.359   1.403
 7521TIP3    H246543   2.957   0.267   1.356
 7522TIP3   OH246544   3.074   0.309   0.451
 7522TIP3    H146545   3.091   0.362   0.371
 7522TIP3    H246546   3.123   0.362   0.516
 7523TIP3   OH246547   2.832   1.528   0.324
 7523TIP3    H146548   2.754   1.584   0.340
 7523TIP3    H246549   2.890   1.583   0.269
 7524TIP3   OH246550   2.790   0.489   0.529
 7524TIP3    H146551   2.867   0.548   0.533
 7524TIP3    H246552   2.762   0.478   0.623
 7525TIP3   OH246553   2.847   0.593   1.448
 7525TIP3    H146554   2.854   0.647   1.529
 7525TIP3    H246555   2.911   0.521   1.458
 7526TIP3   OH246556   2.879   0.195   0.622
 7526TIP3    H146557   2.842   0.264   0.681
 7526TIP3    H246558   2.944   0.250   0.572
 7527TIP3   OH246559   2.573   1.635   0.333
 7527TIP3    H146560   2.589   1.717   0.280
 7527TIP3    H246561   2.547   1.670   0.421
 7528TIP3   OH246562   2.435   0.304   0.299
 7528TIP3    H146563   2.436   0.398   0.325
 7528TIP3    H246564   2.529   0.280   0.311
 7529TIP3   OH246565   3.462   0.382   1.531
 7529TIP3    H146566   3.369   0.412   1.517
 7529TIP3    H246567   3.492   0.373   1.439
 7530TIP3   OH246568   3.325   0.757   0.931
 7530TIP3    H146569   3.242   0.712   0.905
 7530TIP3    H246570   3.373   0.689   0.983
 7531TIP3   OH246571   2.267   1.348   0.193
 7531TIP3    H146572   2.333   1.411   0.226
 7531TIP3    H246573   2.316   1.304   0.122
 7532TIP3   OH246574   2.098   0.618   0.108
 7532TIP3    H146575   2.099   0.714   0.126
 7532TIP3    H246576   2.010   0.600   0.075
 7533TIP3   OH246577   3.429   1.688   1.103
 7533TIP3    H146578   3.422   1.751   1.028
 7533TIP3    H246579   3.527   1.688   1.116
 7534TIP3   OH246580   2.166   0.121   0.968
 7534TIP3    H146581   2.151   0.106   0.871
 7534TIP3    H246582   2.145   0.032   1.003
 7535TIP3   OH246583   2.074   1.488   0.596
 7535TIP3    H146584   1.988   1.532   0.590
 7535TIP3    H246585   2.121   1.532   0.524
 7536TIP3   OH246586   1.995   1.752   1.722
 7536TIP3    H146587   2.055   1.733   1.797
 7536TIP3    H246588   1.959   1.664   1.703
 7537TIP3   OH246589   2.466   1.648   1.887
 7537TIP3    H146590   2.540   1.593   1.917
 7537TIP3    H246591   2.459   1.618   1.793
 7538TIP3   OH246592   2.884   1.606   0.052
 7538TIP3    H146593   2.813   1.542   0.068
 7538TIP3    H246594   2.954   1.556   0.009
 7539TIP3   OH246595   3.115   1.485   1.759
 7539TIP3    H146596   3.081   1.396   1.786
 7539TIP3    H246597   3.191   1.493   1.819
 7540TIP3   OH246598   3.356   1.564   0.100
 7540TIP3    H146599   3.368   1.468   0.097
 7540TIP3    H246600   3.389   1.594   0.013
 7541TIP3   OH246601   1.983   1.130   1.826
 7541TIP3    H146602   2.006   1.041   1.792
 7541TIP3    H246603   1.916   1.157   1.762
 7542TIP3   OH246604   2.407   1.147   0.026
 7542TIP3    H146605   2.438   1.080   0.089
 7542TIP3    H246606   2.485   1.154  -0.032
 7543TIP3   OH246607   2.656   1.130   1.759
 7543TIP3    H146608   2.621   1.161   1.673
 7543TIP3    H246609   2.664   1.032   1.749
 7544TIP3   OH246610   3.227   1.114   1.501
 7544TIP3    H146611   3.307   1.172   1.496
 7544TIP3    H246612   3.158   1.182   1.504
 7545TIP3   OH246613   2.078   0.851   1.761
 7545TIP3    H146614   2.121   0.765   1.753
 7545TIP3    H246615   2.056   0.853   1.856
 7546TIP3   OH246616   2.543   0.969   0.267
 7546TIP3    H146617   2.493   0.914   0.329
 7546TIP3    H246618   2.575   0.900   0.203
 7547TIP3   OH246619   2.471   0.744   1.495
 7547TIP3    H146620   2.411   0.814   1.523
 7547TIP3    H246621   2.508   0.784   1.415
 7548TIP3   OH246622   2.652   0.791   0.094
 7548TIP3    H146623   2.630   0.777  -0.000
 7548TIP3    H246624   2.750   0.798   0.097
 7549TIP3   OH246625   2.977   1.004   1.831
 7549TIP3    H146626   3.072   1.001   1.817
 7549TIP3    H246627   2.959   0.926   1.887
 7550TIP3   OH246628   3.581   1.018  11.013
 7550TIP3    H146629   3.565   0.980  10.927
 7550TIP3    H246630   3.587   1.113  10.992
 7551TIP3   OH246631   2.511   0.487   1.602
 7551TIP3    H146632   2.522   0.417   1.535
 7551TIP3    H246633   2.505   0.568   1.547
 7552TIP3   OH246634   2.551   0.324   1.357
 7552TIP3    H146635   2.602   0.371   1.286
 7552TIP3    H246636   2.461   0.316   1.318
 7553TIP3   OH246637   2.704   0.873   1.382
 7553TIP3    H146638   2.779   0.856   1.325
 7553TIP3    H246639   2.666   0.955   1.347
 7554TIP3   OH246640   3.142   0.646   1.876
 7554TIP3    H146641   3.166   0.552   1.869
 7554TIP3    H246642   3.229   0.690   1.883
 7555TIP3   OH246643   3.277   0.929   1.696
 7555TIP3    H146644   3.252   0.999   1.633
 7555TIP3    H246645   3.373   0.924   1.677
 7556TIP3   OH246646   2.356   0.609   1.794
 7556TIP3    H146647   2.279   0.552   1.777
 7556TIP3    H246648   2.422   0.572   1.732
 7557TIP3   OH246649   2.620   0.076   1.399
 7557TIP3    H146650   2.609   0.173   1.387
 7557TIP3    H246651   2.545   0.038   1.354
 7558TIP3   OH246652   2.756   0.500   1.760
 7558TIP3    H146653   2.726   0.475   1.850
 7558TIP3    H246654   2.678   0.478   1.706
 7559TIP3   OH246655   3.028   0.420   1.672
 7559TIP3    H146656   2.931   0.417   1.679
 7559TIP3    H246657   3.056   0.354   1.738
 7560TIP3   OH246658   3.185   0.284   1.857
 7560TIP3    H146659   3.184   0.186   1.855
 7560TIP3    H246660   3.160   0.302   1.950
 7561TIP3   OH246661   2.163   0.405   1.770
 7561TIP3    H146662   2.188   0.331   1.711
 7561TIP3    H246663   2.155   0.360   1.856
 7562TIP3   OH246664   2.661   8.142   1.644
 7562TIP3    H146665   2.728   8.071   1.649
 7562TIP3    H246666   2.638   8.128   1.550
 7563TIP3   OH246667   2.684   0.173   1.878
 7563TIP3    H146668   2.672   0.127   1.792
 7563TIP3    H246669   2.627   0.250   1.868
 7564TIP3   OH246670   2.633   1.862   0.200
 7564TIP3    H146671   2.730   1.869   0.203
 7564TIP3    H246672   2.612   1.921   0.126
 7565TIP3   OH246673   1.996   1.314   0.144
 7565TIP3    H146674   2.092   1.327   0.162
 7565TIP3    H246675   1.998   1.257   0.067
 7566TIP3   OH246676   1.866   1.854   0.638
 7566TIP3    H146677   1.794   1.805   0.593
 7566TIP3    H246678   1.894   1.789   0.706
 7567TIP3   OH246679   1.948   1.668   0.827
 7567TIP3    H146680   1.913   1.580   0.847
 7567TIP3    H246681   1.972   1.701   0.915
 7568TIP3   OH246682   3.703   1.747   1.118
 7568TIP3    H146683   3.709   1.762   1.214
 7568TIP3    H246684   3.773   1.806   1.088
 7569TIP3   OH246685   3.658   1.705   1.417
 7569TIP3    H146686   3.615   1.627   1.375
 7569TIP3    H246687   3.710   1.659   1.486
 7570TIP3   OH246688   3.505   1.279   1.882
 7570TIP3    H146689   3.414   1.277   1.917
 7570TIP3    H246690   3.541   1.360   1.921
 7571TIP3   OH246691   3.638   1.111   0.423
 7571TIP3    H146692   3.724   1.152   0.445
 7571TIP3    H246693   3.634   1.041   0.492
 7572TIP3   OH246694   3.672   0.921   0.613
 7572TIP3    H146695   3.596   0.871   0.652
 7572TIP3    H246696   3.731   0.932   0.690
 7573TIP3   OH246697   3.648   1.189   1.111
 7573TIP3    H146698   3.728   1.151   1.073
 7573TIP3    H246699   3.662   1.284   1.094
 7574TIP3   OH246700   3.501   1.482   1.339
 7574TIP3    H146701   3.431   1.511   1.398
 7574TIP3    H246702   3.450   1.439   1.267
 7575TIP3   OH246703   3.701   0.902   0.247
 7575TIP3    H146704   3.640   0.937   0.178
 7575TIP3    H246705   3.690   0.971   0.316
 7576TIP3   OH246706   3.539   0.629   0.102
 7576TIP3    H146707   3.540   0.695   0.032
 7576TIP3    H246708   3.517   0.545   0.058
 7577TIP3   OH246709   3.454   0.767   0.671
 7577TIP3    H146710   3.439   0.672   0.665
 7577TIP3    H246711   3.422   0.787   0.761
 7578TIP3   OH246712   1.955   0.978   1.078
 7578TIP3    H146713   1.972   0.969   0.982
 7578TIP3    H246714   2.044   0.957   1.112
 7579TIP3   OH246715   3.540   0.965   1.640
 7579TIP3    H146716   3.601   0.888   1.652
 7579TIP3    H246717   3.602   1.041   1.639
 7580TIP3   OH246718   3.690   0.752   1.704
 7580TIP3    H146719   3.601   0.713   1.689
 7580TIP3    H246720   3.746   0.673   1.695
 7581TIP3   OH246721   3.442   0.359   0.126
 7581TIP3    H146722   3.528   0.328   0.093
 7581TIP3    H246723   3.387   0.329   0.053
 7582TIP3   OH246724   3.418   0.530   0.515
 7582TIP3    H146725   3.448   0.436   0.525
 7582TIP3    H246726   3.498   0.567   0.477
 7583TIP3   OH246727   3.485   0.582   1.059
 7583TIP3    H146728   3.581   0.602   1.059
 7583TIP3    H246729   3.466   0.590   1.154
 7584TIP3   OH246730   3.490   0.654   1.336
 7584TIP3    H146731   3.402   0.682   1.370
 7584TIP3    H246732   3.535   0.740   1.316
 7585TIP3   OH246733   1.919   0.509   1.694
 7585TIP3    H146734   2.011   0.481   1.710
 7585TIP3    H246735   1.871   0.426   1.717
 7586TIP3   OH246736   3.734   0.068   1.887
 7586TIP3    H146737   3.742   0.001   1.817
 7586TIP3    H246738   3.725   0.144   1.827
 7587TIP3   OH246739   3.482   0.260   0.522
 7587TIP3    H146740   3.509   0.213   0.604
 7587TIP3    H246741   3.426   0.194   0.477
 7588TIP3   OH246742   2.031   0.343   0.977
 7588TIP3    H146743   2.077   0.258   1.000
 7588TIP3    H246744   2.092   0.407   1.016
 7589TIP3   OH246745   1.865   0.634   1.079
 7589TIP3    H146746   1.922   0.609   1.004
 7589TIP3    H246747   1.911   0.715   1.106
 7590TIP3   OH246748   3.672   0.273   1.705
 7590TIP3    H146749   3.577   0.295   1.703
 7590TIP3    H246750   3.673   0.211   1.630
 7591TIP3   OH246751   3.681   0.251   0.180
 7591TIP3    H146752   3.718   0.186   0.119
 7591TIP3    H246753   3.745   0.323   0.185
 7592TIP3   OH246754   1.898   0.256   0.490
 7592TIP3    H146755   1.806   0.282   0.474
 7592TIP3    H246756   1.944   0.308   0.421
 7593TIP3   OH246757   3.375   1.755   0.682
 7593TIP3    H146758   3.443   1.726   0.618
 7593TIP3    H246759   3.427   1.806   0.746
 7594TIP3   OH246760   1.905   0.145   1.316
 7594TIP3    H146761   1.843   0.114   1.381
 7594TIP3    H246762   1.850   0.200   1.256
 7595TIP3   OH246763   2.117   1.449   1.755
 7595TIP3    H146764   2.045   1.466   1.691
 7595TIP3    H246765   2.078   1.437   1.840
 7596TIP3   OH246766   2.429   1.554   1.348
 7596TIP3    H146767   2.385   1.638   1.333
 7596TIP3    H246768   2.521   1.569   1.320
 7597TIP3   OH246769   2.834   1.681   1.653
 7597TIP3    H146770   2.849   1.649   1.745
 7597TIP3    H246771   2.921   1.716   1.628
 7598TIP3   OH246772   3.048   1.816   1.584
 7598TIP3    H146773   3.104   1.740   1.562
 7598TIP3    H246774   3.079   1.851   1.671
 7599TIP3   OH246775   3.561   0.098   1.495
 7599TIP3    H146776   3.474   0.118   1.458
 7599TIP3    H246777   3.570   0.005   1.474
 7600TIP3   OH246778   2.154   1.872   1.360
 7600TIP3    H146779   2.079   1.919   1.321
 7600TIP3    H246780   2.124   1.851   1.450
 7601TIP3   OH246781   2.400   1.833   1.267
 7601TIP3    H146782   2.310   1.843   1.306
 7601TIP3    H246783   2.392   1.888   1.188
 7602TIP3   OH246784   2.873   1.820   1.184
 7602TIP3    H146785   2.824   1.874   1.120
 7602TIP3    H246786   2.882   1.884   1.259
 7603TIP3   OH246787   3.096   1.705   1.297
 7603TIP3    H146788   3.014   1.726   1.248
 7603TIP3    H246789   3.147   1.784   1.273
 7604TIP3   OH246790   3.351   1.857   1.313
 7604TIP3    H146791   3.354   1.952   1.284
 7604TIP3    H246792   3.377   1.818   1.226
 7605TIP3   OH246793   2.100   1.737   1.051
 7605TIP3    H146794   2.088   1.689   1.137
 7605TIP3    H246795   2.182   1.696   1.017
 7606TIP3   OH246796   2.308   1.606   0.916
 7606TIP3    H146797   2.290   1.514   0.943
 7606TIP3    H246798   2.391   1.622   0.965
 7607TIP3   OH246799   2.568   1.654   1.010
 7607TIP3    H146800   2.582   1.562   0.982
 7607TIP3    H246801   2.568   1.645   1.106
 7608TIP3   OH246802   2.908   0.226   0.917
 7608TIP3    H146803   2.846   0.158   0.949
 7608TIP3    H246804   2.970   0.171   0.867
 7609TIP3   OH246805   3.429   0.054   0.944
 7609TIP3    H146806   3.488   0.090   0.875
 7609TIP3    H246807   3.340   0.058   0.903
 7610TIP3   OH246808   3.595   0.156   0.752
 7610TIP3    H146809   3.658   0.093   0.714
 7610TIP3    H246810   3.647   0.238   0.767
 7611TIP3   OH246811   2.142   0.080   0.708
 7611TIP3    H146812   2.069   0.066   0.647
 7611TIP3    H246813   2.192  -0.001   0.697
 7612TIP3   OH246814   2.050   0.103   0.297
 7612TIP3    H146815   2.072   0.153   0.216
 7612TIP3    H246816   1.963   0.135   0.327
 7613TIP3   OH246817   2.590   0.088   0.684
 7613TIP3    H146818   2.683   0.113   0.676
 7613TIP3    H246819   2.596   0.054   0.774
 7614TIP3   OH246820   3.166   0.079   0.850
 7614TIP3    H146821   3.162   0.086   0.754
 7614TIP3    H246822   3.132  -0.012   0.861
 7615TIP3   OH246823   3.279   0.093   0.382
 7615TIP3    H146824   3.207   0.155   0.400
 7615TIP3    H246825   3.253   0.014   0.431
 7616TIP3   OH246826   2.019   1.654   0.376
 7616TIP3    H146827   1.946   1.655   0.311
 7616TIP3    H246828   2.020   1.748   0.397
 7617TIP3   OH246829   2.207   0.249   0.125
 7617TIP3    H146830   2.266   0.189   0.078
 7617TIP3    H246831   2.272   0.281   0.191
 7618TIP3   OH246832   2.710   0.281   0.366
 7618TIP3    H146833   2.738   0.220   0.436
 7618TIP3    H246834   2.718   0.364   0.416
 7619TIP3   OH246835   2.902   1.797   0.217
 7619TIP3    H146836   2.997   1.806   0.200
 7619TIP3    H246837   2.883   1.737   0.141
 7620TIP3   OH246838   3.574   1.736   0.484
 7620TIP3    H146839   3.553   1.656   0.430
 7620TIP3    H246840   3.565   1.809   0.419
 7621TIP3   OH246841   2.138   0.142   1.655
 7621TIP3    H146842   2.102   0.059   1.688
 7621TIP3    H246843   2.230   0.131   1.684
 7622TIP3   OH246844   2.341   0.083   1.827
 7622TIP3    H146845   2.424   0.050   1.790
 7622TIP3    H246846   2.295  -0.003   1.841
 7623TIP3   OH246847   2.196   1.745   0.074
 7623TIP3    H146848   2.168   1.779   0.160
 7623TIP3    H246849   2.276   1.696   0.093
 7624TIP3   OH246850   3.189   8.106   1.837
 7624TIP3    H146851   3.187   8.039   1.905
 7624TIP3    H246852   3.272   8.084   1.791
 7625TIP3   OH246853   3.499   1.609   1.693
 7625TIP3    H146854   3.419   1.592   1.640
 7625TIP3    H246855   3.489   1.703   1.716
 7626TIP3   OH246856   4.943   0.997   0.691
 7626TIP3    H146857   4.941   1.095   0.688
 7626TIP3    H246858   4.870   0.973   0.632
 7627TIP3   OH246859   4.829   0.921   1.041
 7627TIP3    H146860   4.827   0.857   1.113
 7627TIP3    H246861   4.792   0.870   0.967
 7628TIP3   OH246862   4.063   0.891   1.196
 7628TIP3    H146863   4.071   0.821   1.264
 7628TIP3    H246864   4.139   0.947   1.220
 7629TIP3   OH246865   5.196   1.217   0.871
 7629TIP3    H146866   5.156   1.145   0.920
 7629TIP3    H246867   5.199   1.288   0.938
 7630TIP3   OH246868   4.156   1.335   1.046
 7630TIP3    H146869   4.125   1.247   1.015
 7630TIP3    H246870   4.252   1.317   1.050
 7631TIP3   OH246871   3.820   0.689   0.596
 7631TIP3    H146872   3.776   0.776   0.589
 7631TIP3    H246873   3.764   0.635   0.539
 7632TIP3   OH246874   3.892   0.915   0.812
 7632TIP3    H146875   3.919   0.831   0.855
 7632TIP3    H246876   3.960   0.924   0.744
 7633TIP3   OH246877   4.909   1.733   0.895
 7633TIP3    H146878   4.974   1.665   0.865
 7633TIP3    H246879   4.886   1.697   0.981
 7634TIP3   OH246880   4.665   1.161   1.091
 7634TIP3    H146881   4.698   1.100   1.024
 7634TIP3    H246882   4.747   1.178   1.140
 7635TIP3   OH246883   5.532   0.320   1.161
 7635TIP3    H146884   5.541   0.384   1.236
 7635TIP3    H246885   5.580   0.371   1.095
 7636TIP3   OH246886   4.983   0.608   1.122
 7636TIP3    H146887   4.999   0.511   1.122
 7636TIP3    H246888   4.972   0.622   1.026
 7637TIP3   OH246889   4.295   0.419   0.842
 7637TIP3    H146890   4.306   0.502   0.791
 7637TIP3    H246891   4.254   0.361   0.773
 7638TIP3   OH246892   5.067   0.425   0.678
 7638TIP3    H146893   5.132   0.395   0.746
 7638TIP3    H246894   5.124   0.482   0.624
 7639TIP3   OH246895   3.955   0.660   0.915
 7639TIP3    H146896   4.022   0.606   0.961
 7639TIP3    H246897   3.967   0.628   0.824
 7640TIP3   OH246898   4.472   0.814   0.849
 7640TIP3    H146899   4.540   0.756   0.886
 7640TIP3    H246900   4.421   0.750   0.796
 7641TIP3   OH246901   5.573   0.471   1.388
 7641TIP3    H146902   5.508   0.545   1.378
 7641TIP3    H246903   5.572   0.456   1.484
 7642TIP3   OH246904   4.186   0.311   1.241
 7642TIP3    H146905   4.155   0.370   1.169
 7642TIP3    H246906   4.119   0.331   1.312
 7643TIP3   OH246907   4.912   1.256   0.602
 7643TIP3    H146908   4.886   1.227   0.513
 7643TIP3    H246909   4.883   1.350   0.604
 7644TIP3   OH246910   4.436   1.072   1.269
 7644TIP3    H146911   4.366   1.136   1.292
 7644TIP3    H246912   4.507   1.132   1.239
 7645TIP3   OH246913   5.254   0.360   0.877
 7645TIP3    H146914   5.222   0.287   0.931
 7645TIP3    H246915   5.314   0.405   0.938
 7646TIP3   OH246916   4.142   0.499   1.047
 7646TIP3    H146917   4.207   0.564   1.080
 7646TIP3    H246918   4.193   0.455   0.974
 7647TIP3   OH246919   4.282   1.272   1.351
 7647TIP3    H146920   4.277   1.363   1.317
 7647TIP3    H246921   4.193   1.263   1.393
 7648TIP3   OH246922   3.888   1.231   0.429
 7648TIP3    H146923   3.866   1.267   0.340
 7648TIP3    H246924   3.896   1.313   0.482
 7649TIP3   OH246925   5.251   1.402   1.114
 7649TIP3    H146926   5.153   1.412   1.116
 7649TIP3    H246927   5.277   1.491   1.083
 7650TIP3   OH246928   5.284   0.236   1.259
 7650TIP3    H146929   5.209   0.292   1.235
 7650TIP3    H246930   5.352   0.265   1.195
 7651TIP3   OH246931   4.571   0.051   0.957
 7651TIP3    H146932   4.579  -0.039   0.992
 7651TIP3    H246933   4.498   0.080   1.013
 7652TIP3   OH246934   5.077   1.578   0.769
 7652TIP3    H146935   5.118   1.506   0.715
 7652TIP3    H246936   5.121   1.657   0.729
 7653TIP3   OH246937   5.198   1.371   0.619
 7653TIP3    H146938   5.169   1.303   0.556
 7653TIP3    H246939   5.200   1.320   0.702
 7654TIP3   OH246940   5.358   1.233   1.462
 7654TIP3    H146941   5.376   1.161   1.396
 7654TIP3    H246942   5.394   1.311   1.413
 7655TIP3   OH246943   4.808   0.916   0.441
 7655TIP3    H146944   4.741   0.978   0.407
 7655TIP3    H246945   4.881   0.930   0.377
 7656TIP3   OH246946   4.817   0.775   0.146
 7656TIP3    H146947   4.888   0.778   0.212
 7656TIP3    H246948   4.846   0.702   0.091
 7657TIP3   OH246949   5.548   0.863   1.270
 7657TIP3    H146950   5.483   0.936   1.273
 7657TIP3    H246951   5.598   0.886   1.190
 7658TIP3   OH246952   5.155   0.941   0.537
 7658TIP3    H146953   5.080   0.965   0.596
 7658TIP3    H246954   5.202   0.874   0.589
 7659TIP3   OH246955   5.148   0.756   1.448
 7659TIP3    H146956   5.147   0.837   1.502
 7659TIP3    H246957   5.085   0.785   1.379
 7660TIP3   OH246958   4.314   1.007   0.727
 7660TIP3    H146959   4.283   0.968   0.642
 7660TIP3    H246960   4.376   0.938   0.760
 7661TIP3   OH246961   4.446   1.344   0.995
 7661TIP3    H146962   4.446   1.293   0.913
 7661TIP3    H246963   4.525   1.309   1.040
 7662TIP3   OH246964   4.347   0.881   1.094
 7662TIP3    H146965   4.401   0.891   1.013
 7662TIP3    H246966   4.386   0.948   1.154
 7663TIP3   OH246967   4.992   1.440   1.167
 7663TIP3    H146968   4.957   1.504   1.229
 7663TIP3    H246969   4.962   1.354   1.205
 7664TIP3   OH246970   4.441   1.325   1.565
 7664TIP3    H146971   4.399   1.399   1.611
 7664TIP3    H246972   4.377   1.303   1.492
 7665TIP3   OH246973   5.040   0.861   0.302
 7665TIP3    H146974   5.095   0.880   0.382
 7665TIP3    H246975   5.086   0.912   0.231
 7666TIP3   OH246976   4.138   0.940   1.479
 7666TIP3    H146977   4.143   1.008   1.548
 7666TIP3    H246978   4.043   0.946   1.458
 7667TIP3   OH246979   4.814   1.535   0.646
 7667TIP3    H146980   4.855   1.564   0.728
 7667TIP3    H246981   4.757   1.609   0.623
 7668TIP3   OH246982   4.261   1.528   1.643
 7668TIP3    H146983   4.269   1.521   1.545
 7668TIP3    H246984   4.166   1.509   1.650
 7669TIP3   OH246985   5.420   0.044   0.299
 7669TIP3    H146986   5.322   0.043   0.309
 7669TIP3    H246987   5.436   0.123   0.244
 7670TIP3   OH246988   4.212   0.908   0.486
 7670TIP3    H146989   4.182   0.987   0.438
 7670TIP3    H246990   4.146   0.842   0.465
 7671TIP3   OH246991   5.528   1.468   0.128
 7671TIP3    H146992   5.541   1.563   0.146
 7671TIP3    H246993   5.620   1.436   0.125
 7672TIP3   OH246994   3.820   1.153   1.380
 7672TIP3    H146995   3.776   1.144   1.293
 7672TIP3    H246996   3.830   1.058   1.401
 7673TIP3   OH246997   3.798   1.425   1.056
 7673TIP3    H146998   3.893   1.414   1.054
 7673TIP3    H246999   3.789   1.508   1.105
 7674TIP3   OH247000   5.618   1.497   1.622
 7674TIP3    H147001   5.611   1.400   1.624
 7674TIP3    H247002   5.534   1.522   1.666
 7675TIP3   OH247003   4.720   1.449   1.513
 7675TIP3    H147004   4.720   1.534   1.562
 7675TIP3    H247005   4.631   1.413   1.534
 7676TIP3   OH247006   4.759   1.825   0.492
 7676TIP3    H147007   4.751   1.819   0.395
 7676TIP3    H247008   4.764   1.921   0.508
 7677TIP3   OH247009   4.124   1.712   0.672
 7677TIP3    H147010   4.139   1.672   0.761
 7677TIP3    H247011   4.039   1.671   0.649
 7678TIP3   OH247012   5.061   1.741   0.196
 7678TIP3    H147013   5.115   1.672   0.152
 7678TIP3    H247014   5.072   1.716   0.290
 7679TIP3   OH247015   5.034   1.739   0.468
 7679TIP3    H147016   4.938   1.747   0.486
 7679TIP3    H247017   5.058   1.665   0.525
 7680TIP3   OH247018   5.334   0.645   1.673
 7680TIP3    H147019   5.286   0.689   1.600
 7680TIP3    H247020   5.333   0.553   1.643
 7681TIP3   OH247021   4.049   1.288   1.476
 7681TIP3    H147022   4.072   1.243   1.560
 7681TIP3    H247023   3.964   1.245   1.450
 7682TIP3   OH247024   4.320   0.136   1.062
 7682TIP3    H147025   4.232   0.132   1.021
 7682TIP3    H247026   4.304   0.213   1.119
 7683TIP3   OH247027   4.782   0.103   1.409
 7683TIP3    H147028   4.823   0.055   1.481
 7683TIP3    H247029   4.687   0.086   1.420
 7684TIP3   OH247030   5.109   0.478   1.492
 7684TIP3    H147031   5.053   0.462   1.572
 7684TIP3    H247032   5.094   0.572   1.471
 7685TIP3   OH247033   5.194   0.948   0.089
 7685TIP3    H147034   5.178   0.959  -0.006
 7685TIP3    H247035   5.270   1.006   0.095
 7686TIP3   OH247036   4.750   0.356   0.141
 7686TIP3    H147037   4.711   0.348   0.229
 7686TIP3    H247038   4.714   0.273   0.106
 7687TIP3   OH247039   4.328   0.630   1.195
 7687TIP3    H147040   4.253   0.629   1.257
 7687TIP3    H247041   4.323   0.720   1.156
 7688TIP3   OH247042   4.323   0.639   0.681
 7688TIP3    H147043   4.229   0.615   0.666
 7688TIP3    H247044   4.361   0.612   0.595
 7689TIP3   OH247045   4.876   0.691   0.553
 7689TIP3    H147046   4.837   0.774   0.518
 7689TIP3    H247047   4.946   0.673   0.488
 7690TIP3   OH247048   4.780   0.712   1.699
 7690TIP3    H147049   4.729   0.634   1.730
 7690TIP3    H247050   4.864   0.700   1.747
 7691TIP3   OH247051   4.980   0.641   0.841
 7691TIP3    H147052   4.950   0.697   0.768
 7691TIP3    H247053   4.988   0.555   0.795
 7692TIP3   OH247054   4.089   0.654   1.360
 7692TIP3    H147055   4.100   0.694   1.448
 7692TIP3    H247056   4.045   0.570   1.381
 7693TIP3   OH247057   4.430   0.305   0.058
 7693TIP3    H147058   4.392   0.321   0.146
 7693TIP3    H247059   4.374   0.374   0.018
 7694TIP3   OH247060   3.758   0.372   0.760
 7694TIP3    H147061   3.824   0.366   0.831
 7694TIP3    H247062   3.800   0.330   0.684
 7695TIP3   OH247063   3.882   0.441   0.297
 7695TIP3    H147064   3.933   0.501   0.239
 7695TIP3    H247065   3.813   0.503   0.330
 7696TIP3   OH247066   4.898   0.798   1.295
 7696TIP3    H147067   4.937   0.728   1.238
 7696TIP3    H247068   4.851   0.745   1.362
 7697TIP3   OH247069   4.581   0.400   0.780
 7697TIP3    H147070   4.488   0.393   0.807
 7697TIP3    H247071   4.628   0.378   0.862
 7698TIP3   OH247072   4.059   0.551   0.668
 7698TIP3    H147073   3.972   0.565   0.627
 7698TIP3    H247074   4.088   0.467   0.627
 7699TIP3   OH247075   4.423   0.557   0.434
 7699TIP3    H147076   4.519   0.565   0.447
 7699TIP3    H247077   4.400   0.622   0.365
 7700TIP3   OH247078   5.022   0.322   1.099
 7700TIP3    H147079   4.954   0.323   1.170
 7700TIP3    H247080   4.972   0.289   1.024
 7701TIP3   OH247081   4.289   0.684   0.193
 7701TIP3    H147082   4.243   0.634   0.124
 7701TIP3    H247083   4.374   0.691   0.147
 7702TIP3   OH247084   5.339   1.880   1.736
 7702TIP3    H147085   5.366   1.921   1.652
 7702TIP3    H247086   5.410   1.914   1.793
 7703TIP3   OH247087   4.106   1.139   1.694
 7703TIP3    H147088   4.180   1.153   1.756
 7703TIP3    H247089   4.029   1.136   1.754
 7704TIP3   OH247090   4.707   0.672   0.969
 7704TIP3    H147091   4.767   0.619   0.916
 7704TIP3    H247092   4.692   0.617   1.047
 7705TIP3   OH247093   4.206   0.285   0.614
 7705TIP3    H147094   4.176   0.194   0.613
 7705TIP3    H247095   4.285   0.277   0.558
 7706TIP3   OH247096   4.570   0.504   1.211
 7706TIP3    H147097   4.489   0.558   1.219
 7706TIP3    H247098   4.627   0.540   1.282
 7707TIP3   OH247099   4.630   1.123   0.382
 7707TIP3    H147100   4.550   1.079   0.347
 7707TIP3    H247101   4.605   1.139   0.475
 7708TIP3   OH247102   5.348   1.053   1.263
 7708TIP3    H147103   5.406   1.094   1.196
 7708TIP3    H247104   5.264   1.048   1.213
 7709TIP3   OH247105   5.015   0.415   0.182
 7709TIP3    H147106   4.918   0.421   0.186
 7709TIP3    H247107   5.048   0.490   0.237
 7710TIP3   OH247108   4.785   1.156   1.507
 7710TIP3    H147109   4.743   1.109   1.581
 7710TIP3    H247110   4.749   1.245   1.516
 7711TIP3   OH247111   5.084   0.599   0.366
 7711TIP3    H147112   5.174   0.584   0.400
 7711TIP3    H247113   5.097   0.679   0.313
 7712TIP3   OH247114   4.142   1.067   0.961
 7712TIP3    H147115   4.208   1.058   0.891
 7712TIP3    H247116   4.147   0.981   1.006
 7713TIP3   OH247117   4.840   1.273   0.285
 7713TIP3    H147118   4.804   1.358   0.317
 7713TIP3    H247119   4.766   1.211   0.305
 7714TIP3   OH247120   3.839   0.906   1.487
 7714TIP3    H147121   3.856   0.861   1.572
 7714TIP3    H247122   3.778   0.846   1.442
 7715TIP3   OH247123   4.540   0.862   1.704
 7715TIP3    H147124   4.508   0.830   1.618
 7715TIP3    H247125   4.632   0.829   1.704
 7716TIP3   OH247126   5.003   1.399   1.500
 7716TIP3    H147127   4.910   1.414   1.473
 7716TIP3    H247128   4.991   1.430   1.593
 7717TIP3   OH247129   5.577   0.617   0.339
 7717TIP3    H147130   5.519   0.584   0.268
 7717TIP3    H247131   5.580   0.711   0.311
 7718TIP3   OH247132   5.576   1.198   1.618
 7718TIP3    H147133   5.488   1.220   1.580
 7718TIP3    H247134   5.633   1.193   1.537
 7719TIP3   OH247135   5.411   1.495   0.379
 7719TIP3    H147136   5.369   1.413   0.410
 7719TIP3    H247137   5.434   1.477   0.286
 7720TIP3   OH247138   5.127   0.979   1.090
 7720TIP3    H147139   5.033   0.959   1.077
 7720TIP3    H247140   5.170   0.903   1.045
 7721TIP3   OH247141   4.378   1.411   0.699
 7721TIP3    H147142   4.428   1.492   0.679
 7721TIP3    H247143   4.290   1.434   0.666
 7722TIP3   OH247144   3.953   0.898   0.149
 7722TIP3    H147145   4.013   0.956   0.199
 7722TIP3    H247146   3.866   0.926   0.183
 7723TIP3   OH247147   4.519   1.178   0.651
 7723TIP3    H147148   4.487   1.270   0.659
 7723TIP3    H247149   4.448   1.128   0.695
 7724TIP3   OH247150   4.564   1.597   1.293
 7724TIP3    H147151   4.611   1.676   1.263
 7724TIP3    H247152   4.627   1.562   1.359
 7725TIP3   OH247153   4.387   1.676   0.605
 7725TIP3    H147154   4.290   1.691   0.617
 7725TIP3    H247155   4.424   1.761   0.636
 7726TIP3   OH247156   4.922   1.199   1.256
 7726TIP3    H147157   4.882   1.174   1.342
 7726TIP3    H247158   4.977   1.122   1.233
 7727TIP3   OH247159   5.145   1.300   0.163
 7727TIP3    H147160   5.181   1.257   0.242
 7727TIP3    H247161   5.051   1.283   0.177
 7728TIP3   OH247162   5.199   1.646   1.499
 7728TIP3    H147163   5.123   1.611   1.449
 7728TIP3    H247164   5.218   1.724   1.440
 7729TIP3   OH247165   5.598   1.741   0.188
 7729TIP3    H147166   5.668   1.804   0.169
 7729TIP3    H247167   5.525   1.802   0.215
 7730TIP3   OH247168   4.005   0.380   1.442
 7730TIP3    H147169   3.914   0.414   1.438
 7730TIP3    H247170   3.992   0.294   1.485
 7731TIP3   OH247171   5.228   1.167   0.392
 7731TIP3    H147172   5.204   1.087   0.442
 7731TIP3    H247173   5.325   1.169   0.404
 7732TIP3   OH247174   3.966   1.557   1.282
 7732TIP3    H147175   3.998   1.465   1.285
 7732TIP3    H247176   3.991   1.588   1.369
 7733TIP3   OH247177   4.438   1.366   0.258
 7733TIP3    H147178   4.472   1.313   0.332
 7733TIP3    H247179   4.450   1.458   0.290
 7734TIP3   OH247180   4.092   1.088   0.303
 7734TIP3    H147181   4.023   1.128   0.360
 7734TIP3    H247182   4.147   1.165   0.280
 7735TIP3   OH247183   4.879   0.356   1.339
 7735TIP3    H147184   4.951   0.359   1.403
 7735TIP3    H247185   4.843   0.267   1.356
 7736TIP3   OH247186   4.960   0.309   0.450
 7736TIP3    H147187   4.976   0.362   0.371
 7736TIP3    H247188   5.009   0.362   0.516
 7737TIP3   OH247189   4.718   1.528   0.324
 7737TIP3    H147190   4.639   1.584   0.340
 7737TIP3    H247191   4.775   1.583   0.269
 7738TIP3   OH247192   4.675   0.489   0.529
 7738TIP3    H147193   4.753   0.548   0.533
 7738TIP3    H247194   4.648   0.478   0.623
 7739TIP3   OH247195   4.731   0.591   1.449
 7739TIP3    H147196   4.739   0.646   1.529
 7739TIP3    H247197   4.797   0.521   1.458
 7740TIP3   OH247198   4.764   0.195   0.622
 7740TIP3    H147199   4.728   0.264   0.681
 7740TIP3    H247200   4.829   0.250   0.572
 7741TIP3   OH247201   4.459   1.636   0.333
 7741TIP3    H147202   4.475   1.717   0.280
 7741TIP3    H247203   4.432   1.670   0.420
 7742TIP3   OH247204   4.321   0.304   0.299
 7742TIP3    H147205   4.322   0.398   0.325
 7742TIP3    H247206   4.415   0.280   0.311
 7743TIP3   OH247207   5.347   0.383   1.531
 7743TIP3    H147208   5.254   0.412   1.518
 7743TIP3    H247209   5.377   0.373   1.439
 7744TIP3   OH247210   5.209   0.757   0.932
 7744TIP3    H147211   5.127   0.712   0.905
 7744TIP3    H247212   5.257   0.689   0.984
 7745TIP3   OH247213   4.153   1.348   0.193
 7745TIP3    H147214   4.218   1.411   0.226
 7745TIP3    H247215   4.202   1.304   0.122
 7746TIP3   OH247216   3.983   0.618   0.108
 7746TIP3    H147217   3.985   0.714   0.126
 7746TIP3    H247218   3.895   0.600   0.075
 7747TIP3   OH247219   5.317   1.683   1.101
 7747TIP3    H147220   5.307   1.750   1.030
 7747TIP3    H247221   5.413   1.689   1.116
 7748TIP3   OH247222   4.053   0.120   0.968
 7748TIP3    H147223   4.036   0.106   0.871
 7748TIP3    H247224   4.031   0.032   1.002
 7749TIP3   OH247225   3.960   1.488   0.596
 7749TIP3    H147226   3.874   1.531   0.590
 7749TIP3    H247227   4.007   1.532   0.523
 7750TIP3   OH247228   3.881   1.752   1.720
 7750TIP3    H147229   3.937   1.734   1.797
 7750TIP3    H247230   3.838   1.665   1.705
 7751TIP3   OH247231   4.359   1.641   1.884
 7751TIP3    H147232   4.441   1.598   1.916
 7751TIP3    H247233   4.367   1.625   1.787
 7752TIP3   OH247234   4.770   1.606   0.052
 7752TIP3    H147235   4.699   1.542   0.068
 7752TIP3    H247236   4.839   1.556   0.008
 7753TIP3   OH247237   5.013   1.472   1.751
 7753TIP3    H147238   4.965   1.396   1.792
 7753TIP3    H247239   5.075   1.497   1.823
 7754TIP3   OH247240   5.242   1.564   0.100
 7754TIP3    H147241   5.253   1.468   0.097
 7754TIP3    H247242   5.274   1.594   0.013
 7755TIP3   OH247243   3.873   1.131   1.823
 7755TIP3    H147244   3.887   1.039   1.795
 7755TIP3    H247245   3.797   1.155   1.766
 7756TIP3   OH247246   4.293   1.147   0.026
 7756TIP3    H147247   4.324   1.080   0.089
 7756TIP3    H247248   4.370   1.153  -0.032
 7757TIP3   OH247249   4.542   1.131   1.761
 7757TIP3    H147250   4.512   1.160   1.673
 7757TIP3    H247251   4.550   1.033   1.751
 7758TIP3   OH247252   5.113   1.115   1.510
 7758TIP3    H147253   5.194   1.162   1.485
 7758TIP3    H247254   5.039   1.178   1.500
 7759TIP3   OH247255   3.970   0.855   1.763
 7759TIP3    H147256   4.002   0.766   1.750
 7759TIP3    H247257   3.940   0.855   1.855
 7760TIP3   OH247258   4.429   0.969   0.267
 7760TIP3    H147259   4.379   0.914   0.329
 7760TIP3    H247260   4.461   0.900   0.203
 7761TIP3   OH247261   4.354   0.746   1.496
 7761TIP3    H147262   4.295   0.819   1.521
 7761TIP3    H247263   4.395   0.783   1.416
 7762TIP3   OH247264   4.538   0.792   0.094
 7762TIP3    H147265   4.516   0.777  -0.000
 7762TIP3    H247266   4.635   0.798   0.097
 7763TIP3   OH247267   4.862   1.005   1.830
 7763TIP3    H147268   4.958   1.000   1.818
 7763TIP3    H247269   4.844   0.927   1.886
 7764TIP3   OH247270   5.467   1.018  11.013
 7764TIP3    H147271   5.451   0.980  10.927
 7764TIP3    H247272   5.473   1.113  10.992
 7765TIP3   OH247273   4.394   0.489   1.600
 7765TIP3    H147274   4.409   0.418   1.535
 7765TIP3    H247275   4.392   0.569   1.544
 7766TIP3   OH247276   4.437   0.324   1.357
 7766TIP3    H147277   4.487   0.371   1.286
 7766TIP3    H247278   4.347   0.316   1.318
 7767TIP3   OH247279   4.589   0.873   1.382
 7767TIP3    H147280   4.664   0.855   1.325
 7767TIP3    H247281   4.552   0.955   1.347
 7768TIP3   OH247282   5.028   0.646   1.876
 7768TIP3    H147283   5.052   0.552   1.868
 7768TIP3    H247284   5.115   0.691   1.881
 7769TIP3   OH247285   5.165   0.929   1.697
 7769TIP3    H147286   5.138   0.997   1.632
 7769TIP3    H247287   5.260   0.921   1.676
 7770TIP3   OH247288   4.242   0.598   1.805
 7770TIP3    H147289   4.163   0.553   1.767
 7770TIP3    H247290   4.307   0.576   1.734
 7771TIP3   OH247291   4.505   0.075   1.400
 7771TIP3    H147292   4.496   0.173   1.387
 7771TIP3    H247293   4.432   0.039   1.350
 7772TIP3   OH247294   4.641   0.501   1.759
 7772TIP3    H147295   4.613   0.474   1.848
 7772TIP3    H247296   4.563   0.477   1.705
 7773TIP3   OH247297   4.913   0.421   1.671
 7773TIP3    H147298   4.816   0.417   1.679
 7773TIP3    H247299   4.942   0.353   1.735
 7774TIP3   OH247300   5.070   0.285   1.857
 7774TIP3    H147301   5.070   0.186   1.855
 7774TIP3    H247302   5.046   0.303   1.949
 7775TIP3   OH247303   4.054   0.404   1.774
 7775TIP3    H147304   4.072   0.333   1.710
 7775TIP3    H247305   4.035   0.352   1.855
 7776TIP3   OH247306   4.540   8.137   1.645
 7776TIP3    H147307   4.613   8.073   1.649
 7776TIP3    H247308   4.525   8.130   1.548
 7777TIP3   OH247309   4.568   0.172   1.878
 7777TIP3    H147310   4.559   0.125   1.792
 7777TIP3    H247311   4.512   0.249   1.865
 7778TIP3   OH247312   4.519   1.863   0.199
 7778TIP3    H147313   4.616   1.869   0.203
 7778TIP3    H247314   4.498   1.923   0.126
 7779TIP3   OH247315   3.881   1.314   0.144
 7779TIP3    H147316   3.977   1.327   0.162
 7779TIP3    H247317   3.883   1.257   0.067
 7780TIP3   OH247318   3.752   1.854   0.639
 7780TIP3    H147319   3.680   1.805   0.593
 7780TIP3    H247320   3.780   1.789   0.706
 7781TIP3   OH247321   3.834   1.668   0.827
 7781TIP3    H147322   3.799   1.580   0.847
 7781TIP3    H247323   3.857   1.701   0.916
 7782TIP3   OH247324   5.589   1.748   1.119
 7782TIP3    H147325   5.592   1.763   1.215
 7782TIP3    H247326   5.659   1.806   1.089
 7783TIP3   OH247327   5.541   1.707   1.417
 7783TIP3    H147328   5.501   1.630   1.374
 7783TIP3    H247329   5.595   1.663   1.485
 7784TIP3   OH247330   5.386   1.283   1.875
 7784TIP3    H147331   5.300   1.276   1.921
 7784TIP3    H247332   5.428   1.357   1.923
 7785TIP3   OH247333   5.525   1.109   0.422
 7785TIP3    H147334   5.608   1.153   0.446
 7785TIP3    H247335   5.517   1.042   0.493
 7786TIP3   OH247336   5.561   0.915   0.613
 7786TIP3    H147337   5.480   0.872   0.650
 7786TIP3    H247338   5.614   0.934   0.692
 7787TIP3   OH247339   5.533   1.189   1.114
 7787TIP3    H147340   5.613   1.150   1.074
 7787TIP3    H247341   5.548   1.284   1.094
 7788TIP3   OH247342   5.385   1.471   1.344
 7788TIP3    H147343   5.320   1.527   1.389
 7788TIP3    H247344   5.336   1.443   1.263
 7789TIP3   OH247345   5.588   0.903   0.248
 7789TIP3    H147346   5.527   0.936   0.178
 7789TIP3    H247347   5.573   0.972   0.315
 7790TIP3   OH247348   5.425   0.629   0.102
 7790TIP3    H147349   5.425   0.695   0.032
 7790TIP3    H247350   5.403   0.545   0.058
 7791TIP3   OH247351   5.340   0.768   0.671
 7791TIP3    H147352   5.325   0.672   0.665
 7791TIP3    H247353   5.307   0.788   0.761
 7792TIP3   OH247354   3.841   0.976   1.077
 7792TIP3    H147355   3.858   0.968   0.980
 7792TIP3    H247356   3.930   0.957   1.111
 7793TIP3   OH247357   5.426   0.966   1.638
 7793TIP3    H147358   5.485   0.888   1.652
 7793TIP3    H247359   5.490   1.040   1.640
 7794TIP3   OH247360   5.576   0.752   1.704
 7794TIP3    H147361   5.488   0.712   1.689
 7794TIP3    H247362   5.633   0.672   1.697
 7795TIP3   OH247363   5.327   0.358   0.125
 7795TIP3    H147364   5.413   0.328   0.093
 7795TIP3    H247365   5.272   0.330   0.052
 7796TIP3   OH247366   5.303   0.531   0.515
 7796TIP3    H147367   5.332   0.437   0.524
 7796TIP3    H247368   5.384   0.568   0.477
 7797TIP3   OH247369   5.370   0.582   1.059
 7797TIP3    H147370   5.466   0.604   1.060
 7797TIP3    H247371   5.351   0.590   1.154
 7798TIP3   OH247372   5.376   0.654   1.337
 7798TIP3    H147373   5.288   0.682   1.370
 7798TIP3    H247374   5.420   0.740   1.316
 7799TIP3   OH247375   3.805   0.509   1.697
 7799TIP3    H147376   3.897   0.479   1.707
 7799TIP3    H247377   3.755   0.426   1.716
 7800TIP3   OH247378   5.617   0.068   1.888
 7800TIP3    H147379   5.630   0.001   1.819
 7800TIP3    H247380   5.610   0.144   1.828
 7801TIP3   OH247381   5.368   0.261   0.522
 7801TIP3    H147382   5.390   0.212   0.603
 7801TIP3    H247383   5.311   0.196   0.475
 7802TIP3   OH247384   3.917   0.342   0.978
 7802TIP3    H147385   3.963   0.258   1.000
 7802TIP3    H247386   3.977   0.406   1.015
 7803TIP3   OH247387   3.750   0.636   1.080
 7803TIP3    H147388   3.807   0.609   1.004
 7803TIP3    H247389   3.797   0.716   1.106
 7804TIP3   OH247390   5.559   0.273   1.705
 7804TIP3    H147391   5.464   0.294   1.702
 7804TIP3    H247392   5.558   0.211   1.630
 7805TIP3   OH247393   5.567   0.251   0.181
 7805TIP3    H147394   5.603   0.187   0.119
 7805TIP3    H247395   5.631   0.323   0.185
 7806TIP3   OH247396   3.783   0.257   0.490
 7806TIP3    H147397   3.691   0.282   0.473
 7806TIP3    H247398   3.830   0.308   0.421
 7807TIP3   OH247399   5.259   1.757   0.682
 7807TIP3    H147400   5.327   1.726   0.619
 7807TIP3    H247401   5.311   1.805   0.747
 7808TIP3   OH247402   3.789   0.137   1.314
 7808TIP3    H147403   3.726   0.119   1.384
 7808TIP3    H247404   3.740   0.201   1.258
 7809TIP3   OH247405   4.006   1.453   1.740
 7809TIP3    H147406   3.925   1.465   1.686
 7809TIP3    H247407   3.966   1.427   1.823
 7810TIP3   OH247408   4.297   1.548   1.365
 7810TIP3    H147409   4.264   1.633   1.333
 7810TIP3    H247410   4.388   1.554   1.329
 7811TIP3   OH247411   4.729   1.687   1.649
 7811TIP3    H147412   4.739   1.656   1.742
 7811TIP3    H247413   4.818   1.722   1.627
 7812TIP3   OH247414   4.956   1.814   1.584
 7812TIP3    H147415   5.031   1.761   1.559
 7812TIP3    H247416   4.992   1.862   1.662
 7813TIP3   OH247417   5.447   0.099   1.495
 7813TIP3    H147418   5.360   0.118   1.458
 7813TIP3    H247419   5.455   0.005   1.474
 7814TIP3   OH247420   4.037   1.871   1.358
 7814TIP3    H147421   3.965   1.921   1.318
 7814TIP3    H247422   4.006   1.855   1.448
 7815TIP3   OH247423   4.285   1.827   1.267
 7815TIP3    H147424   4.195   1.843   1.306
 7815TIP3    H247425   4.280   1.887   1.190
 7816TIP3   OH247426   4.756   1.819   1.183
 7816TIP3    H147427   4.709   1.875   1.119
 7816TIP3    H247428   4.768   1.882   1.258
 7817TIP3   OH247429   4.983   1.697   1.290
 7817TIP3    H147430   4.899   1.727   1.250
 7817TIP3    H247431   5.033   1.780   1.278
 7818TIP3   OH247432   5.242   1.854   1.310
 7818TIP3    H147433   5.238   1.950   1.288
 7818TIP3    H247434   5.265   1.819   1.221
 7819TIP3   OH247435   3.985   1.735   1.054
 7819TIP3    H147436   3.977   1.688   1.140
 7819TIP3    H247437   4.067   1.696   1.015
 7820TIP3   OH247438   4.192   1.606   0.920
 7820TIP3    H147439   4.176   1.513   0.944
 7820TIP3    H247440   4.278   1.622   0.965
 7821TIP3   OH247441   4.455   1.655   1.008
 7821TIP3    H147442   4.468   1.562   0.982
 7821TIP3    H247443   4.457   1.649   1.105
 7822TIP3   OH247444   4.793   0.227   0.917
 7822TIP3    H147445   4.732   0.158   0.949
 7822TIP3    H247446   4.855   0.171   0.867
 7823TIP3   OH247447   5.315   0.054   0.945
 7823TIP3    H147448   5.371   0.091   0.874
 7823TIP3    H247449   5.225   0.057   0.906
 7824TIP3   OH247450   5.489   0.150   0.764
 7824TIP3    H147451   5.529   0.093   0.696
 7824TIP3    H247452   5.521   0.242   0.756
 7825TIP3   OH247453   4.027   0.080   0.708
 7825TIP3    H147454   3.954   0.065   0.648
 7825TIP3    H247455   4.078  -0.001   0.697
 7826TIP3   OH247456   3.936   0.103   0.296
 7826TIP3    H147457   3.957   0.154   0.215
 7826TIP3    H247458   3.849   0.136   0.326
 7827TIP3   OH247459   4.476   0.088   0.684
 7827TIP3    H147460   4.569   0.114   0.675
 7827TIP3    H247461   4.482   0.054   0.774
 7828TIP3   OH247462   5.051   0.079   0.850
 7828TIP3    H147463   5.048   0.086   0.754
 7828TIP3    H247464   5.018  -0.012   0.861
 7829TIP3   OH247465   5.165   0.093   0.383
 7829TIP3    H147466   5.093   0.155   0.400
 7829TIP3    H247467   5.138   0.013   0.431
 7830TIP3   OH247468   3.904   1.654   0.376
 7830TIP3    H147469   3.832   1.655   0.311
 7830TIP3    H247470   3.906   1.748   0.397
 7831TIP3   OH247471   4.093   0.249   0.125
 7831TIP3    H147472   4.152   0.189   0.078
 7831TIP3    H247473   4.157   0.281   0.191
 7832TIP3   OH247474   4.596   0.281   0.366
 7832TIP3    H147475   4.623   0.220   0.437
 7832TIP3    H247476   4.604   0.364   0.416
 7833TIP3   OH247477   4.787   1.797   0.217
 7833TIP3    H147478   4.883   1.806   0.201
 7833TIP3    H247479   4.769   1.737   0.141
 7834TIP3   OH247480   5.459   1.736   0.485
 7834TIP3    H147481   5.439   1.656   0.430
 7834TIP3    H247482   5.451   1.809   0.419
 7835TIP3   OH247483   4.025   0.141   1.653
 7835TIP3    H147484   3.986   0.061   1.689
 7835TIP3    H247485   4.116   0.131   1.684
 7836TIP3   OH247486   4.226   0.082   1.826
 7836TIP3    H147487   4.312   0.051   1.791
 7836TIP3    H247488   4.182  -0.003   1.844
 7837TIP3   OH247489   4.082   1.744   0.073
 7837TIP3    H147490   4.054   1.779   0.159
 7837TIP3    H247491   4.162   1.696   0.093
 7838TIP3   OH247492   5.075   8.105   1.836
 7838TIP3    H147493   5.075   8.039   1.905
 7838TIP3    H247494   5.158   8.084   1.790
 7839TIP3   OH247495   5.381   1.605   1.692
 7839TIP3    H147496   5.301   1.603   1.637
 7839TIP3    H247497   5.377   1.701   1.716
 7840TIP3   OH247498   6.833   0.998   0.686
 7840TIP3    H147499   6.826   1.096   0.692
 7840TIP3    H247500   6.753   0.971   0.639
 7841TIP3   OH247501   6.715   0.921   1.042
 7841TIP3    H147502   6.714   0.856   1.114
 7841TIP3    H247503   6.678   0.871   0.968
 7842TIP3   OH247504   5.948   0.890   1.197
 7842TIP3    H147505   5.956   0.819   1.264
 7842TIP3    H247506   6.024   0.946   1.217
 7843TIP3   OH247507   7.082   1.217   0.871
 7843TIP3    H147508   7.041   1.145   0.920
 7843TIP3    H247509   7.085   1.287   0.938
 7844TIP3   OH247510   6.042   1.332   1.052
 7844TIP3    H147511   6.011   1.248   1.013
 7844TIP3    H247512   6.138   1.317   1.047
 7845TIP3   OH247513   5.715   0.696   0.585
 7845TIP3    H147514   5.659   0.776   0.592
 7845TIP3    H247515   5.650   0.638   0.540
 7846TIP3   OH247516   5.775   0.909   0.806
 7846TIP3    H147517   5.804   0.832   0.858
 7846TIP3    H247518   5.850   0.934   0.752
 7847TIP3   OH247519   6.795   1.733   0.894
 7847TIP3    H147520   6.860   1.665   0.865
 7847TIP3    H247521   6.772   1.698   0.981
 7848TIP3   OH247522   6.553   1.160   1.092
 7848TIP3    H147523   6.585   1.101   1.023
 7848TIP3    H247524   6.637   1.178   1.139
 7849TIP3   OH247525   7.416   0.321   1.163
 7849TIP3    H147526   7.428   0.386   1.236
 7849TIP3    H247527   7.467   0.367   1.094
 7850TIP3   OH247528   6.868   0.607   1.122
 7850TIP3    H147529   6.885   0.511   1.121
 7850TIP3    H247530   6.858   0.622   1.026
 7851TIP3   OH247531   6.176   0.417   0.842
 7851TIP3    H147532   6.194   0.500   0.794
 7851TIP3    H247533   6.143   0.359   0.771
 7852TIP3   OH247534   6.957   0.420   0.674
 7852TIP3    H147535   7.016   0.394   0.749
 7852TIP3    H247536   7.013   0.483   0.628
 7853TIP3   OH247537   5.841   0.659   0.913
 7853TIP3    H147538   5.907   0.607   0.964
 7853TIP3    H247539   5.854   0.624   0.825
 7854TIP3   OH247540   6.356   0.814   0.848
 7854TIP3    H147541   6.426   0.758   0.887
 7854TIP3    H247542   6.308   0.748   0.796
 7855TIP3   OH247543   7.459   0.472   1.388
 7855TIP3    H147544   7.394   0.545   1.378
 7855TIP3    H247545   7.458   0.457   1.484
 7856TIP3   OH247546   6.069   0.310   1.240
 7856TIP3    H147547   6.042   0.372   1.170
 7856TIP3    H247548   6.003   0.331   1.312
 7857TIP3   OH247549   6.796   1.255   0.601
 7857TIP3    H147550   6.770   1.236   0.512
 7857TIP3    H247551   6.771   1.350   0.609
 7858TIP3   OH247552   6.328   1.083   1.242
 7858TIP3    H147553   6.258   1.149   1.253
 7858TIP3    H247554   6.406   1.139   1.223
 7859TIP3   OH247555   7.134   0.365   0.879
 7859TIP3    H147556   7.111   0.285   0.930
 7859TIP3    H247557   7.203   0.404   0.935
 7860TIP3   OH247558   6.025   0.500   1.044
 7860TIP3    H147559   6.091   0.562   1.082
 7860TIP3    H247560   6.081   0.453   0.976
 7861TIP3   OH247561   6.169   1.268   1.353
 7861TIP3    H147562   6.165   1.360   1.316
 7861TIP3    H247563   6.077   1.267   1.393
 7862TIP3   OH247564   5.775   1.230   0.429
 7862TIP3    H147565   5.751   1.267   0.341
 7862TIP3    H247566   5.781   1.313   0.482
 7863TIP3   OH247567   7.136   1.401   1.107
 7863TIP3    H147568   7.039   1.413   1.118
 7863TIP3    H247569   7.162   1.492   1.086
 7864TIP3   OH247570   7.171   0.235   1.258
 7864TIP3    H147571   7.095   0.292   1.235
 7864TIP3    H247572   7.238   0.264   1.193
 7865TIP3   OH247573   6.455   0.051   0.956
 7865TIP3    H147574   6.465  -0.039   0.992
 7865TIP3    H247575   6.383   0.080   1.013
 7866TIP3   OH247576   6.963   1.578   0.768
 7866TIP3    H147577   7.003   1.507   0.715
 7866TIP3    H247578   7.007   1.657   0.729
 7867TIP3   OH247579   7.081   1.371   0.619
 7867TIP3    H147580   7.057   1.302   0.556
 7867TIP3    H247581   7.087   1.322   0.703
 7868TIP3   OH247582   7.244   1.232   1.467
 7868TIP3    H147583   7.258   1.165   1.396
 7868TIP3    H247584   7.266   1.315   1.421
 7869TIP3   OH247585   6.691   0.907   0.450
 7869TIP3    H147586   6.611   0.950   0.414
 7869TIP3    H247587   6.762   0.899   0.383
 7870TIP3   OH247588   6.705   0.779   0.146
 7870TIP3    H147589   6.776   0.774   0.212
 7870TIP3    H247590   6.726   0.704   0.089
 7871TIP3   OH247591   7.433   0.863   1.271
 7871TIP3    H147592   7.367   0.935   1.274
 7871TIP3    H247593   7.483   0.887   1.190
 7872TIP3   OH247594   7.035   0.934   0.534
 7872TIP3    H147595   6.968   0.966   0.600
 7872TIP3    H247596   7.090   0.876   0.591
 7873TIP3   OH247597   7.032   0.757   1.449
 7873TIP3    H147598   7.032   0.840   1.500
 7873TIP3    H247599   6.970   0.785   1.379
 7874TIP3   OH247600   6.196   1.005   0.728
 7874TIP3    H147601   6.177   0.973   0.637
 7874TIP3    H247602   6.264   0.941   0.762
 7875TIP3   OH247603   6.330   1.341   0.998
 7875TIP3    H147604   6.332   1.296   0.912
 7875TIP3    H247605   6.412   1.310   1.038
 7876TIP3   OH247606   6.233   0.879   1.096
 7876TIP3    H147607   6.285   0.887   1.013
 7876TIP3    H247608   6.275   0.950   1.149
 7877TIP3   OH247609   6.876   1.439   1.166
 7877TIP3    H147610   6.847   1.503   1.231
 7877TIP3    H247611   6.849   1.354   1.206
 7878TIP3   OH247612   6.323   1.317   1.563
 7878TIP3    H147613   6.291   1.395   1.614
 7878TIP3    H247614   6.258   1.318   1.489
 7879TIP3   OH247615   6.921   0.873   0.303
 7879TIP3    H147616   6.982   0.882   0.381
 7879TIP3    H247617   6.975   0.912   0.229
 7880TIP3   OH247618   6.030   0.956   1.473
 7880TIP3    H147619   6.020   1.007   1.555
 7880TIP3    H247620   5.933   0.943   1.457
 7881TIP3   OH247621   6.700   1.532   0.644
 7881TIP3    H147622   6.740   1.562   0.726
 7881TIP3    H247623   6.643   1.607   0.623
 7882TIP3   OH247624   6.155   1.522   1.636
 7882TIP3    H147625   6.145   1.522   1.540
 7882TIP3    H247626   6.061   1.515   1.665
 7883TIP3   OH247627   7.306   0.046   0.300
 7883TIP3    H147628   7.208   0.041   0.309
 7883TIP3    H247629   7.321   0.122   0.242
 7884TIP3   OH247630   6.104   0.919   0.478
 7884TIP3    H147631   6.079   1.003   0.432
 7884TIP3    H247632   6.064   0.853   0.421
 7885TIP3   OH247633   7.413   1.468   0.129
 7885TIP3    H147634   7.427   1.563   0.146
 7885TIP3    H247635   7.505   1.436   0.125
 7886TIP3   OH247636   5.706   1.153   1.381
 7886TIP3    H147637   5.664   1.144   1.293
 7886TIP3    H247638   5.713   1.058   1.402
 7887TIP3   OH247639   5.681   1.426   1.056
 7887TIP3    H147640   5.777   1.414   1.055
 7887TIP3    H247641   5.672   1.508   1.105
 7888TIP3   OH247642   7.506   1.497   1.626
 7888TIP3    H147643   7.494   1.401   1.622
 7888TIP3    H247644   7.419   1.521   1.664
 7889TIP3   OH247645   6.600   1.449   1.511
 7889TIP3    H147646   6.607   1.533   1.561
 7889TIP3    H247647   6.514   1.414   1.538
 7890TIP3   OH247648   6.645   1.825   0.492
 7890TIP3    H147649   6.636   1.820   0.396
 7890TIP3    H247650   6.649   1.921   0.509
 7891TIP3   OH247651   6.010   1.712   0.672
 7891TIP3    H147652   6.025   1.672   0.761
 7891TIP3    H247653   5.925   1.671   0.649
 7892TIP3   OH247654   6.946   1.741   0.196
 7892TIP3    H147655   7.001   1.672   0.152
 7892TIP3    H247656   6.958   1.715   0.289
 7893TIP3   OH247657   6.920   1.739   0.468
 7893TIP3    H147658   6.824   1.747   0.486
 7893TIP3    H247659   6.944   1.665   0.525
 7894TIP3   OH247660   7.220   0.645   1.673
 7894TIP3    H147661   7.172   0.689   1.600
 7894TIP3    H247662   7.219   0.553   1.643
 7895TIP3   OH247663   5.939   1.279   1.471
 7895TIP3    H147664   5.954   1.250   1.564
 7895TIP3    H247665   5.849   1.247   1.451
 7896TIP3   OH247666   6.205   0.135   1.062
 7896TIP3    H147667   6.117   0.132   1.023
 7896TIP3    H247668   6.192   0.212   1.120
 7897TIP3   OH247669   6.669   0.102   1.408
 7897TIP3    H147670   6.709   0.055   1.481
 7897TIP3    H247671   6.574   0.086   1.420
 7898TIP3   OH247672   6.994   0.478   1.489
 7898TIP3    H147673   6.940   0.462   1.571
 7898TIP3    H247674   6.981   0.572   1.470
 7899TIP3   OH247675   7.078   0.948   0.091
 7899TIP3    H147676   7.066   0.959  -0.005
 7899TIP3    H247677   7.156   1.006   0.096
 7900TIP3   OH247678   6.641   0.355   0.144
 7900TIP3    H147679   6.595   0.348   0.229
 7900TIP3    H247680   6.601   0.275   0.106
 7901TIP3   OH247681   6.213   0.630   1.196
 7901TIP3    H147682   6.136   0.627   1.256
 7901TIP3    H247683   6.207   0.718   1.153
 7902TIP3   OH247684   6.200   0.649   0.675
 7902TIP3    H147685   6.115   0.604   0.668
 7902TIP3    H247686   6.249   0.611   0.598
 7903TIP3   OH247687   6.763   0.686   0.559
 7903TIP3    H147688   6.719   0.768   0.525
 7903TIP3    H247689   6.829   0.670   0.490
 7904TIP3   OH247690   6.666   0.712   1.700
 7904TIP3    H147691   6.615   0.634   1.731
 7904TIP3    H247692   6.750   0.701   1.746
 7905TIP3   OH247693   6.867   0.640   0.843
 7905TIP3    H147694   6.835   0.696   0.770
 7905TIP3    H247695   6.872   0.555   0.797
 7906TIP3   OH247696   5.975   0.655   1.361
 7906TIP3    H147697   5.982   0.691   1.450
 7906TIP3    H247698   5.931   0.570   1.380
 7907TIP3   OH247699   6.316   0.306   0.058
 7907TIP3    H147700   6.277   0.321   0.146
 7907TIP3    H247701   6.259   0.374   0.018
 7908TIP3   OH247702   5.644   0.359   0.761
 7908TIP3    H147703   5.712   0.375   0.829
 7908TIP3    H247704   5.689   0.340   0.678
 7909TIP3   OH247705   5.772   0.444   0.302
 7909TIP3    H147706   5.817   0.501   0.237
 7909TIP3    H247707   5.696   0.500   0.327
 7910TIP3   OH247708   6.784   0.797   1.295
 7910TIP3    H147709   6.823   0.729   1.237
 7910TIP3    H247710   6.739   0.744   1.363
 7911TIP3   OH247711   6.464   0.400   0.780
 7911TIP3    H147712   6.371   0.393   0.809
 7911TIP3    H247713   6.513   0.378   0.861
 7912TIP3   OH247714   5.945   0.558   0.660
 7912TIP3    H147715   5.853   0.559   0.627
 7912TIP3    H247716   5.975   0.470   0.629
 7913TIP3   OH247717   6.306   0.562   0.439
 7913TIP3    H147718   6.404   0.562   0.447
 7913TIP3    H247719   6.288   0.620   0.362
 7914TIP3   OH247720   6.907   0.323   1.099
 7914TIP3    H147721   6.839   0.323   1.170
 7914TIP3    H247722   6.858   0.289   1.023
 7915TIP3   OH247723   6.173   0.685   0.194
 7915TIP3    H147724   6.129   0.634   0.124
 7915TIP3    H247725   6.259   0.691   0.148
 7916TIP3   OH247726   7.224   1.883   1.736
 7916TIP3    H147727   7.252   1.921   1.650
 7916TIP3    H247728   7.297   1.915   1.792
 7917TIP3   OH247729   5.996   1.128   1.694
 7917TIP3    H147730   6.064   1.156   1.758
 7917TIP3    H247731   5.917   1.136   1.752
 7918TIP3   OH247732   6.592   0.672   0.969
 7918TIP3    H147733   6.653   0.619   0.916
 7918TIP3    H247734   6.578   0.617   1.047
 7919TIP3   OH247735   6.089   0.286   0.613
 7919TIP3    H147736   6.064   0.194   0.611
 7919TIP3    H247737   6.170   0.279   0.559
 7920TIP3   OH247738   6.456   0.503   1.211
 7920TIP3    H147739   6.374   0.556   1.218
 7920TIP3    H247740   6.513   0.540   1.281
 7921TIP3   OH247741   6.517   1.121   0.385
 7921TIP3    H147742   6.434   1.081   0.347
 7921TIP3    H247743   6.483   1.141   0.476
 7922TIP3   OH247744   7.235   1.048   1.261
 7922TIP3    H147745   7.290   1.096   1.196
 7922TIP3    H247746   7.149   1.050   1.215
 7923TIP3   OH247747   6.904   0.418   0.189
 7923TIP3    H147748   6.806   0.413   0.183
 7923TIP3    H247749   6.917   0.502   0.236
 7924TIP3   OH247750   6.650   1.153   1.502
 7924TIP3    H147751   6.637   1.111   1.588
 7924TIP3    H247752   6.643   1.247   1.519
 7925TIP3   OH247753   6.949   0.610   0.369
 7925TIP3    H147754   7.018   0.606   0.439
 7925TIP3    H247755   6.965   0.692   0.319
 7926TIP3   OH247756   6.027   1.066   0.960
 7926TIP3    H147757   6.095   1.058   0.891
 7926TIP3    H247758   6.033   0.980   1.007
 7927TIP3   OH247759   6.719   1.285   0.282
 7927TIP3    H147760   6.690   1.374   0.314
 7927TIP3    H247761   6.634   1.237   0.292
 7928TIP3   OH247762   5.727   0.906   1.487
 7928TIP3    H147763   5.739   0.860   1.573
 7928TIP3    H247764   5.664   0.847   1.442
 7929TIP3   OH247765   6.428   0.867   1.700
 7929TIP3    H147766   6.396   0.823   1.620
 7929TIP3    H247767   6.518   0.829   1.706
 7930TIP3   OH247768   6.896   1.395   1.501
 7930TIP3    H147769   6.804   1.414   1.477
 7930TIP3    H247770   6.892   1.426   1.594
 7931TIP3   OH247771   7.452   0.617   0.343
 7931TIP3    H147772   7.410   0.585   0.261
 7931TIP3    H247773   7.471   0.709   0.315
 7932TIP3   OH247774   7.461   1.200   1.618
 7932TIP3    H147775   7.371   1.222   1.582
 7932TIP3    H247776   7.515   1.195   1.537
 7933TIP3   OH247777   7.297   1.495   0.380
 7933TIP3    H147778   7.255   1.414   0.410
 7933TIP3    H247779   7.319   1.477   0.286
 7934TIP3   OH247780   7.013   0.978   1.088
 7934TIP3    H147781   6.918   0.957   1.078
 7934TIP3    H247782   7.055   0.903   1.044
 7935TIP3   OH247783   6.264   1.412   0.700
 7935TIP3    H147784   6.313   1.493   0.679
 7935TIP3    H247785   6.176   1.434   0.666
 7936TIP3   OH247786   5.840   0.894   0.155
 7936TIP3    H147787   5.898   0.960   0.196
 7936TIP3    H247788   5.751   0.927   0.180
 7937TIP3   OH247789   6.403   1.179   0.645
 7937TIP3    H147790   6.372   1.271   0.657
 7937TIP3    H247791   6.336   1.130   0.697
 7938TIP3   OH247792   6.449   1.595   1.294
 7938TIP3    H147793   6.496   1.674   1.263
 7938TIP3    H247794   6.514   1.563   1.360
 7939TIP3   OH247795   6.273   1.676   0.604
 7939TIP3    H147796   6.176   1.691   0.617
 7939TIP3    H247797   6.310   1.760   0.636
 7940TIP3   OH247798   6.798   1.193   1.252
 7940TIP3    H147799   6.772   1.177   1.345
 7940TIP3    H247800   6.865   1.125   1.236
 7941TIP3   OH247801   7.030   1.300   0.162
 7941TIP3    H147802   7.069   1.259   0.242
 7941TIP3    H247803   6.936   1.285   0.177
 7942TIP3   OH247804   7.085   1.654   1.502
 7942TIP3    H147805   7.015   1.605   1.455
 7942TIP3    H247806   7.103   1.724   1.435
 7943TIP3   OH247807   7.484   1.740   0.188
 7943TIP3    H147808   7.555   1.804   0.169
 7943TIP3    H247809   7.411   1.801   0.215
 7944TIP3   OH247810   5.891   0.379   1.441
 7944TIP3    H147811   5.800   0.414   1.438
 7944TIP3    H247812   5.877   0.293   1.486
 7945TIP3   OH247813   7.111   1.167   0.393
 7945TIP3    H147814   7.093   1.087   0.444
 7945TIP3    H247815   7.208   1.171   0.403
 7946TIP3   OH247816   5.851   1.559   1.284
 7946TIP3    H147817   5.881   1.467   1.283
 7946TIP3    H247818   5.878   1.587   1.371
 7947TIP3   OH247819   6.329   1.365   0.258
 7947TIP3    H147820   6.353   1.315   0.336
 7947TIP3    H247821   6.334   1.458   0.289
 7948TIP3   OH247822   5.978   1.088   0.307
 7948TIP3    H147823   5.906   1.133   0.357
 7948TIP3    H247824   6.031   1.164   0.276
 7949TIP3   OH247825   6.763   0.357   1.340
 7949TIP3    H147826   6.836   0.360   1.403
 7949TIP3    H247827   6.728   0.267   1.356
 7950TIP3   OH247828   6.850   0.307   0.450
 7950TIP3    H147829   6.859   0.362   0.372
 7950TIP3    H247830   6.892   0.362   0.518
 7951TIP3   OH247831   6.604   1.526   0.323
 7951TIP3    H147832   6.526   1.583   0.340
 7951TIP3    H247833   6.660   1.584   0.270
 7952TIP3   OH247834   6.561   0.487   0.530
 7952TIP3    H147835   6.637   0.548   0.535
 7952TIP3    H247836   6.532   0.476   0.623
 7953TIP3   OH247837   6.617   0.596   1.447
 7953TIP3    H147838   6.627   0.646   1.531
 7953TIP3    H247839   6.679   0.522   1.455
 7954TIP3   OH247840   6.649   0.195   0.622
 7954TIP3    H147841   6.613   0.263   0.681
 7954TIP3    H247842   6.714   0.250   0.572
 7955TIP3   OH247843   6.344   1.635   0.333
 7955TIP3    H147844   6.360   1.717   0.280
 7955TIP3    H247845   6.318   1.670   0.421
 7956TIP3   OH247846   6.207   0.303   0.299
 7956TIP3    H147847   6.208   0.397   0.324
 7956TIP3    H247848   6.301   0.279   0.311
 7957TIP3   OH247849   7.233   0.383   1.531
 7957TIP3    H147850   7.140   0.411   1.517
 7957TIP3    H247851   7.263   0.373   1.439
 7958TIP3   OH247852   7.096   0.758   0.933
 7958TIP3    H147853   7.014   0.712   0.906
 7958TIP3    H247854   7.145   0.689   0.984
 7959TIP3   OH247855   6.039   1.346   0.195
 7959TIP3    H147856   6.103   1.411   0.226
 7959TIP3    H247857   6.087   1.304   0.122
 7960TIP3   OH247858   5.868   0.618   0.112
 7960TIP3    H147859   5.869   0.715   0.123
 7960TIP3    H247860   5.783   0.599   0.073
 7961TIP3   OH247861   7.202   1.684   1.099
 7961TIP3    H147862   7.194   1.751   1.029
 7961TIP3    H247863   7.298   1.689   1.117
 7962TIP3   OH247864   5.924   0.117   0.966
 7962TIP3    H147865   5.937   0.098   0.871
 7962TIP3    H247866   5.924   0.027   1.006
 7963TIP3   OH247867   5.847   1.488   0.595
 7963TIP3    H147868   5.761   1.531   0.590
 7963TIP3    H247869   5.893   1.533   0.523
 7964TIP3   OH247870   5.766   1.753   1.723
 7964TIP3    H147871   5.828   1.733   1.797
 7964TIP3    H247872   5.726   1.666   1.705
 7965TIP3   OH247873   6.236   1.645   1.883
 7965TIP3    H147874   6.311   1.594   1.917
 7965TIP3    H247875   6.233   1.616   1.790
 7966TIP3   OH247876   6.655   1.607   0.051
 7966TIP3    H147877   6.584   1.544   0.067
 7966TIP3    H247878   6.724   1.558   0.006
 7967TIP3   OH247879   6.885   1.483   1.759
 7967TIP3    H147880   6.853   1.394   1.788
 7967TIP3    H247881   6.962   1.495   1.818
 7968TIP3   OH247882   7.127   1.564   0.099
 7968TIP3    H147883   7.139   1.468   0.096
 7968TIP3    H247884   7.159   1.594   0.012
 7969TIP3   OH247885   5.758   1.129   1.823
 7969TIP3    H147886   5.772   1.037   1.795
 7969TIP3    H247887   5.685   1.155   1.765
 7970TIP3   OH247888   6.178   1.148   0.025
 7970TIP3    H147889   6.207   1.079   0.087
 7970TIP3    H247890   6.256   1.154  -0.032
 7971TIP3   OH247891   6.428   1.129   1.762
 7971TIP3    H147892   6.398   1.163   1.676
 7971TIP3    H247893   6.438   1.031   1.752
 7972TIP3   OH247894   6.997   1.114   1.500
 7972TIP3    H147895   7.077   1.171   1.496
 7972TIP3    H247896   6.929   1.183   1.504
 7973TIP3   OH247897   5.856   0.853   1.760
 7973TIP3    H147898   5.889   0.763   1.753
 7973TIP3    H247899   5.829   0.854   1.853
 7974TIP3   OH247900   6.320   0.968   0.269
 7974TIP3    H147901   6.265   0.914   0.328
 7974TIP3    H247902   6.346   0.900   0.202
 7975TIP3   OH247903   6.244   0.751   1.499
 7975TIP3    H147904   6.174   0.814   1.522
 7975TIP3    H247905   6.279   0.778   1.413
 7976TIP3   OH247906   6.427   0.794   0.095
 7976TIP3    H147907   6.401   0.776   0.001
 7976TIP3    H247908   6.524   0.795   0.094
 7977TIP3   OH247909   6.748   1.004   1.831
 7977TIP3    H147910   6.843   1.001   1.816
 7977TIP3    H247911   6.731   0.927   1.887
 7978TIP3   OH247912   7.351   1.016  11.013
 7978TIP3    H147913   7.339   0.980  10.926
 7978TIP3    H247914   7.359   1.111  10.992
 7979TIP3   OH247915   6.283   0.485   1.602
 7979TIP3    H147916   6.295   0.415   1.536
 7979TIP3    H247917   6.277   0.565   1.547
 7980TIP3   OH247918   6.322   0.324   1.358
 7980TIP3    H147919   6.374   0.371   1.288
 7980TIP3    H247920   6.233   0.317   1.317
 7981TIP3   OH247921   6.470   0.879   1.381
 7981TIP3    H147922   6.548   0.850   1.331
 7981TIP3    H247923   6.451   0.961   1.337
 7982TIP3   OH247924   6.914   0.646   1.875
 7982TIP3    H147925   6.937   0.552   1.870
 7982TIP3    H247926   7.000   0.689   1.883
 7983TIP3   OH247927   7.049   0.929   1.697
 7983TIP3    H147928   7.024   0.999   1.633
 7983TIP3    H247929   7.145   0.924   1.677
 7984TIP3   OH247930   6.126   0.611   1.792
 7984TIP3    H147931   6.050   0.552   1.778
 7984TIP3    H247932   6.193   0.570   1.733
 7985TIP3   OH247933   6.392   0.075   1.399
 7985TIP3    H147934   6.381   0.173   1.387
 7985TIP3    H247935   6.316   0.038   1.354
 7986TIP3   OH247936   6.527   0.500   1.760
 7986TIP3    H147937   6.497   0.475   1.850
 7986TIP3    H247938   6.449   0.479   1.706
 7987TIP3   OH247939   6.799   0.420   1.672
 7987TIP3    H147940   6.702   0.417   1.680
 7987TIP3    H247941   6.827   0.354   1.738
 7988TIP3   OH247942   6.956   0.284   1.854
 7988TIP3    H147943   6.955   0.186   1.853
 7988TIP3    H247944   6.932   0.305   1.947
 7989TIP3   OH247945   5.935   0.405   1.769
 7989TIP3    H147946   5.959   0.330   1.711
 7989TIP3    H247947   5.926   0.360   1.856
 7990TIP3   OH247948   6.433   8.142   1.643
 7990TIP3    H147949   6.499   8.071   1.649
 7990TIP3    H247950   6.409   8.127   1.549
 7991TIP3   OH247951   6.453   0.171   1.878
 7991TIP3    H147952   6.442   0.127   1.791
 7991TIP3    H247953   6.397   0.250   1.868
 7992TIP3   OH247954   6.404   1.862   0.200
 7992TIP3    H147955   6.502   1.867   0.204
 7992TIP3    H247956   6.383   1.922   0.127
 7993TIP3   OH247957   5.767   1.314   0.144
 7993TIP3    H147958   5.863   1.327   0.162
 7993TIP3    H247959   5.768   1.257   0.067
 7994TIP3   OH247960   5.638   1.854   0.639
 7994TIP3    H147961   5.566   1.805   0.593
 7994TIP3    H247962   5.665   1.789   0.706
 7995TIP3   OH247963   5.720   1.668   0.826
 7995TIP3    H147964   5.685   1.581   0.847
 7995TIP3    H247965   5.745   1.702   0.914
 7996TIP3   OH247966   7.467   1.750   1.120
 7996TIP3    H147967   7.478   1.762   1.215
 7996TIP3    H247968   7.542   1.802   1.088
 7997TIP3   OH247969   7.433   1.706   1.414
 7997TIP3    H147970   7.384   1.630   1.376
 7997TIP3    H247971   7.481   1.661   1.486
 7998TIP3   OH247972   7.276   1.279   1.882
 7998TIP3    H147973   7.185   1.277   1.918
 7998TIP3    H247974   7.313   1.360   1.922
 7999TIP3   OH247975   7.410   1.111   0.423
 7999TIP3    H147976   7.495   1.151   0.446
 7999TIP3    H247977   7.405   1.041   0.492
 8000TIP3   OH247978   7.440   0.919   0.611
 8000TIP3    H147979   7.366   0.871   0.654
 8000TIP3    H247980   7.501   0.931   0.687
 8001TIP3   OH247981   7.418   1.188   1.111
 8001TIP3    H147982   7.500   1.150   1.073
 8001TIP3    H247983   7.433   1.283   1.094
 8002TIP3   OH247984   7.275   1.480   1.338
 8002TIP3    H147985   7.206   1.514   1.397
 8002TIP3    H247986   7.220   1.440   1.267
 8003TIP3   OH247987   7.466   0.897   0.249
 8003TIP3    H147988   7.414   0.941   0.178
 8003TIP3    H247989   7.463   0.970   0.315
 8004TIP3   OH247990   7.294   0.625   0.105
 8004TIP3    H147991   7.314   0.694   0.039
 8004TIP3    H247992   7.294   0.545   0.050
 8005TIP3   OH247993   7.223   0.766   0.669
 8005TIP3    H147994   7.211   0.671   0.671
 8005TIP3    H247995   7.194   0.790   0.760
 8006TIP3   OH247996   5.725   0.975   1.075
 8006TIP3    H147997   5.743   0.968   0.979
 8006TIP3    H247998   5.814   0.957   1.112
 8007TIP3   OH247999   7.312   0.964   1.640
 8007TIP3    H148000   7.373   0.888   1.652
 8007TIP3    H248001   7.372   1.041   1.639
 8008TIP3   OH248002   7.462   0.751   1.704
 8008TIP3    H148003   7.374   0.712   1.689
 8008TIP3    H248004   7.520   0.673   1.697
 8009TIP3   OH248005   7.211   0.363   0.128
 8009TIP3    H148006   7.297   0.329   0.095
 8009TIP3    H248007   7.159   0.329   0.053
 8010TIP3   OH248008   7.188   0.528   0.501
 8010TIP3    H148009   7.219   0.438   0.532
 8010TIP3    H248010   7.275   0.570   0.490
 8011TIP3   OH248011   7.255   0.581   1.059
 8011TIP3    H148012   7.352   0.601   1.058
 8011TIP3    H248013   7.237   0.590   1.154
 8012TIP3   OH248014   7.261   0.654   1.336
 8012TIP3    H148015   7.173   0.682   1.370
 8012TIP3    H248016   7.306   0.739   1.316
 8013TIP3   OH248017   5.691   0.510   1.694
 8013TIP3    H148018   5.783   0.481   1.710
 8013TIP3    H248019   5.642   0.427   1.717
 8014TIP3   OH248020   7.505   0.068   1.887
 8014TIP3    H148021   7.514   0.001   1.817
 8014TIP3    H248022   7.496   0.144   1.827
 8015TIP3   OH248023   7.250   0.262   0.521
 8015TIP3    H148024   7.280   0.215   0.603
 8015TIP3    H248025   7.198   0.191   0.478
 8016TIP3   OH248026   5.802   0.339   0.974
 8016TIP3    H148027   5.851   0.259   1.005
 8016TIP3    H248028   5.858   0.407   1.015
 8017TIP3   OH248029   5.637   0.635   1.081
 8017TIP3    H148030   5.692   0.610   1.006
 8017TIP3    H248031   5.683   0.716   1.107
 8018TIP3   OH248032   7.444   0.273   1.705
 8018TIP3    H148033   7.348   0.294   1.702
 8018TIP3    H248034   7.445   0.211   1.630
 8019TIP3   OH248035   7.450   0.255   0.178
 8019TIP3    H148036   7.488   0.186   0.122
 8019TIP3    H248037   7.518   0.322   0.187
 8020TIP3   OH248038   5.669   0.258   0.496
 8020TIP3    H148039   5.577   0.281   0.473
 8020TIP3    H248040   5.715   0.303   0.422
 8021TIP3   OH248041   7.145   1.754   0.683
 8021TIP3    H148042   7.213   1.726   0.618
 8021TIP3    H248043   7.197   1.805   0.747
 8022TIP3   OH248044   5.674   0.138   1.311
 8022TIP3    H148045   5.615   0.119   1.385
 8022TIP3    H248046   5.622   0.203   1.259
 8023TIP3   OH248047   5.892   1.443   1.731
 8023TIP3    H148048   5.809   1.467   1.688
 8023TIP3    H248049   5.866   1.438   1.824
 8024TIP3   OH248050   6.182   1.545   1.360
 8024TIP3    H148051   6.149   1.633   1.335
 8024TIP3    H248052   6.274   1.557   1.330
 8025TIP3   OH248053   6.613   1.689   1.650
 8025TIP3    H148054   6.626   1.654   1.741
 8025TIP3    H248055   6.704   1.720   1.627
 8026TIP3   OH248056   6.842   1.816   1.582
 8026TIP3    H148057   6.915   1.758   1.559
 8026TIP3    H248058   6.879   1.860   1.662
 8027TIP3   OH248059   7.333   0.099   1.495
 8027TIP3    H148060   7.245   0.118   1.458
 8027TIP3    H248061   7.341   0.005   1.474
 8028TIP3   OH248062   5.923   1.868   1.359
 8028TIP3    H148063   5.851   1.921   1.321
 8028TIP3    H248064   5.893   1.853   1.450
 8029TIP3   OH248065   6.170   1.828   1.267
 8029TIP3    H148066   6.081   1.845   1.306
 8029TIP3    H248067   6.166   1.888   1.190
 8030TIP3   OH248068   6.641   1.819   1.184
 8030TIP3    H148069   6.595   1.875   1.120
 8030TIP3    H248070   6.654   1.882   1.258
 8031TIP3   OH248071   6.869   1.699   1.289
 8031TIP3    H148072   6.785   1.728   1.250
 8031TIP3    H248073   6.919   1.781   1.279
 8032TIP3   OH248074   7.128   1.856   1.309
 8032TIP3    H148075   7.124   1.952   1.286
 8032TIP3    H248076   7.150   1.819   1.221
 8033TIP3   OH248077   5.871   1.735   1.055
 8033TIP3    H148078   5.862   1.689   1.140
 8033TIP3    H248079   5.952   1.696   1.016
 8034TIP3   OH248080   6.078   1.605   0.920
 8034TIP3    H148081   6.063   1.512   0.945
 8034TIP3    H248082   6.163   1.623   0.965
 8035TIP3   OH248083   6.338   1.652   1.009
 8035TIP3    H148084   6.353   1.560   0.981
 8035TIP3    H248085   6.341   1.645   1.105
 8036TIP3   OH248086   6.679   0.226   0.916
 8036TIP3    H148087   6.618   0.159   0.948
 8036TIP3    H248088   6.741   0.171   0.867
 8037TIP3   OH248089   7.200   0.054   0.944
 8037TIP3    H148090   7.260   0.090   0.875
 8037TIP3    H248091   7.111   0.058   0.903
 8038TIP3   OH248092   7.366   0.155   0.752
 8038TIP3    H148093   7.430   0.093   0.714
 8038TIP3    H248094   7.418   0.238   0.767
 8039TIP3   OH248095   5.904   0.073   0.712
 8039TIP3    H148096   5.848   0.060   0.634
 8039TIP3    H248097   5.968   0.002   0.696
 8040TIP3   OH248098   5.821   0.104   0.300
 8040TIP3    H148099   5.844   0.151   0.218
 8040TIP3    H248100   5.733   0.134   0.325
 8041TIP3   OH248101   6.362   0.089   0.684
 8041TIP3    H148102   6.455   0.113   0.674
 8041TIP3    H248103   6.369   0.054   0.774
 8042TIP3   OH248104   6.937   0.079   0.850
 8042TIP3    H148105   6.933   0.086   0.754
 8042TIP3    H248106   6.904  -0.012   0.861
 8043TIP3   OH248107   7.050   0.095   0.383
 8043TIP3    H148108   6.975   0.153   0.402
 8043TIP3    H248109   7.027   0.013   0.429
 8044TIP3   OH248110   5.790   1.653   0.376
 8044TIP3    H148111   5.718   1.654   0.310
 8044TIP3    H248112   5.792   1.748   0.397
 8045TIP3   OH248113   5.978   0.249   0.125
 8045TIP3    H148114   6.037   0.189   0.078
 8045TIP3    H248115   6.041   0.281   0.191
 8046TIP3   OH248116   6.481   0.281   0.365
 8046TIP3    H148117   6.512   0.220   0.435
 8046TIP3    H248118   6.489   0.364   0.416
 8047TIP3   OH248119   6.673   1.797   0.217
 8047TIP3    H148120   6.768   1.807   0.200
 8047TIP3    H248121   6.654   1.737   0.141
 8048TIP3   OH248122   7.345   1.736   0.485
 8048TIP3    H148123   7.325   1.656   0.430
 8048TIP3    H248124   7.337   1.808   0.420
 8049TIP3   OH248125   5.909   0.142   1.655
 8049TIP3    H148126   5.873   0.059   1.687
 8049TIP3    H248127   6.001   0.131   1.684
 8050TIP3   OH248128   6.112   0.083   1.828
 8050TIP3    H148129   6.195   0.051   1.790
 8050TIP3    H248130   6.066  -0.003   1.841
 8051TIP3   OH248131   5.967   1.745   0.074
 8051TIP3    H148132   5.940   1.779   0.160
 8051TIP3    H248133   6.048   1.696   0.093
 8052TIP3   OH248134   6.961   8.106   1.839
 8052TIP3    H148135   6.959   8.036   1.903
 8052TIP3    H248136   7.042   8.085   1.789
 8053TIP3   OH248137   7.270   1.609   1.693
 8053TIP3    H148138   7.189   1.595   1.638
 8053TIP3    H248139   7.257   1.703   1.715
 8054TIP3   OH248140   7.835   0.890   1.196
 8054TIP3    H148141   7.844   0.820   1.264
 8054TIP3    H248142   7.912   0.944   1.219
 8055TIP3   OH248143   7.908   1.320   1.064
 8055TIP3    H148144   7.888   1.239   1.014
 8055TIP3    H248145   8.006   1.325   1.053
 8056TIP3   OH248146   7.587   0.689   0.596
 8056TIP3    H148147   7.547   0.778   0.589
 8056TIP3    H248148   7.532   0.636   0.538
 8057TIP3   OH248149   7.663   0.915   0.811
 8057TIP3    H148150   7.689   0.832   0.855
 8057TIP3    H248151   7.733   0.923   0.744
 8058TIP3   OH248152   7.723   0.657   0.916
 8058TIP3    H148153   7.793   0.606   0.962
 8058TIP3    H248154   7.742   0.628   0.825
 8059TIP3   OH248155   7.940   0.308   1.241
 8059TIP3    H148156   7.924   0.372   1.169
 8059TIP3    H248157   7.879   0.337   1.313
 8060TIP3   OH248158   7.897   0.485   1.039
 8060TIP3    H148159   7.955   0.553   1.082
 8060TIP3    H248160   7.958   0.450   0.971
 8061TIP3   OH248161   8.035   1.305   1.350
 8061TIP3    H148162   8.027   1.393   1.312
 8061TIP3    H248163   7.948   1.288   1.394
 8062TIP3   OH248164   7.665   1.233   0.429
 8062TIP3    H148165   7.638   1.266   0.342
 8062TIP3    H248166   7.665   1.315   0.483
 8063TIP3   OH248167   7.898   0.939   1.479
 8063TIP3    H148168   7.908   1.004   1.551
 8063TIP3    H248169   7.804   0.949   1.458
 8064TIP3   OH248170   8.037   1.527   1.640
 8064TIP3    H148171   8.033   1.514   1.545
 8064TIP3    H248172   7.943   1.514   1.664
 8065TIP3   OH248173   7.979   0.914   0.486
 8065TIP3    H148174   7.952   0.992   0.435
 8065TIP3    H248175   7.912   0.849   0.466
 8066TIP3   OH248176   7.589   1.152   1.380
 8066TIP3    H148177   7.547   1.144   1.293
 8066TIP3    H248178   7.603   1.058   1.401
 8067TIP3   OH248179   7.568   1.426   1.058
 8067TIP3    H148180   7.664   1.415   1.054
 8067TIP3    H248181   7.562   1.510   1.106
 8068TIP3   OH248182   7.883   1.704   0.675
 8068TIP3    H148183   7.900   1.665   0.763
 8068TIP3    H248184   7.797   1.663   0.654
 8069TIP3   OH248185   7.810   1.288   1.479
 8069TIP3    H148186   7.839   1.244   1.562
 8069TIP3    H248187   7.729   1.241   1.452
 8070TIP3   OH248188   7.858   0.657   1.363
 8070TIP3    H148189   7.864   0.694   1.452
 8070TIP3    H248190   7.821   0.569   1.380
 8071TIP3   OH248191   7.527   0.370   0.759
 8071TIP3    H148192   7.592   0.367   0.832
 8071TIP3    H248193   7.574   0.330   0.684
 8072TIP3   OH248194   7.648   0.443   0.295
 8072TIP3    H148195   7.704   0.502   0.241
 8072TIP3    H248196   7.582   0.505   0.331
 8073TIP3   OH248197   7.826   0.556   0.665
 8073TIP3    H148198   7.737   0.563   0.627
 8073TIP3    H248199   7.857   0.468   0.636
 8074TIP3   OH248200   7.876   1.138   1.691
 8074TIP3    H148201   7.946   1.156   1.754
 8074TIP3    H248202   7.798   1.141   1.751
 8075TIP3   OH248203   7.927   0.283   0.597
 8075TIP3    H148204   7.925   0.188   0.619
 8075TIP3    H248205   8.023   0.295   0.587
 8076TIP3   OH248206   7.907   1.067   0.953
 8076TIP3    H148207   7.982   1.059   0.893
 8076TIP3    H248208   7.913   0.985   1.006
 8077TIP3   OH248209   7.611   0.906   1.488
 8077TIP3    H148210   7.627   0.860   1.572
 8077TIP3    H248211   7.548   0.846   1.442
 8078TIP3   OH248212   7.727   0.896   0.154
 8078TIP3    H148213   7.784   0.961   0.200
 8078TIP3    H248214   7.638   0.925   0.181
 8079TIP3   OH248215   7.775   0.378   1.447
 8079TIP3    H148216   7.685   0.411   1.433
 8079TIP3    H248217   7.761   0.290   1.485
 8080TIP3   OH248218   7.745   1.557   1.281
 8080TIP3    H148219   7.760   1.462   1.288
 8080TIP3    H248220   7.761   1.588   1.371
 8081TIP3   OH248221   7.867   1.091   0.297
 8081TIP3    H148222   7.797   1.126   0.357
 8081TIP3    H248223   7.919   1.171   0.282
 8082TIP3   OH248224   7.920   1.347   0.194
 8082TIP3    H148225   7.982   1.413   0.226
 8082TIP3    H248226   7.974   1.310   0.123
 8083TIP3   OH248227   7.755   0.614   0.116
 8083TIP3    H148228   7.755   0.712   0.122
 8083TIP3    H248229   7.673   0.595   0.073
 8084TIP3   OH248230   7.813   0.124   0.966
 8084TIP3    H148231   7.815   0.105   0.869
 8084TIP3    H248232   7.803   0.035   1.002
 8085TIP3   OH248233   7.726   1.487   0.595
 8085TIP3    H148234   7.642   1.535   0.589
 8085TIP3    H248235   7.778   1.532   0.526
 8086TIP3   OH248236   7.651   1.753   1.721
 8086TIP3    H148237   7.710   1.734   1.796
 8086TIP3    H248238   7.611   1.666   1.705
 8087TIP3   OH248239   7.644   1.130   1.822
 8087TIP3    H148240   7.658   1.037   1.794
 8087TIP3    H248241   7.569   1.155   1.766
 8088TIP3   OH248242   7.738   0.853   1.761
 8088TIP3    H148243   7.776   0.765   1.750
 8088TIP3    H248244   7.717   0.852   1.856
 8089TIP3   OH248245   7.998   0.628   1.807
 8089TIP3    H148246   7.929   0.560   1.787
 8089TIP3    H248247   8.068   0.596   1.747
 8090TIP3   OH248248   7.820   0.403   1.768
 8090TIP3    H148249   7.841   0.328   1.709
 8090TIP3    H248250   7.816   0.361   1.856
 8091TIP3   OH248251   7.648   1.312   0.146
 8091TIP3    H148252   7.743   1.327   0.163
 8091TIP3    H248253   7.650   1.255   0.068
 8092TIP3   OH248254   7.522   1.853   0.639
 8092TIP3    H148255   7.449   1.804   0.594
 8092TIP3    H248256   7.552   1.789   0.706
 8093TIP3   OH248257   7.605   1.667   0.827
 8093TIP3    H148258   7.569   1.579   0.847
 8093TIP3    H248259   7.631   1.699   0.915
 8094TIP3   OH248260   7.612   0.980   1.075
 8094TIP3    H148261   7.632   0.966   0.980
 8094TIP3    H248262   7.700   0.958   1.112
 8095TIP3   OH248263   7.573   0.509   1.692
 8095TIP3    H148264   7.666   0.481   1.707
 8095TIP3    H248265   7.526   0.426   1.717
 8096TIP3   OH248266   7.681   0.342   0.981
 8096TIP3    H148267   7.734   0.259   0.994
 8096TIP3    H248268   7.748   0.406   1.012
 8097TIP3   OH248269   7.518   0.636   1.078
 8097TIP3    H148270   7.578   0.609   1.005
 8097TIP3    H248271   7.566   0.714   1.108
 8098TIP3   OH248272   7.553   0.253   0.487
 8098TIP3    H148273   7.462   0.280   0.473
 8098TIP3    H248274   7.601   0.307   0.422
 8099TIP3   OH248275   7.559   0.139   1.314
 8099TIP3    H148276   7.495   0.119   1.384
 8099TIP3    H248277   7.510   0.201   1.256
 8100TIP3   OH248278   7.774   1.447   1.733
 8100TIP3    H148279   7.691   1.469   1.688
 8100TIP3    H248280   7.745   1.436   1.824
 8101TIP3   OH248281   7.809   1.872   1.363
 8101TIP3    H148282   7.736   1.919   1.319
 8101TIP3    H248283   7.772   1.854   1.450
 8102TIP3   OH248284   8.034   1.793   1.237
 8102TIP3    H148285   7.969   1.830   1.301
 8102TIP3    H248286   8.056   1.877   1.193
 8103TIP3   OH248287   7.745   1.735   1.057
 8103TIP3    H148288   7.751   1.690   1.144
 8103TIP3    H248289   7.828   1.701   1.017
 8104TIP3   OH248290   7.944   1.605   0.936
 8104TIP3    H148291   7.938   1.509   0.949
 8104TIP3    H248292   8.034   1.619   0.970
 8105TIP3   OH248293   7.793   0.075   0.706
 8105TIP3    H148294   7.717   0.057   0.649
 8105TIP3    H248295   7.851  -0.002   0.698
 8106TIP3   OH248296   7.708   0.102   0.296
 8106TIP3    H148297   7.728   0.155   0.216
 8106TIP3    H248298   7.621   0.133   0.327
 8107TIP3   OH248299   7.675   1.655   0.375
 8107TIP3    H148300   7.601   1.655   0.312
 8107TIP3    H248301   7.678   1.749   0.397
 8108TIP3   OH248302   7.863   0.244   0.129
 8108TIP3    H148303   7.924   0.193   0.075
 8108TIP3    H248304   7.925   0.284   0.191
 8109TIP3   OH248305   7.801   0.142   1.650
 8109TIP3    H148306   7.763   0.062   1.688
 8109TIP3    H248307   7.892   0.131   1.681
 8110TIP3   OH248308   7.990   0.087   1.841
 8110TIP3    H148309   8.068   0.059   1.787
 8110TIP3    H248310   7.950  -0.001   1.849
 8111TIP3   OH248311   7.855   1.753   0.074
 8111TIP3    H148312   7.828   1.781   0.162
 8111TIP3    H248313   7.932   1.698   0.090
 8112TIP3   OH248314   1.181   2.907   0.623
 8112TIP3    H148315   1.169   2.982   0.686
 8112TIP3    H248316   1.100   2.857   0.642
 8113TIP3   OH248317   0.993   2.799   1.111
 8113TIP3    H148318   1.064   2.738   1.135
 8113TIP3    H248319   1.006   2.790   1.013
 8114TIP3   OH248320   0.307   2.766   1.187
 8114TIP3    H148321   0.300   2.707   1.265
 8114TIP3    H248322   0.368   2.834   1.221
 8115TIP3   OH248323   1.428   3.103   0.872
 8115TIP3    H148324   1.382   3.031   0.916
 8115TIP3    H248325   1.427   3.172   0.940
 8116TIP3   OH248326   0.383   3.220   1.043
 8116TIP3    H148327   0.354   3.130   1.017
 8116TIP3    H248328   0.478   3.203   1.050
 8117TIP3   OH248329   0.054   2.577   0.587
 8117TIP3    H148330   0.010   2.664   0.592
 8117TIP3    H248331  -0.011   2.522   0.545
 8118TIP3   OH248332   0.120   2.794   0.810
 8118TIP3    H148333   0.146   2.713   0.856
 8118TIP3    H248334   0.189   2.806   0.743
 8119TIP3   OH248335   1.138   3.619   0.895
 8119TIP3    H148336   1.203   3.551   0.865
 8119TIP3    H248337   1.115   3.583   0.981
 8120TIP3   OH248338   0.895   3.056   1.087
 8120TIP3    H148339   0.924   2.984   1.027
 8120TIP3    H248340   0.975   3.062   1.141
 8121TIP3   OH248341   1.753   2.214   1.161
 8121TIP3    H148342   1.772   2.272   1.238
 8121TIP3    H248343   1.811   2.255   1.095
 8122TIP3   OH248344   1.211   2.495   1.121
 8122TIP3    H148345   1.228   2.400   1.119
 8122TIP3    H248346   1.201   2.511   1.024
 8123TIP3   OH248347   0.523   2.304   0.842
 8123TIP3    H148348   0.533   2.388   0.793
 8123TIP3    H248349   0.485   2.246   0.772
 8124TIP3   OH248350   1.300   2.305   0.672
 8124TIP3    H148351   1.361   2.282   0.747
 8124TIP3    H248352   1.353   2.370   0.625
 8125TIP3   OH248353   0.196   2.545   0.914
 8125TIP3    H148354   0.258   2.485   0.960
 8125TIP3    H248355   0.198   2.511   0.823
 8126TIP3   OH248356   0.696   2.699   0.849
 8126TIP3    H148357   0.770   2.645   0.885
 8126TIP3    H248358   0.650   2.632   0.797
 8127TIP3   OH248359   1.797   2.353   1.392
 8127TIP3    H148360   1.739   2.431   1.377
 8127TIP3    H248361   1.801   2.348   1.488
 8128TIP3   OH248362   0.417   2.193   1.242
 8128TIP3    H148363   0.386   2.252   1.170
 8128TIP3    H248364   0.351   2.214   1.312
 8129TIP3   OH248365   1.142   3.157   0.605
 8129TIP3    H148366   1.116   3.113   0.522
 8129TIP3    H248367   1.106   3.246   0.602
 8130TIP3   OH248368   0.667   2.958   1.269
 8130TIP3    H148369   0.597   3.022   1.292
 8130TIP3    H248370   0.738   3.016   1.238
 8131TIP3   OH248371   1.478   2.246   0.877
 8131TIP3    H148372   1.456   2.169   0.931
 8131TIP3    H248373   1.546   2.289   0.932
 8132TIP3   OH248374   0.374   2.375   1.050
 8132TIP3    H148375   0.434   2.447   1.081
 8132TIP3    H248376   0.426   2.339   0.974
 8133TIP3   OH248377   0.511   3.158   1.349
 8133TIP3    H148378   0.503   3.250   1.318
 8133TIP3    H248379   0.424   3.148   1.394
 8134TIP3   OH248380   0.119   3.119   0.430
 8134TIP3    H148381   0.092   3.150   0.342
 8134TIP3    H248382   0.124   3.201   0.482
 8135TIP3   OH248383   1.479   3.287   1.107
 8135TIP3    H148384   1.382   3.299   1.119
 8135TIP3    H248385   1.506   3.378   1.086
 8136TIP3   OH248386   1.510   2.115   1.245
 8136TIP3    H148387   1.438   2.178   1.235
 8136TIP3    H248388   1.583   2.156   1.193
 8137TIP3   OH248389   0.806   1.926   0.992
 8137TIP3    H148390   0.791   1.830   0.984
 8137TIP3    H248391   0.719   1.957   1.023
 8138TIP3   OH248392   1.307   3.467   0.770
 8138TIP3    H148393   1.346   3.394   0.717
 8138TIP3    H248394   1.351   3.544   0.728
 8139TIP3   OH248395   1.427   3.255   0.620
 8139TIP3    H148396   1.395   3.187   0.558
 8139TIP3    H248397   1.428   3.204   0.703
 8140TIP3   OH248398   1.587   3.118   1.467
 8140TIP3    H148399   1.602   3.051   1.396
 8140TIP3    H248400   1.608   3.201   1.421
 8141TIP3   OH248401   1.028   2.793   0.431
 8141TIP3    H148402   0.970   2.867   0.408
 8141TIP3    H248403   1.109   2.816   0.382
 8142TIP3   OH248404   1.045   2.659   0.142
 8142TIP3    H148405   1.115   2.664   0.211
 8142TIP3    H248406   1.075   2.586   0.090
 8143TIP3   OH248407   1.777   2.749   1.271
 8143TIP3    H148408   1.711   2.821   1.274
 8143TIP3    H248409   1.827   2.772   1.190
 8144TIP3   OH248410   1.399   2.821   0.530
 8144TIP3    H148411   1.319   2.851   0.582
 8144TIP3    H248412   1.436   2.755   0.590
 8145TIP3   OH248413   1.377   2.643   1.447
 8145TIP3    H148414   1.375   2.725   1.500
 8145TIP3    H248415   1.312   2.672   1.378
 8146TIP3   OH248416   0.545   2.893   0.727
 8146TIP3    H148417   0.510   2.852   0.644
 8146TIP3    H248418   0.607   2.824   0.761
 8147TIP3   OH248419   0.676   3.230   0.995
 8147TIP3    H148420   0.674   3.179   0.913
 8147TIP3    H248421   0.755   3.193   1.039
 8148TIP3   OH248422   0.582   2.765   1.094
 8148TIP3    H148423   0.635   2.776   1.012
 8148TIP3    H248424   0.616   2.834   1.154
 8149TIP3   OH248425   1.218   3.324   1.163
 8149TIP3    H148426   1.190   3.388   1.231
 8149TIP3    H248427   1.192   3.238   1.204
 8150TIP3   OH248428   0.672   3.211   1.563
 8150TIP3    H148429   0.629   3.283   1.612
 8150TIP3    H248430   0.605   3.190   1.493
 8151TIP3   OH248431   1.271   2.744   0.299
 8151TIP3    H148432   1.322   2.765   0.382
 8151TIP3    H248433   1.315   2.798   0.231
 8152TIP3   OH248434   0.365   2.822   1.481
 8152TIP3    H148435   0.372   2.893   1.547
 8152TIP3    H248436   0.270   2.835   1.457
 8153TIP3   OH248437   1.042   3.421   0.646
 8153TIP3    H148438   1.083   3.450   0.728
 8153TIP3    H248439   0.985   3.495   0.623
 8154TIP3   OH248440   0.498   3.412   1.638
 8154TIP3    H148441   0.489   3.404   1.541
 8154TIP3    H248442   0.404   3.400   1.665
 8155TIP3   OH248443   1.645   1.919   0.290
 8155TIP3    H148444   1.549   1.928   0.312
 8155TIP3    H248445   1.662   2.004   0.246
 8156TIP3   OH248446   0.445   2.793   0.484
 8156TIP3    H148447   0.411   2.872   0.438
 8156TIP3    H248448   0.377   2.728   0.467
 8157TIP3   OH248449   1.757   3.353   0.129
 8157TIP3    H148450   1.770   3.448   0.146
 8157TIP3    H248451   1.848   3.322   0.125
 8158TIP3   OH248452   0.103   2.994   1.354
 8158TIP3    H148453   0.026   3.031   1.306
 8158TIP3    H248454   0.056   2.925   1.406
 8159TIP3   OH248455   0.050   3.334   1.040
 8159TIP3    H148456   0.139   3.302   1.059
 8159TIP3    H248457   0.031   3.392   1.115
 8160TIP3   OH248458   1.849   3.382   1.626
 8160TIP3    H148459   1.837   3.286   1.622
 8160TIP3    H248460   1.762   3.407   1.664
 8161TIP3   OH248461   0.944   3.335   1.511
 8161TIP3    H148462   0.950   3.419   1.562
 8161TIP3    H248463   0.856   3.300   1.535
 8162TIP3   OH248464   0.988   3.711   0.492
 8162TIP3    H148465   0.980   3.705   0.396
 8162TIP3    H248466   0.992   3.807   0.508
 8163TIP3   OH248467   0.358   3.596   0.671
 8163TIP3    H148468   0.368   3.557   0.761
 8163TIP3    H248469   0.272   3.556   0.648
 8164TIP3   OH248470   1.290   3.627   0.196
 8164TIP3    H148471   1.345   3.558   0.152
 8164TIP3    H248472   1.301   3.601   0.290
 8165TIP3   OH248473   1.263   3.625   0.468
 8165TIP3    H148474   1.167   3.632   0.486
 8165TIP3    H248475   1.287   3.551   0.525
 8166TIP3   OH248476   1.561   2.527   1.673
 8166TIP3    H148477   1.515   2.573   1.600
 8166TIP3    H248478   1.561   2.436   1.639
 8167TIP3   OH248479   0.278   3.177   1.475
 8167TIP3    H148480   0.294   3.134   1.561
 8167TIP3    H248481   0.196   3.130   1.446
 8168TIP3   OH248482   0.547   2.018   1.066
 8168TIP3    H148483   0.456   2.005   1.031
 8168TIP3    H248484   0.532   2.100   1.117
 8169TIP3   OH248485   1.010   1.983   1.404
 8169TIP3    H148486   1.050   1.940   1.482
 8169TIP3    H248487   0.912   1.972   1.419
 8170TIP3   OH248488   1.338   2.370   1.492
 8170TIP3    H148489   1.280   2.348   1.569
 8170TIP3    H248490   1.320   2.463   1.470
 8171TIP3   OH248491   1.424   2.832   0.087
 8171TIP3    H148492   1.407   2.845  -0.007
 8171TIP3    H248493   1.500   2.892   0.096
 8172TIP3   OH248494   0.974   2.242   0.136
 8172TIP3    H148495   0.940   2.236   0.227
 8172TIP3    H248496   0.945   2.155   0.106
 8173TIP3   OH248497   0.554   2.513   1.193
 8173TIP3    H148498   0.481   2.514   1.258
 8173TIP3    H248499   0.550   2.605   1.157
 8174TIP3   OH248500   0.553   2.526   0.681
 8174TIP3    H148501   0.459   2.502   0.667
 8174TIP3    H248502   0.590   2.498   0.595
 8175TIP3   OH248503   1.102   2.572   0.551
 8175TIP3    H148504   1.066   2.659   0.522
 8175TIP3    H248505   1.175   2.561   0.489
 8176TIP3   OH248506   1.012   2.595   1.694
 8176TIP3    H148507   0.957   2.523   1.732
 8176TIP3    H248508   1.091   2.589   1.749
 8177TIP3   OH248509   1.216   2.503   0.843
 8177TIP3    H148510   1.182   2.577   0.787
 8177TIP3    H248511   1.217   2.430   0.781
 8178TIP3   OH248512   0.316   2.540   1.360
 8178TIP3    H148513   0.323   2.581   1.447
 8178TIP3    H248514   0.272   2.457   1.381
 8179TIP3   OH248515   0.657   2.186   0.059
 8179TIP3    H148516   0.621   2.210   0.146
 8179TIP3    H248517   0.604   2.255   0.015
 8180TIP3   OH248518   0.013   2.281   0.768
 8180TIP3    H148519   0.065   2.246   0.843
 8180TIP3    H248520   0.025   2.214   0.702
 8181TIP3   OH248521   0.111   2.333   0.294
 8181TIP3    H148522   0.166   2.389   0.237
 8181TIP3    H248523   0.043   2.392   0.327
 8182TIP3   OH248524   1.140   2.680   1.306
 8182TIP3    H148525   1.166   2.615   1.237
 8182TIP3    H248526   1.078   2.629   1.362
 8183TIP3   OH248527   0.808   2.282   0.780
 8183TIP3    H148528   0.714   2.283   0.809
 8183TIP3    H248529   0.857   2.267   0.862
 8184TIP3   OH248530   0.293   2.435   0.667
 8184TIP3    H148531   0.204   2.454   0.630
 8184TIP3    H248532   0.315   2.349   0.626
 8185TIP3   OH248533   0.651   2.443   0.434
 8185TIP3    H148534   0.748   2.452   0.447
 8185TIP3    H248535   0.628   2.508   0.365
 8186TIP3   OH248536   1.249   2.206   1.103
 8186TIP3    H148537   1.181   2.209   1.174
 8186TIP3    H248538   1.198   2.179   1.025
 8187TIP3   OH248539   0.518   2.569   0.192
 8187TIP3    H148540   0.472   2.519   0.122
 8187TIP3    H248541   0.603   2.576   0.147
 8188TIP3   OH248542   1.568   3.769   1.736
 8188TIP3    H148543   1.594   3.807   1.651
 8188TIP3    H248544   1.640   3.801   1.792
 8189TIP3   OH248545   0.338   3.018   1.694
 8189TIP3    H148546   0.412   3.039   1.754
 8189TIP3    H248547   0.263   3.022   1.755
 8190TIP3   OH248548   0.922   2.545   0.965
 8190TIP3    H148549   0.998   2.510   0.918
 8190TIP3    H248550   0.924   2.500   1.050
 8191TIP3   OH248551   0.440   2.171   0.616
 8191TIP3    H148552   0.404   2.080   0.613
 8191TIP3    H248553   0.518   2.163   0.559
 8192TIP3   OH248554   0.799   2.388   1.210
 8192TIP3    H148555   0.718   2.442   1.218
 8192TIP3    H248556   0.855   2.425   1.281
 8193TIP3   OH248557   0.859   3.009   0.383
 8193TIP3    H148558   0.779   2.965   0.347
 8193TIP3    H248559   0.836   3.021   0.477
 8194TIP3   OH248560   1.577   2.933   1.261
 8194TIP3    H148561   1.633   2.981   1.197
 8194TIP3    H248562   1.491   2.934   1.213
 8195TIP3   OH248563   1.244   2.299   0.183
 8195TIP3    H148564   1.147   2.304   0.186
 8195TIP3    H248565   1.276   2.375   0.236
 8196TIP3   OH248566   1.009   3.042   1.502
 8196TIP3    H148567   0.974   2.995   1.579
 8196TIP3    H248568   0.980   3.132   1.517
 8197TIP3   OH248569   1.313   2.486   0.365
 8197TIP3    H148570   1.403   2.469   0.400
 8197TIP3    H248571   1.325   2.567   0.313
 8198TIP3   OH248572   0.370   2.953   0.961
 8198TIP3    H148573   0.436   2.944   0.890
 8198TIP3    H248574   0.376   2.867   1.005
 8199TIP3   OH248575   1.069   3.159   0.284
 8199TIP3    H148576   1.033   3.244   0.317
 8199TIP3    H248577   0.995   3.097   0.305
 8200TIP3   OH248578   0.079   2.774   1.483
 8200TIP3    H148579   0.087   2.742   1.573
 8200TIP3    H248580   0.001   2.729   1.446
 8201TIP3   OH248581   0.771   2.769   1.666
 8201TIP3    H148582   0.739   2.707   1.599
 8201TIP3    H248583   0.847   2.720   1.704
 8202TIP3   OH248584   1.240   3.282   1.500
 8202TIP3    H148585   1.147   3.299   1.476
 8202TIP3    H248586   1.235   3.312   1.593
 8203TIP3   OH248587   1.806   2.498   0.339
 8203TIP3    H148588   1.747   2.469   0.267
 8203TIP3    H248589   1.812   2.592   0.314
 8204TIP3   OH248590   1.804   3.085   1.618
 8204TIP3    H148591   1.715   3.108   1.582
 8204TIP3    H248592   1.858   3.080   1.537
 8205TIP3   OH248593   1.639   3.381   0.379
 8205TIP3    H148594   1.598   3.299   0.410
 8205TIP3    H248595   1.662   3.363   0.286
 8206TIP3   OH248596   1.357   2.861   1.096
 8206TIP3    H148597   1.264   2.846   1.069
 8206TIP3    H248598   1.398   2.791   1.042
 8207TIP3   OH248599   0.608   3.297   0.700
 8207TIP3    H148600   0.657   3.378   0.679
 8207TIP3    H248601   0.520   3.320   0.666
 8208TIP3   OH248602   0.180   2.777   0.158
 8208TIP3    H148603   0.241   2.843   0.195
 8208TIP3    H248604   0.095   2.816   0.182
 8209TIP3   OH248605   0.746   3.065   0.648
 8209TIP3    H148606   0.714   3.156   0.659
 8209TIP3    H248607   0.678   3.013   0.696
 8210TIP3   OH248608   0.793   3.482   1.293
 8210TIP3    H148609   0.840   3.562   1.263
 8210TIP3    H248610   0.856   3.447   1.359
 8211TIP3   OH248611   0.616   3.562   0.604
 8211TIP3    H148612   0.520   3.577   0.618
 8211TIP3    H248613   0.652   3.647   0.636
 8212TIP3   OH248614   1.147   3.083   1.253
 8212TIP3    H148615   1.112   3.060   1.342
 8212TIP3    H248616   1.209   3.010   1.236
 8213TIP3   OH248617   1.374   3.186   0.162
 8213TIP3    H148618   1.411   3.143   0.241
 8213TIP3    H248619   1.280   3.168   0.178
 8214TIP3   OH248620   1.428   3.540   1.502
 8214TIP3    H148621   1.358   3.491   1.455
 8214TIP3    H248622   1.446   3.610   1.435
 8215TIP3   OH248623   1.826   3.626   0.188
 8215TIP3    H148624   1.897   3.690   0.169
 8215TIP3    H248625   1.754   3.687   0.215
 8216TIP3   OH248626   0.234   2.263   1.438
 8216TIP3    H148627   0.144   2.300   1.444
 8216TIP3    H248628   0.220   2.180   1.485
 8217TIP3   OH248629   1.457   3.053   0.392
 8217TIP3    H148630   1.432   2.972   0.442
 8217TIP3    H248631   1.553   3.054   0.404
 8218TIP3   OH248632   0.196   3.441   1.279
 8218TIP3    H148633   0.227   3.350   1.285
 8218TIP3    H248634   0.218   3.472   1.368
 8219TIP3   OH248635   0.669   3.251   0.257
 8219TIP3    H148636   0.700   3.199   0.332
 8219TIP3    H248637   0.676   3.343   0.289
 8220TIP3   OH248638   0.322   2.974   0.305
 8220TIP3    H148639   0.250   3.012   0.360
 8220TIP3    H248640   0.371   3.053   0.277
 8221TIP3   OH248641   1.107   2.243   1.338
 8221TIP3    H148642   1.179   2.249   1.402
 8221TIP3    H248643   1.069   2.156   1.359
 8222TIP3   OH248644   1.180   2.199   0.448
 8222TIP3    H148645   1.207   2.245   0.368
 8222TIP3    H248646   1.237   2.243   0.513
 8223TIP3   OH248647   0.947   3.413   0.325
 8223TIP3    H148648   0.868   3.469   0.340
 8223TIP3    H248649   1.004   3.468   0.269
 8224TIP3   OH248650   0.904   2.375   0.528
 8224TIP3    H148651   0.981   2.436   0.533
 8224TIP3    H248652   0.878   2.363   0.622
 8225TIP3   OH248653   0.961   2.476   1.448
 8225TIP3    H148654   0.967   2.532   1.528
 8225TIP3    H248655   1.027   2.407   1.458
 8226TIP3   OH248656   0.989   2.079   0.615
 8226TIP3    H148657   0.956   2.143   0.680
 8226TIP3    H248658   1.059   2.134   0.571
 8227TIP3   OH248659   0.688   3.521   0.333
 8227TIP3    H148660   0.704   3.602   0.280
 8227TIP3    H248661   0.661   3.556   0.420
 8228TIP3   OH248662   0.552   2.191   0.303
 8228TIP3    H148663   0.551   2.285   0.327
 8228TIP3    H248664   0.646   2.167   0.315
 8229TIP3   OH248665   1.575   2.263   1.536
 8229TIP3    H148666   1.484   2.297   1.518
 8229TIP3    H248667   1.608   2.261   1.444
 8230TIP3   OH248668   1.443   2.640   0.930
 8230TIP3    H148669   1.355   2.603   0.908
 8230TIP3    H248670   1.486   2.571   0.984
 8231TIP3   OH248671   0.384   3.234   0.193
 8231TIP3    H148672   0.450   3.297   0.225
 8231TIP3    H248673   0.431   3.188   0.122
 8232TIP3   OH248674   0.212   2.505   0.104
 8232TIP3    H148675   0.207   2.600   0.126
 8232TIP3    H248676   0.125   2.482   0.071
 8233TIP3   OH248677   1.545   3.570   1.099
 8233TIP3    H148678   1.537   3.637   1.029
 8233TIP3    H248679   1.642   3.574   1.117
 8234TIP3   OH248680   0.291   1.985   0.976
 8234TIP3    H148681   0.272   1.980   0.880
 8234TIP3    H248682   0.256   1.897   1.005
 8235TIP3   OH248683   0.191   3.370   0.594
 8235TIP3    H148684   0.107   3.418   0.591
 8235TIP3    H248685   0.239   3.418   0.525
 8236TIP3   OH248686   0.113   3.634   1.723
 8236TIP3    H148687   0.172   3.610   1.796
 8236TIP3    H248688   0.067   3.550   1.701
 8237TIP3   OH248689   0.579   3.530   1.883
 8237TIP3    H148690   0.655   3.481   1.915
 8237TIP3    H248691   0.575   3.502   1.789
 8238TIP3   OH248692   0.998   3.492   0.052
 8238TIP3    H148693   0.928   3.427   0.068
 8238TIP3    H248694   1.068   3.442   0.009
 8239TIP3   OH248695   1.228   3.369   1.760
 8239TIP3    H148696   1.197   3.280   1.787
 8239TIP3    H248697   1.306   3.380   1.818
 8240TIP3   OH248698   1.472   3.450   0.101
 8240TIP3    H148699   1.482   3.354   0.097
 8240TIP3    H248700   1.503   3.479   0.013
 8241TIP3   OH248701   0.102   3.019   1.826
 8241TIP3    H148702   0.120   2.927   1.796
 8241TIP3    H248703   0.033   3.044   1.764
 8242TIP3   OH248704   0.521   3.033   0.026
 8242TIP3    H148705   0.553   2.966   0.088
 8242TIP3    H248706   0.598   3.039  -0.033
 8243TIP3   OH248707   0.771   3.018   1.761
 8243TIP3    H148708   0.739   3.044   1.673
 8243TIP3    H248709   0.780   2.919   1.753
 8244TIP3   OH248710   1.343   3.000   1.500
 8244TIP3    H148711   1.422   3.058   1.495
 8244TIP3    H248712   1.273   3.067   1.504
 8245TIP3   OH248713   0.179   2.737   1.762
 8245TIP3    H148714   0.235   2.659   1.753
 8245TIP3    H248715   0.166   2.739   1.859
 8246TIP3   OH248716   0.657   2.855   0.266
 8246TIP3    H148717   0.608   2.799   0.329
 8246TIP3    H248718   0.690   2.786   0.204
 8247TIP3   OH248719   0.580   2.630   1.496
 8247TIP3    H148720   0.523   2.704   1.522
 8247TIP3    H248721   0.623   2.669   1.417
 8248TIP3   OH248722   0.767   2.677   0.094
 8248TIP3    H148723   0.745   2.662  -0.000
 8248TIP3    H248724   0.864   2.683   0.097
 8249TIP3   OH248725   1.093   2.892   1.829
 8249TIP3    H148726   1.189   2.887   1.818
 8249TIP3    H248727   1.070   2.814   1.884
 8250TIP3   OH248728   1.697   2.904  11.012
 8250TIP3    H148729   1.679   2.866  10.926
 8250TIP3    H248730   1.702   2.999  10.991
 8251TIP3   OH248731   0.626   2.369   1.600
 8251TIP3    H148732   0.635   2.298   1.532
 8251TIP3    H248733   0.617   2.450   1.545
 8252TIP3   OH248734   0.665   2.209   1.358
 8252TIP3    H148735   0.715   2.255   1.286
 8252TIP3    H248736   0.575   2.201   1.318
 8253TIP3   OH248737   0.818   2.755   1.377
 8253TIP3    H148738   0.894   2.744   1.319
 8253TIP3    H248739   0.782   2.841   1.348
 8254TIP3   OH248740   1.260   2.531   1.875
 8254TIP3    H148741   1.284   2.439   1.865
 8254TIP3    H248742   1.344   2.579   1.879
 8255TIP3   OH248743   1.392   2.814   1.695
 8255TIP3    H148744   1.367   2.885   1.632
 8255TIP3    H248745   1.487   2.808   1.676
 8256TIP3   OH248746   0.467   2.495   1.789
 8256TIP3    H148747   0.393   2.433   1.776
 8256TIP3    H248748   0.535   2.460   1.729
 8257TIP3   OH248749   0.743   1.952   1.396
 8257TIP3    H148750   0.724   2.048   1.388
 8257TIP3    H248751   0.668   1.915   1.346
 8258TIP3   OH248752   0.871   2.381   1.760
 8258TIP3    H148753   0.838   2.365   1.851
 8258TIP3    H248754   0.790   2.365   1.708
 8259TIP3   OH248755   1.145   2.301   1.674
 8259TIP3    H148756   1.047   2.306   1.679
 8259TIP3    H248757   1.165   2.233   1.738
 8260TIP3   OH248758   1.327   2.157   1.873
 8260TIP3    H148759   1.292   2.066   1.857
 8260TIP3    H248760   1.267   2.192   1.943
 8261TIP3   OH248761   0.281   2.287   1.770
 8261TIP3    H148762   0.308   2.213   1.712
 8261TIP3    H248763   0.275   2.243   1.858
 8262TIP3   OH248764   0.765   1.892   1.666
 8262TIP3    H148765   0.830   1.819   1.667
 8262TIP3    H248766   0.750   1.904   1.570
 8263TIP3   OH248767   0.802   2.051   1.876
 8263TIP3    H148768   0.781   1.999   1.795
 8263TIP3    H248769   0.740   2.127   1.871
 8264TIP3   OH248770   0.747   3.748   0.199
 8264TIP3    H148771   0.845   3.754   0.203
 8264TIP3    H248772   0.727   3.809   0.126
 8265TIP3   OH248773   0.118   3.207   0.147
 8265TIP3    H148774   0.215   3.212   0.158
 8265TIP3    H248775   0.103   3.143   0.074
 8266TIP3   OH248776  -0.004   3.750   0.628
 8266TIP3    H148777  -0.085   3.703   0.599
 8266TIP3    H248778   0.015   3.690   0.702
 8267TIP3   OH248779   0.084   3.556   0.819
 8267TIP3    H148780   0.036   3.473   0.836
 8267TIP3    H248781   0.095   3.592   0.909
 8268TIP3   OH248782   1.817   3.633   1.119
 8268TIP3    H148783   1.821   3.649   1.215
 8268TIP3    H248784   1.888   3.692   1.089
 8269TIP3   OH248785   1.774   3.593   1.414
 8269TIP3    H148786   1.727   3.516   1.375
 8269TIP3    H248787   1.822   3.548   1.486
 8270TIP3   OH248788   1.619   3.164   1.882
 8270TIP3    H148789   1.528   3.163   1.917
 8270TIP3    H248790   1.656   3.245   1.922
 8271TIP3   OH248791   1.752   2.996   0.423
 8271TIP3    H148792   1.838   3.036   0.445
 8271TIP3    H248793   1.746   2.927   0.493
 8272TIP3   OH248794   1.786   2.806   0.613
 8272TIP3    H148795   1.711   2.756   0.651
 8272TIP3    H248796   1.846   2.818   0.690
 8273TIP3   OH248797   1.762   3.074   1.112
 8273TIP3    H148798   1.843   3.036   1.073
 8273TIP3    H248799   1.777   3.170   1.094
 8274TIP3   OH248800   1.618   3.366   1.338
 8274TIP3    H148801   1.549   3.400   1.397
 8274TIP3    H248802   1.564   3.326   1.267
 8275TIP3   OH248803   1.817   2.789   0.246
 8275TIP3    H148804   1.755   2.823   0.178
 8275TIP3    H248805   1.804   2.857   0.316
 8276TIP3   OH248806   1.654   2.515   0.102
 8276TIP3    H148807   1.654   2.580   0.032
 8276TIP3    H248808   1.633   2.430   0.059
 8277TIP3   OH248809   1.571   2.652   0.671
 8277TIP3    H148810   1.552   2.557   0.666
 8277TIP3    H248811   1.536   2.673   0.759
 8278TIP3   OH248812   0.069   2.858   1.075
 8278TIP3    H148813   0.088   2.852   0.980
 8278TIP3    H248814   0.157   2.846   1.114
 8279TIP3   OH248815   1.655   2.848   1.640
 8279TIP3    H148816   1.716   2.773   1.652
 8279TIP3    H248817   1.715   2.926   1.639
 8280TIP3   OH248818   1.804   2.638   1.700
 8280TIP3    H148819   1.716   2.597   1.688
 8280TIP3    H248820   1.861   2.559   1.697
 8281TIP3   OH248821   1.557   2.244   0.128
 8281TIP3    H148822   1.642   2.210   0.094
 8281TIP3    H248823   1.501   2.216   0.054
 8282TIP3   OH248824   1.533   2.412   0.515
 8282TIP3    H148825   1.563   2.318   0.526
 8282TIP3    H248826   1.613   2.450   0.477
 8283TIP3   OH248827   1.602   2.462   1.061
 8283TIP3    H148828   1.697   2.488   1.059
 8283TIP3    H248829   1.580   2.481   1.154
 8284TIP3   OH248830   1.606   2.538   1.334
 8284TIP3    H148831   1.518   2.566   1.370
 8284TIP3    H248832   1.649   2.624   1.315
 8285TIP3   OH248833   0.049   2.351   1.655
 8285TIP3    H148834   0.133   2.363   1.705
 8285TIP3    H248835  -0.009   2.308   1.718
 8286TIP3   OH248836   1.830   1.946   1.871
 8286TIP3    H148837   1.869   1.878   1.812
 8286TIP3    H248838   1.845   2.025   1.816
 8287TIP3   OH248839   1.603   2.140   0.521
 8287TIP3    H148840   1.625   2.096   0.606
 8287TIP3    H248841   1.542   2.077   0.477
 8288TIP3   OH248842   0.151   2.220   0.982
 8288TIP3    H148843   0.199   2.138   1.003
 8288TIP3    H248844   0.206   2.289   1.021
 8289TIP3   OH248845   0.001   2.529   1.089
 8289TIP3    H148846   0.047   2.505   1.006
 8289TIP3    H248847   0.035   2.617   1.106
 8290TIP3   OH248848   1.784   2.152   1.709
 8290TIP3    H148849   1.693   2.184   1.698
 8290TIP3    H248850   1.790   2.099   1.628
 8291TIP3   OH248851   1.794   2.139   0.176
 8291TIP3    H148852   1.835   2.073   0.119
 8291TIP3    H248853   1.861   2.209   0.186
 8292TIP3   OH248854   0.037   2.128   0.441
 8292TIP3    H148855  -0.057   2.151   0.453
 8292TIP3    H248856   0.073   2.208   0.397
 8293TIP3   OH248857   1.490   3.642   0.681
 8293TIP3    H148858   1.558   3.611   0.618
 8293TIP3    H248859   1.541   3.691   0.747
 8294TIP3   OH248860   0.028   2.025   1.331
 8294TIP3    H148861  -0.046   1.997   1.386
 8294TIP3    H248862  -0.026   2.086   1.275
 8295TIP3   OH248863   0.236   3.338   1.735
 8295TIP3    H148864   0.151   3.355   1.690
 8295TIP3    H248865   0.209   3.326   1.826
 8296TIP3   OH248866   0.522   3.433   1.360
 8296TIP3    H148867   0.490   3.521   1.333
 8296TIP3    H248868   0.616   3.441   1.331
 8297TIP3   OH248869   0.957   3.575   1.651
 8297TIP3    H148870   0.970   3.540   1.742
 8297TIP3    H248871   1.047   3.605   1.627
 8298TIP3   OH248872   1.185   3.702   1.583
 8298TIP3    H148873   1.259   3.644   1.559
 8298TIP3    H248874   1.222   3.746   1.662
 8299TIP3   OH248875   1.686   1.964   1.494
 8299TIP3    H148876   1.604   1.994   1.452
 8299TIP3    H248877   1.703   1.881   1.444
 8300TIP3   OH248878   0.265   3.754   1.359
 8300TIP3    H148879   0.191   3.806   1.322
 8300TIP3    H248880   0.233   3.742   1.450
 8301TIP3   OH248881   0.517   3.714   1.269
 8301TIP3    H148882   0.427   3.728   1.307
 8301TIP3    H248883   0.510   3.772   1.190
 8302TIP3   OH248884   0.985   3.705   1.184
 8302TIP3    H148885   0.938   3.760   1.119
 8302TIP3    H248886   0.997   3.768   1.258
 8303TIP3   OH248887   1.212   3.584   1.289
 8303TIP3    H148888   1.128   3.613   1.250
 8303TIP3    H248889   1.262   3.666   1.279
 8304TIP3   OH248890   1.471   3.742   1.309
 8304TIP3    H148891   1.467   3.838   1.286
 8304TIP3    H248892   1.493   3.704   1.221
 8305TIP3   OH248893   0.216   3.625   1.051
 8305TIP3    H148894   0.202   3.579   1.137
 8305TIP3    H248895   0.296   3.582   1.014
 8306TIP3   OH248896   0.420   3.491   0.920
 8306TIP3    H148897   0.405   3.397   0.944
 8306TIP3    H248898   0.506   3.508   0.965
 8307TIP3   OH248899   0.680   3.540   1.009
 8307TIP3    H148900   0.696   3.447   0.982
 8307TIP3    H248901   0.687   3.535   1.105
 8308TIP3   OH248902   1.026   2.104   0.920
 8308TIP3    H148903   0.958   2.041   0.950
 8308TIP3    H248904   1.081   2.051   0.863
 8309TIP3   OH248905   1.540   1.909   0.927
 8309TIP3    H148906   1.601   1.969   0.876
 8309TIP3    H248907   1.452   1.946   0.904
 8310TIP3   OH248908   1.706   2.035   0.754
 8310TIP3    H148909   1.775   1.978   0.713
 8310TIP3    H248910   1.758   2.118   0.766
 8311TIP3   OH248911   0.268   1.967   0.706
 8311TIP3    H148912   0.187   1.948   0.653
 8311TIP3    H248913   0.312   1.880   0.699
 8312TIP3   OH248914   0.145   1.940   0.283
 8312TIP3    H148915   0.187   2.007   0.226
 8312TIP3    H248916   0.089   1.998   0.339
 8313TIP3   OH248917   0.709   1.960   0.685
 8313TIP3    H148918   0.799   1.996   0.677
 8313TIP3    H248919   0.707   1.938   0.778
 8314TIP3   OH248920   1.283   1.962   0.847
 8314TIP3    H148921   1.276   1.974   0.751
 8314TIP3    H248922   1.244   1.872   0.860
 8315TIP3   OH248923   1.408   1.964   0.413
 8315TIP3    H148924   1.334   2.025   0.401
 8315TIP3    H248925   1.364   1.879   0.434
 8316TIP3   OH248926   0.132   3.544   0.379
 8316TIP3    H148927   0.067   3.542   0.308
 8316TIP3    H248928   0.132   3.639   0.396
 8317TIP3   OH248929   0.323   2.135   0.132
 8317TIP3    H148930   0.377   2.075   0.081
 8317TIP3    H248931   0.392   2.173   0.190
 8318TIP3   OH248932   0.830   2.162   0.365
 8318TIP3    H148933   0.851   2.104   0.441
 8318TIP3    H248934   0.834   2.247   0.414
 8319TIP3   OH248935   1.017   3.683   0.218
 8319TIP3    H148936   1.112   3.692   0.201
 8319TIP3    H248937   0.998   3.623   0.142
 8320TIP3   OH248938   1.689   3.621   0.484
 8320TIP3    H148939   1.668   3.541   0.430
 8320TIP3    H248940   1.679   3.694   0.419
 8321TIP3   OH248941   0.243   2.029   1.657
 8321TIP3    H148942   0.210   1.943   1.689
 8321TIP3    H248943   0.338   2.017   1.683
 8322TIP3   OH248944   0.468   1.949   1.760
 8322TIP3    H148945   0.557   1.929   1.791
 8322TIP3    H248946   0.422   1.903   1.832
 8323TIP3   OH248947   0.311   3.627   0.074
 8323TIP3    H148948   0.287   3.665   0.160
 8323TIP3    H248949   0.394   3.583   0.092
 8324TIP3   OH248950   1.294   1.893   1.833
 8324TIP3    H148951   1.300   1.839   1.914
 8324TIP3    H248952   1.384   1.883   1.795
 8325TIP3   OH248953   1.613   3.494   1.693
 8325TIP3    H148954   1.533   3.481   1.638
 8325TIP3    H248955   1.601   3.589   1.715
 8326TIP3   OH248956   3.059   2.882   0.689
 8326TIP3    H148957   3.056   2.980   0.689
 8326TIP3    H248958   2.984   2.859   0.632
 8327TIP3   OH248959   2.946   2.804   1.041
 8327TIP3    H148960   2.938   2.741   1.113
 8327TIP3    H248961   2.905   2.757   0.966
 8328TIP3   OH248962   2.178   2.775   1.197
 8328TIP3    H148963   2.186   2.706   1.266
 8328TIP3    H248964   2.253   2.832   1.220
 8329TIP3   OH248965   3.311   3.102   0.871
 8329TIP3    H148966   3.271   3.030   0.921
 8329TIP3    H248967   3.314   3.173   0.938
 8330TIP3   OH248968   2.270   3.221   1.045
 8330TIP3    H148969   2.240   3.133   1.015
 8330TIP3    H248970   2.366   3.203   1.050
 8331TIP3   OH248971   1.936   2.574   0.595
 8331TIP3    H148972   1.891   2.661   0.590
 8331TIP3    H248973   1.878   2.521   0.540
 8332TIP3   OH248974   2.008   2.799   0.812
 8332TIP3    H148975   2.035   2.715   0.855
 8332TIP3    H248976   2.075   2.809   0.743
 8333TIP3   OH248977   3.023   3.619   0.895
 8333TIP3    H148978   3.088   3.550   0.865
 8333TIP3    H248979   3.001   3.583   0.981
 8334TIP3   OH248980   2.780   3.046   1.091
 8334TIP3    H148981   2.814   2.985   1.023
 8334TIP3    H248982   2.862   3.063   1.141
 8335TIP3   OH248983   3.636   2.212   1.153
 8335TIP3    H148984   3.658   2.265   1.234
 8335TIP3    H248985   3.699   2.254   1.094
 8336TIP3   OH248986   3.107   2.491   1.123
 8336TIP3    H148987   3.109   2.393   1.116
 8336TIP3    H248988   3.086   2.510   1.029
 8337TIP3   OH248989   2.408   2.303   0.842
 8337TIP3    H148990   2.420   2.386   0.792
 8337TIP3    H248991   2.369   2.246   0.772
 8338TIP3   OH248992   3.182   2.309   0.678
 8338TIP3    H148993   3.247   2.279   0.746
 8338TIP3    H248994   3.239   2.367   0.625
 8339TIP3   OH248995   2.070   2.545   0.915
 8339TIP3    H148996   2.137   2.491   0.961
 8339TIP3    H248997   2.082   2.513   0.824
 8340TIP3   OH248998   2.586   2.700   0.848
 8340TIP3    H148999   2.654   2.642   0.886
 8340TIP3    H249000   2.535   2.635   0.796
 8341TIP3   OH249001   3.697   2.347   1.362
 8341TIP3    H149002   3.635   2.423   1.367
 8341TIP3    H249003   3.698   2.341   1.461
 8342TIP3   OH249004   2.300   2.193   1.245
 8342TIP3    H149005   2.272   2.251   1.171
 8342TIP3    H249006   2.233   2.216   1.314
 8343TIP3   OH249007   3.027   3.141   0.602
 8343TIP3    H149008   3.000   3.113   0.513
 8343TIP3    H249009   2.998   3.235   0.604
 8344TIP3   OH249010   2.551   2.957   1.269
 8344TIP3    H149011   2.481   3.021   1.292
 8344TIP3    H249012   2.622   3.017   1.240
 8345TIP3   OH249013   3.361   2.247   0.880
 8345TIP3    H149014   3.344   2.169   0.934
 8345TIP3    H249015   3.433   2.288   0.930
 8346TIP3   OH249016   2.258   2.379   1.050
 8346TIP3    H149017   2.321   2.448   1.080
 8346TIP3    H249018   2.308   2.338   0.975
 8347TIP3   OH249019   2.396   3.158   1.351
 8347TIP3    H149020   2.391   3.250   1.318
 8347TIP3    H249021   2.308   3.150   1.396
 8348TIP3   OH249022   2.002   3.116   0.429
 8348TIP3    H149023   1.980   3.152   0.340
 8348TIP3    H249024   2.010   3.198   0.482
 8349TIP3   OH249025   3.364   3.286   1.107
 8349TIP3    H149026   3.267   3.298   1.119
 8349TIP3    H249027   3.391   3.378   1.086
 8350TIP3   OH249028   3.394   2.111   1.240
 8350TIP3    H149029   3.325   2.178   1.234
 8350TIP3    H249030   3.470   2.155   1.196
 8351TIP3   OH249031   2.693   1.928   0.990
 8351TIP3    H149032   2.677   1.831   0.983
 8351TIP3    H249033   2.605   1.958   1.023
 8352TIP3   OH249034   3.191   3.464   0.769
 8352TIP3    H149035   3.232   3.392   0.716
 8352TIP3    H249036   3.236   3.542   0.729
 8353TIP3   OH249037   3.312   3.257   0.619
 8353TIP3    H149038   3.283   3.188   0.556
 8353TIP3    H249039   3.315   3.206   0.703
 8354TIP3   OH249040   3.472   3.117   1.467
 8354TIP3    H149041   3.487   3.051   1.396
 8354TIP3    H249042   3.494   3.200   1.421
 8355TIP3   OH249043   2.921   2.802   0.441
 8355TIP3    H149044   2.855   2.866   0.408
 8355TIP3    H249045   2.995   2.817   0.379
 8356TIP3   OH249046   2.930   2.649   0.150
 8356TIP3    H149047   3.000   2.670   0.216
 8356TIP3    H249048   2.984   2.606   0.086
 8357TIP3   OH249049   3.659   2.745   1.268
 8357TIP3    H149050   3.597   2.821   1.275
 8357TIP3    H249051   3.713   2.772   1.192
 8358TIP3   OH249052   3.269   2.827   0.536
 8358TIP3    H149053   3.194   2.851   0.596
 8358TIP3    H249054   3.317   2.759   0.589
 8359TIP3   OH249055   3.259   2.655   1.445
 8359TIP3    H149056   3.263   2.729   1.509
 8359TIP3    H249057   3.188   2.691   1.388
 8360TIP3   OH249058   2.428   2.892   0.727
 8360TIP3    H149059   2.397   2.853   0.642
 8360TIP3    H249060   2.491   2.823   0.760
 8361TIP3   OH249061   2.560   3.230   0.995
 8361TIP3    H149062   2.561   3.179   0.913
 8361TIP3    H249063   2.639   3.195   1.041
 8362TIP3   OH249064   2.464   2.766   1.095
 8362TIP3    H149065   2.515   2.776   1.013
 8362TIP3    H249066   2.502   2.834   1.154
 8363TIP3   OH249067   3.105   3.326   1.165
 8363TIP3    H149068   3.075   3.390   1.231
 8363TIP3    H249069   3.078   3.241   1.206
 8364TIP3   OH249070   2.557   3.211   1.563
 8364TIP3    H149071   2.515   3.284   1.612
 8364TIP3    H249072   2.491   3.190   1.493
 8365TIP3   OH249073   3.154   2.746   0.300
 8365TIP3    H149074   3.208   2.765   0.381
 8365TIP3    H249075   3.201   2.798   0.232
 8366TIP3   OH249076   2.252   2.827   1.476
 8366TIP3    H149077   2.258   2.892   1.549
 8366TIP3    H249078   2.157   2.834   1.457
 8367TIP3   OH249079   2.929   3.420   0.646
 8367TIP3    H149080   2.969   3.450   0.728
 8367TIP3    H249081   2.871   3.494   0.623
 8368TIP3   OH249082   2.382   3.413   1.637
 8368TIP3    H149083   2.375   3.404   1.541
 8368TIP3    H249084   2.290   3.399   1.665
 8369TIP3   OH249085   3.531   1.920   0.290
 8369TIP3    H149086   3.435   1.928   0.312
 8369TIP3    H249087   3.548   2.004   0.246
 8370TIP3   OH249088   2.327   2.793   0.486
 8370TIP3    H149089   2.296   2.873   0.438
 8370TIP3    H249090   2.260   2.728   0.465
 8371TIP3   OH249091   3.643   3.353   0.128
 8371TIP3    H149092   3.656   3.448   0.146
 8371TIP3    H249093   3.734   3.322   0.125
 8372TIP3   OH249094   1.934   3.038   1.380
 8372TIP3    H149095   1.891   3.030   1.293
 8372TIP3    H249096   1.944   2.943   1.401
 8373TIP3   OH249097   1.911   3.312   1.056
 8373TIP3    H149098   2.006   3.300   1.054
 8373TIP3    H249099   1.903   3.394   1.106
 8374TIP3   OH249100   3.734   3.382   1.624
 8374TIP3    H149101   3.722   3.286   1.622
 8374TIP3    H249102   3.648   3.407   1.664
 8375TIP3   OH249103   2.830   3.335   1.511
 8375TIP3    H149104   2.836   3.420   1.562
 8375TIP3    H249105   2.743   3.299   1.536
 8376TIP3   OH249106   2.874   3.711   0.492
 8376TIP3    H149107   2.865   3.705   0.395
 8376TIP3    H249108   2.878   3.806   0.508
 8377TIP3   OH249109   2.238   3.600   0.673
 8377TIP3    H149110   2.254   3.558   0.760
 8377TIP3    H249111   2.154   3.557   0.649
 8378TIP3   OH249112   3.175   3.627   0.196
 8378TIP3    H149113   3.230   3.557   0.152
 8378TIP3    H249114   3.186   3.601   0.290
 8379TIP3   OH249115   3.149   3.625   0.468
 8379TIP3    H149116   3.052   3.632   0.486
 8379TIP3    H249117   3.173   3.551   0.525
 8380TIP3   OH249118   3.354   2.548   1.688
 8380TIP3    H149119   3.395   2.591   1.610
 8380TIP3    H249120   3.415   2.471   1.679
 8381TIP3   OH249121   2.164   3.169   1.473
 8381TIP3    H149122   2.185   3.133   1.562
 8381TIP3    H249123   2.077   3.130   1.452
 8382TIP3   OH249124   2.432   2.018   1.065
 8382TIP3    H149125   2.341   2.004   1.030
 8382TIP3    H249126   2.418   2.098   1.118
 8383TIP3   OH249127   2.896   1.981   1.403
 8383TIP3    H149128   2.932   1.941   1.484
 8383TIP3    H249129   2.798   1.974   1.416
 8384TIP3   OH249130   3.212   2.375   1.488
 8384TIP3    H149131   3.172   2.342   1.573
 8384TIP3    H249132   3.202   2.471   1.499
 8385TIP3   OH249133   3.307   2.832   0.089
 8385TIP3    H149134   3.293   2.844  -0.006
 8385TIP3    H249135   3.384   2.891   0.097
 8386TIP3   OH249136   2.856   2.247   0.139
 8386TIP3    H149137   2.826   2.231   0.231
 8386TIP3    H249138   2.832   2.158   0.106
 8387TIP3   OH249139   2.443   2.516   1.195
 8387TIP3    H149140   2.368   2.514   1.258
 8387TIP3    H249141   2.435   2.605   1.155
 8388TIP3   OH249142   2.438   2.524   0.681
 8388TIP3    H149143   2.344   2.501   0.666
 8388TIP3    H249144   2.475   2.498   0.595
 8389TIP3   OH249145   2.988   2.574   0.552
 8389TIP3    H149146   2.952   2.659   0.520
 8389TIP3    H249147   3.061   2.560   0.490
 8390TIP3   OH249148   2.897   2.596   1.696
 8390TIP3    H149149   2.844   2.520   1.731
 8390TIP3    H249150   2.978   2.587   1.749
 8391TIP3   OH249151   3.095   2.525   0.843
 8391TIP3    H149152   3.064   2.582   0.769
 8391TIP3    H249153   3.102   2.441   0.794
 8392TIP3   OH249154   2.203   2.538   1.360
 8392TIP3    H149155   2.214   2.579   1.447
 8392TIP3    H249156   2.160   2.454   1.383
 8393TIP3   OH249157   2.549   2.190   0.063
 8393TIP3    H149158   2.504   2.208   0.147
 8393TIP3    H249159   2.492   2.253   0.015
 8394TIP3   OH249160   1.870   2.249   0.761
 8394TIP3    H149161   1.939   2.245   0.831
 8394TIP3    H249162   1.915   2.213   0.682
 8395TIP3   OH249163   1.996   2.321   0.294
 8395TIP3    H149164   2.048   2.383   0.239
 8395TIP3    H249165   1.928   2.383   0.329
 8396TIP3   OH249166   3.025   2.679   1.303
 8396TIP3    H149167   3.041   2.617   1.231
 8396TIP3    H249168   2.961   2.633   1.361
 8397TIP3   OH249169   2.694   2.283   0.780
 8397TIP3    H149170   2.601   2.281   0.808
 8397TIP3    H249171   2.742   2.263   0.862
 8398TIP3   OH249172   2.174   2.436   0.667
 8398TIP3    H149173   2.086   2.452   0.627
 8398TIP3    H249174   2.202   2.352   0.626
 8399TIP3   OH249175   2.539   2.440   0.429
 8399TIP3    H149176   2.633   2.453   0.449
 8399TIP3    H249177   2.512   2.510   0.367
 8400TIP3   OH249178   3.135   2.210   1.105
 8400TIP3    H149179   3.063   2.206   1.173
 8400TIP3    H249180   3.089   2.176   1.027
 8401TIP3   OH249181   2.404   2.569   0.193
 8401TIP3    H149182   2.355   2.520   0.125
 8401TIP3    H249183   2.488   2.576   0.145
 8402TIP3   OH249184   3.453   3.769   1.737
 8402TIP3    H149185   3.481   3.806   1.651
 8402TIP3    H249186   3.526   3.800   1.793
 8403TIP3   OH249187   2.221   3.019   1.693
 8403TIP3    H149188   2.294   3.041   1.754
 8403TIP3    H249189   2.145   3.022   1.754
 8404TIP3   OH249190   2.825   2.558   0.973
 8404TIP3    H149191   2.878   2.503   0.914
 8404TIP3    H249192   2.803   2.500   1.046
 8405TIP3   OH249193   2.322   2.171   0.615
 8405TIP3    H149194   2.291   2.079   0.613
 8405TIP3    H249195   2.400   2.164   0.558
 8406TIP3   OH249196   2.686   2.390   1.210
 8406TIP3    H149197   2.603   2.441   1.218
 8406TIP3    H249198   2.739   2.425   1.283
 8407TIP3   OH249199   2.745   3.009   0.382
 8407TIP3    H149200   2.664   2.964   0.347
 8407TIP3    H249201   2.720   3.025   0.475
 8408TIP3   OH249202   3.465   2.929   1.260
 8408TIP3    H149203   3.520   2.982   1.198
 8408TIP3    H249204   3.378   2.938   1.215
 8409TIP3   OH249205   3.128   2.308   0.174
 8409TIP3    H149206   3.033   2.300   0.192
 8409TIP3    H249207   3.164   2.374   0.238
 8410TIP3   OH249208   2.893   3.040   1.505
 8410TIP3    H149209   2.859   2.996   1.583
 8410TIP3    H249210   2.867   3.132   1.517
 8411TIP3   OH249211   3.199   2.485   0.363
 8411TIP3    H149212   3.288   2.468   0.401
 8411TIP3    H249213   3.215   2.569   0.317
 8412TIP3   OH249214   2.256   2.953   0.961
 8412TIP3    H149215   2.323   2.943   0.890
 8412TIP3    H249216   2.261   2.867   1.006
 8413TIP3   OH249217   2.954   3.156   0.284
 8413TIP3    H149218   2.920   3.242   0.316
 8413TIP3    H249219   2.880   3.096   0.305
 8414TIP3   OH249220   1.954   2.792   1.486
 8414TIP3    H149221   1.970   2.747   1.572
 8414TIP3    H249222   1.892   2.731   1.442
 8415TIP3   OH249223   2.656   2.748   1.703
 8415TIP3    H149224   2.623   2.715   1.618
 8415TIP3    H249225   2.748   2.715   1.703
 8416TIP3   OH249226   3.125   3.282   1.501
 8416TIP3    H149227   3.033   3.299   1.477
 8416TIP3    H249228   3.121   3.312   1.594
 8417TIP3   OH249229   3.690   2.498   0.341
 8417TIP3    H149230   3.633   2.469   0.267
 8417TIP3    H249231   3.697   2.592   0.314
 8418TIP3   OH249232   3.690   3.085   1.618
 8418TIP3    H149233   3.600   3.108   1.582
 8418TIP3    H249234   3.744   3.081   1.537
 8419TIP3   OH249235   3.523   3.379   0.379
 8419TIP3    H149236   3.483   3.298   0.410
 8419TIP3    H249237   3.548   3.363   0.286
 8420TIP3   OH249238   3.240   2.860   1.093
 8420TIP3    H149239   3.146   2.845   1.074
 8420TIP3    H249240   3.284   2.790   1.041
 8421TIP3   OH249241   2.492   3.297   0.699
 8421TIP3    H149242   2.542   3.378   0.679
 8421TIP3    H249243   2.405   3.320   0.666
 8422TIP3   OH249244   2.069   2.782   0.149
 8422TIP3    H149245   2.127   2.842   0.199
 8422TIP3    H249246   1.981   2.811   0.182
 8423TIP3   OH249247   2.634   3.064   0.651
 8423TIP3    H149248   2.601   3.155   0.658
 8423TIP3    H249249   2.563   3.013   0.695
 8424TIP3   OH249250   2.679   3.482   1.293
 8424TIP3    H149251   2.726   3.562   1.263
 8424TIP3    H249252   2.741   3.447   1.359
 8425TIP3   OH249253   2.501   3.561   0.606
 8425TIP3    H149254   2.405   3.577   0.617
 8425TIP3    H249255   2.538   3.646   0.636
 8426TIP3   OH249256   3.028   3.081   1.253
 8426TIP3    H149257   2.999   3.062   1.344
 8426TIP3    H249258   3.095   3.013   1.236
 8427TIP3   OH249259   3.259   3.186   0.163
 8427TIP3    H149260   3.296   3.143   0.242
 8427TIP3    H249261   3.165   3.169   0.177
 8428TIP3   OH249262   3.314   3.539   1.502
 8428TIP3    H149263   3.244   3.491   1.455
 8428TIP3    H249264   3.331   3.610   1.435
 8429TIP3   OH249265   3.709   3.626   0.187
 8429TIP3    H149266   3.783   3.688   0.170
 8429TIP3    H249267   3.639   3.688   0.215
 8430TIP3   OH249268   2.119   2.265   1.440
 8430TIP3    H149269   2.029   2.300   1.440
 8430TIP3    H249270   2.108   2.181   1.488
 8431TIP3   OH249271   3.343   3.053   0.392
 8431TIP3    H149272   3.319   2.972   0.441
 8431TIP3    H249273   3.439   3.055   0.404
 8432TIP3   OH249274   2.080   3.443   1.284
 8432TIP3    H149275   2.112   3.351   1.285
 8432TIP3    H249276   2.107   3.473   1.371
 8433TIP3   OH249277   2.553   3.251   0.258
 8433TIP3    H149278   2.586   3.199   0.332
 8433TIP3    H249279   2.565   3.343   0.290
 8434TIP3   OH249280   2.206   2.974   0.303
 8434TIP3    H149281   2.137   3.014   0.360
 8434TIP3    H249282   2.261   3.051   0.280
 8435TIP3   OH249283   2.998   2.242   1.337
 8435TIP3    H149284   3.064   2.247   1.407
 8435TIP3    H249285   2.951   2.159   1.357
 8436TIP3   OH249286   3.064   2.202   0.447
 8436TIP3    H149287   3.096   2.246   0.368
 8436TIP3    H249288   3.123   2.240   0.514
 8437TIP3   OH249289   2.832   3.413   0.324
 8437TIP3    H149290   2.754   3.469   0.340
 8437TIP3    H249291   2.890   3.468   0.269
 8438TIP3   OH249292   2.790   2.375   0.528
 8438TIP3    H149293   2.868   2.434   0.535
 8438TIP3    H249294   2.763   2.361   0.621
 8439TIP3   OH249295   2.850   2.481   1.444
 8439TIP3    H149296   2.850   2.531   1.528
 8439TIP3    H249297   2.907   2.404   1.460
 8440TIP3   OH249298   2.875   2.079   0.616
 8440TIP3    H149299   2.842   2.144   0.681
 8440TIP3    H249300   2.944   2.135   0.571
 8441TIP3   OH249301   2.573   3.521   0.333
 8441TIP3    H149302   2.589   3.603   0.280
 8441TIP3    H249303   2.546   3.556   0.420
 8442TIP3   OH249304   2.438   2.192   0.301
 8442TIP3    H149305   2.436   2.285   0.328
 8442TIP3    H249306   2.530   2.166   0.316
 8443TIP3   OH249307   3.425   2.213   1.496
 8443TIP3    H149308   3.371   2.291   1.522
 8443TIP3    H249309   3.496   2.262   1.451
 8444TIP3   OH249310   3.322   2.643   0.938
 8444TIP3    H149311   3.243   2.597   0.903
 8444TIP3    H249312   3.376   2.573   0.979
 8445TIP3   OH249313   2.267   3.233   0.193
 8445TIP3    H149314   2.332   3.296   0.226
 8445TIP3    H249315   2.316   3.189   0.122
 8446TIP3   OH249316   2.098   2.503   0.107
 8446TIP3    H149317   2.098   2.599   0.126
 8446TIP3    H249318   2.009   2.486   0.075
 8447TIP3   OH249319   3.431   3.569   1.100
 8447TIP3    H149320   3.423   3.637   1.029
 8447TIP3    H249321   3.527   3.574   1.117
 8448TIP3   OH249322   2.180   1.980   0.982
 8448TIP3    H149323   2.161   1.982   0.885
 8448TIP3    H249324   2.139   1.894   1.006
 8449TIP3   OH249325   2.075   3.374   0.596
 8449TIP3    H149326   1.988   3.417   0.590
 8449TIP3    H249327   2.121   3.418   0.523
 8450TIP3   OH249328   1.995   3.638   1.723
 8450TIP3    H149329   2.056   3.619   1.797
 8450TIP3    H249330   1.956   3.551   1.705
 8451TIP3   OH249331   2.465   3.530   1.884
 8451TIP3    H149332   2.540   3.480   1.917
 8451TIP3    H249333   2.461   3.502   1.790
 8452TIP3   OH249334   2.884   3.492   0.052
 8452TIP3    H149335   2.813   3.427   0.068
 8452TIP3    H249336   2.954   3.441   0.009
 8453TIP3   OH249337   3.113   3.369   1.760
 8453TIP3    H149338   3.082   3.280   1.787
 8453TIP3    H249339   3.191   3.381   1.818
 8454TIP3   OH249340   3.356   3.450   0.100
 8454TIP3    H149341   3.368   3.354   0.097
 8454TIP3    H249342   3.389   3.479   0.013
 8455TIP3   OH249343   1.986   3.015   1.823
 8455TIP3    H149344   2.002   2.924   1.794
 8455TIP3    H249345   1.912   3.040   1.765
 8456TIP3   OH249346   2.407   3.033   0.026
 8456TIP3    H149347   2.438   2.965   0.089
 8456TIP3    H249348   2.485   3.039  -0.032
 8457TIP3   OH249349   2.658   3.014   1.761
 8457TIP3    H149350   2.625   3.046   1.675
 8457TIP3    H249351   2.665   2.917   1.750
 8458TIP3   OH249352   3.229   2.996   1.498
 8458TIP3    H149353   3.307   3.056   1.496
 8458TIP3    H249354   3.159   3.063   1.505
 8459TIP3   OH249355   2.078   2.737   1.761
 8459TIP3    H149356   2.121   2.651   1.755
 8459TIP3    H249357   2.057   2.739   1.856
 8460TIP3   OH249358   2.544   2.854   0.265
 8460TIP3    H149359   2.493   2.801   0.330
 8460TIP3    H249360   2.573   2.783   0.203
 8461TIP3   OH249361   2.468   2.632   1.496
 8461TIP3    H149362   2.409   2.704   1.521
 8461TIP3    H249363   2.509   2.669   1.416
 8462TIP3   OH249364   2.655   2.664   0.093
 8462TIP3    H149365   2.626   2.670  -0.001
 8462TIP3    H249366   2.747   2.696   0.097
 8463TIP3   OH249367   2.975   2.891   1.832
 8463TIP3    H149368   3.070   2.888   1.815
 8463TIP3    H249369   2.960   2.812   1.886
 8464TIP3   OH249370   3.581   2.903  11.013
 8464TIP3    H149371   3.565   2.865  10.926
 8464TIP3    H249372   3.587   2.998  10.992
 8465TIP3   OH249373   2.510   2.370   1.601
 8465TIP3    H149374   2.521   2.299   1.535
 8465TIP3    H249375   2.503   2.451   1.548
 8466TIP3   OH249376   2.550   2.207   1.357
 8466TIP3    H149377   2.600   2.254   1.286
 8466TIP3    H249378   2.460   2.201   1.318
 8467TIP3   OH249379   2.703   2.760   1.382
 8467TIP3    H149380   2.777   2.742   1.324
 8467TIP3    H249381   2.665   2.842   1.348
 8468TIP3   OH249382   3.141   2.532   1.879
 8468TIP3    H149383   3.169   2.441   1.866
 8468TIP3    H249384   3.228   2.577   1.878
 8469TIP3   OH249385   3.277   2.819   1.696
 8469TIP3    H149386   3.253   2.888   1.632
 8469TIP3    H249387   3.372   2.811   1.678
 8470TIP3   OH249388   2.357   2.496   1.792
 8470TIP3    H149389   2.279   2.438   1.780
 8470TIP3    H249390   2.421   2.457   1.730
 8471TIP3   OH249391   2.629   1.952   1.396
 8471TIP3    H149392   2.609   2.048   1.386
 8471TIP3    H249393   2.554   1.915   1.345
 8472TIP3   OH249394   2.757   2.385   1.760
 8472TIP3    H149395   2.724   2.361   1.849
 8472TIP3    H249396   2.679   2.364   1.705
 8473TIP3   OH249397   3.025   2.293   1.665
 8473TIP3    H149398   2.930   2.306   1.682
 8473TIP3    H249399   3.054   2.241   1.742
 8474TIP3   OH249400   3.181   2.157   1.858
 8474TIP3    H149401   3.179   2.061   1.867
 8474TIP3    H249402   3.161   2.192   1.948
 8475TIP3   OH249403   2.165   2.289   1.768
 8475TIP3    H149404   2.188   2.214   1.711
 8475TIP3    H249405   2.153   2.247   1.856
 8476TIP3   OH249406   2.650   1.893   1.666
 8476TIP3    H149407   2.713   1.818   1.667
 8476TIP3    H249408   2.639   1.904   1.570
 8477TIP3   OH249409   2.687   2.052   1.879
 8477TIP3    H149410   2.669   2.001   1.796
 8477TIP3    H249411   2.628   2.129   1.868
 8478TIP3   OH249412   2.633   3.748   0.199
 8478TIP3    H149413   2.730   3.754   0.203
 8478TIP3    H249414   2.613   3.809   0.126
 8479TIP3   OH249415   1.996   3.200   0.144
 8479TIP3    H149416   2.091   3.213   0.162
 8479TIP3    H249417   1.998   3.142   0.067
 8480TIP3   OH249418   1.868   3.740   0.638
 8480TIP3    H149419   1.795   3.691   0.593
 8480TIP3    H249420   1.894   3.674   0.706
 8481TIP3   OH249421   1.949   3.554   0.827
 8481TIP3    H149422   1.913   3.466   0.847
 8481TIP3    H249423   1.972   3.587   0.916
 8482TIP3   OH249424   3.703   3.633   1.119
 8482TIP3    H149425   3.706   3.649   1.215
 8482TIP3    H249426   3.773   3.692   1.089
 8483TIP3   OH249427   3.660   3.593   1.414
 8483TIP3    H149428   3.613   3.516   1.375
 8483TIP3    H249429   3.708   3.548   1.486
 8484TIP3   OH249430   3.503   3.163   1.881
 8484TIP3    H149431   3.413   3.162   1.917
 8484TIP3    H249432   3.541   3.244   1.920
 8485TIP3   OH249433   3.638   2.996   0.423
 8485TIP3    H149434   3.724   3.037   0.445
 8485TIP3    H249435   3.634   2.927   0.492
 8486TIP3   OH249436   3.671   2.806   0.613
 8486TIP3    H149437   3.596   2.756   0.652
 8486TIP3    H249438   3.731   2.818   0.690
 8487TIP3   OH249439   3.648   3.075   1.111
 8487TIP3    H149440   3.728   3.037   1.073
 8487TIP3    H249441   3.663   3.171   1.094
 8488TIP3   OH249442   3.504   3.366   1.338
 8488TIP3    H149443   3.435   3.400   1.397
 8488TIP3    H249444   3.449   3.326   1.267
 8489TIP3   OH249445   3.702   2.789   0.246
 8489TIP3    H149446   3.640   2.823   0.178
 8489TIP3    H249447   3.690   2.857   0.316
 8490TIP3   OH249448   3.539   2.514   0.102
 8490TIP3    H149449   3.539   2.580   0.033
 8490TIP3    H249450   3.519   2.430   0.059
 8491TIP3   OH249451   3.454   2.653   0.671
 8491TIP3    H149452   3.440   2.557   0.666
 8491TIP3    H249453   3.423   2.673   0.761
 8492TIP3   OH249454   1.955   2.862   1.077
 8492TIP3    H149455   1.972   2.853   0.980
 8492TIP3    H249456   2.045   2.843   1.111
 8493TIP3   OH249457   3.538   2.848   1.637
 8493TIP3    H149458   3.601   2.775   1.654
 8493TIP3    H249459   3.599   2.925   1.638
 8494TIP3   OH249460   3.698   2.655   1.725
 8494TIP3    H149461   3.615   2.612   1.694
 8494TIP3    H249462   3.751   2.576   1.702
 8495TIP3   OH249463   3.443   2.243   0.129
 8495TIP3    H149464   3.529   2.210   0.095
 8495TIP3    H249465   3.388   2.215   0.054
 8496TIP3   OH249466   3.418   2.411   0.515
 8496TIP3    H149467   3.449   2.318   0.526
 8496TIP3    H249468   3.498   2.451   0.478
 8497TIP3   OH249469   3.483   2.466   1.060
 8497TIP3    H149470   3.580   2.487   1.057
 8497TIP3    H249471   3.473   2.479   1.156
 8498TIP3   OH249472   3.479   2.542   1.316
 8498TIP3    H149473   3.419   2.577   1.384
 8498TIP3    H249474   3.544   2.617   1.315
 8499TIP3   OH249475   1.915   2.391   1.696
 8499TIP3    H149476   2.009   2.370   1.711
 8499TIP3    H249477   1.870   2.307   1.718
 8500TIP3   OH249478   3.721   1.939   1.873
 8500TIP3    H149479   3.755   1.877   1.808
 8500TIP3    H249480   3.729   2.023   1.821
 8501TIP3   OH249481   3.488   2.140   0.521
 8501TIP3    H149482   3.511   2.096   0.606
 8501TIP3    H249483   3.428   2.076   0.477
 8502TIP3   OH249484   2.037   2.221   0.977
 8502TIP3    H149485   2.082   2.137   1.002
 8502TIP3    H249486   2.093   2.289   1.015
 8503TIP3   OH249487   1.865   2.521   1.080
 8503TIP3    H149488   1.921   2.495   1.004
 8503TIP3    H249489   1.913   2.601   1.107
 8504TIP3   OH249490   3.670   2.142   1.713
 8504TIP3    H149491   3.584   2.188   1.702
 8504TIP3    H249492   3.675   2.102   1.625
 8505TIP3   OH249493   3.680   2.140   0.175
 8505TIP3    H149494   3.721   2.073   0.119
 8505TIP3    H249495   3.747   2.209   0.186
 8506TIP3   OH249496   1.900   2.147   0.489
 8506TIP3    H149497   1.806   2.165   0.473
 8506TIP3    H249498   1.942   2.196   0.417
 8507TIP3   OH249499   3.374   3.641   0.683
 8507TIP3    H149500   3.442   3.612   0.619
 8507TIP3    H249501   3.426   3.691   0.747
 8508TIP3   OH249502   1.896   2.011   1.317
 8508TIP3    H149503   1.829   1.993   1.385
 8508TIP3    H249504   1.850   2.078   1.262
 8509TIP3   OH249505   2.121   3.331   1.732
 8509TIP3    H149506   2.037   3.354   1.689
 8509TIP3    H249507   2.094   3.323   1.824
 8510TIP3   OH249508   2.410   3.433   1.361
 8510TIP3    H149509   2.378   3.520   1.334
 8510TIP3    H249510   2.503   3.440   1.331
 8511TIP3   OH249511   2.842   3.575   1.650
 8511TIP3    H149512   2.855   3.539   1.741
 8511TIP3    H249513   2.933   3.605   1.627
 8512TIP3   OH249514   3.071   3.702   1.583
 8512TIP3    H149515   3.144   3.644   1.559
 8512TIP3    H249516   3.108   3.746   1.662
 8513TIP3   OH249517   3.566   1.953   1.500
 8513TIP3    H149518   3.498   1.999   1.448
 8513TIP3    H249519   3.593   1.881   1.439
 8514TIP3   OH249520   2.152   3.756   1.359
 8514TIP3    H149521   2.079   3.806   1.320
 8514TIP3    H249522   2.122   3.737   1.449
 8515TIP3   OH249523   2.399   3.713   1.267
 8515TIP3    H149524   2.310   3.729   1.306
 8515TIP3    H249525   2.394   3.772   1.190
 8516TIP3   OH249526   2.870   3.705   1.184
 8516TIP3    H149527   2.824   3.761   1.120
 8516TIP3    H249528   2.883   3.767   1.258
 8517TIP3   OH249529   3.097   3.584   1.289
 8517TIP3    H149530   3.014   3.614   1.250
 8517TIP3    H249531   3.148   3.667   1.279
 8518TIP3   OH249532   3.356   3.742   1.309
 8518TIP3    H149533   3.353   3.838   1.286
 8518TIP3    H249534   3.379   3.704   1.221
 8519TIP3   OH249535   2.100   3.621   1.055
 8519TIP3    H149536   2.090   3.574   1.140
 8519TIP3    H249537   2.181   3.582   1.016
 8520TIP3   OH249538   2.306   3.492   0.920
 8520TIP3    H149539   2.290   3.399   0.944
 8520TIP3    H249540   2.392   3.508   0.964
 8521TIP3   OH249541   2.568   3.541   1.008
 8521TIP3    H149542   2.582   3.448   0.982
 8521TIP3    H249543   2.571   3.535   1.105
 8522TIP3   OH249544   2.912   2.106   0.920
 8522TIP3    H149545   2.845   2.042   0.950
 8522TIP3    H249546   2.967   2.052   0.863
 8523TIP3   OH249547   3.426   1.909   0.925
 8523TIP3    H149548   3.486   1.970   0.876
 8523TIP3    H249549   3.337   1.946   0.904
 8524TIP3   OH249550   3.591   2.036   0.754
 8524TIP3    H149551   3.659   1.978   0.714
 8524TIP3    H249552   3.643   2.119   0.767
 8525TIP3   OH249553   2.149   1.967   0.708
 8525TIP3    H149554   2.070   1.950   0.654
 8525TIP3    H249555   2.194   1.881   0.700
 8526TIP3   OH249556   2.028   1.943   0.284
 8526TIP3    H149557   2.073   2.008   0.227
 8526TIP3    H249558   1.972   2.000   0.339
 8527TIP3   OH249559   2.595   1.960   0.685
 8527TIP3    H149560   2.685   1.996   0.676
 8527TIP3    H249561   2.593   1.939   0.778
 8528TIP3   OH249562   3.169   1.962   0.846
 8528TIP3    H149563   3.162   1.974   0.751
 8528TIP3    H249564   3.129   1.872   0.860
 8529TIP3   OH249565   3.294   1.965   0.414
 8529TIP3    H149566   3.219   2.024   0.400
 8529TIP3    H249567   3.250   1.878   0.434
 8530TIP3   OH249568   2.018   3.539   0.376
 8530TIP3    H149569   1.945   3.540   0.311
 8530TIP3    H249570   2.019   3.632   0.398
 8531TIP3   OH249571   2.207   2.131   0.134
 8531TIP3    H149572   2.264   2.076   0.081
 8531TIP3    H249573   2.274   2.174   0.191
 8532TIP3   OH249574   2.718   2.162   0.365
 8532TIP3    H149575   2.736   2.104   0.442
 8532TIP3    H249576   2.718   2.247   0.416
 8533TIP3   OH249577   2.902   3.683   0.217
 8533TIP3    H149578   2.997   3.692   0.200
 8533TIP3    H249579   2.883   3.623   0.141
 8534TIP3   OH249580   3.573   3.622   0.485
 8534TIP3    H149581   3.554   3.542   0.430
 8534TIP3    H249582   3.565   3.694   0.419
 8535TIP3   OH249583   2.138   2.021   1.649
 8535TIP3    H149584   2.099   1.940   1.688
 8535TIP3    H249585   2.228   2.018   1.690
 8536TIP3   OH249586   2.337   1.960   1.816
 8536TIP3    H149587   2.426   1.927   1.794
 8536TIP3    H249588   2.300   1.878   1.854
 8537TIP3   OH249589   2.196   3.630   0.074
 8537TIP3    H149590   2.169   3.665   0.160
 8537TIP3    H249591   2.276   3.582   0.093
 8538TIP3   OH249592   3.180   1.884   1.825
 8538TIP3    H149593   3.182   1.843   1.915
 8538TIP3    H249594   3.276   1.887   1.807
 8539TIP3   OH249595   3.499   3.494   1.693
 8539TIP3    H149596   3.418   3.481   1.638
 8539TIP3    H249597   3.487   3.589   1.716
 8540TIP3   OH249598   4.946   2.883   0.689
 8540TIP3    H149599   4.942   2.982   0.689
 8540TIP3    H249600   4.870   2.861   0.634
 8541TIP3   OH249601   4.828   2.806   1.040
 8541TIP3    H149602   4.828   2.743   1.113
 8541TIP3    H249603   4.792   2.754   0.966
 8542TIP3   OH249604   4.063   2.776   1.197
 8542TIP3    H149605   4.072   2.706   1.266
 8542TIP3    H249606   4.139   2.832   1.219
 8543TIP3   OH249607   5.196   3.103   0.870
 8543TIP3    H149608   5.156   3.031   0.920
 8543TIP3    H249609   5.200   3.173   0.938
 8544TIP3   OH249610   4.156   3.220   1.046
 8544TIP3    H149611   4.125   3.133   1.015
 8544TIP3    H249612   4.251   3.203   1.050
 8545TIP3   OH249613   3.819   2.574   0.597
 8545TIP3    H149614   3.776   2.662   0.590
 8545TIP3    H249615   3.764   2.521   0.539
 8546TIP3   OH249616   3.892   2.798   0.812
 8546TIP3    H149617   3.919   2.715   0.855
 8546TIP3    H249618   3.960   2.809   0.744
 8547TIP3   OH249619   4.912   3.621   0.895
 8547TIP3    H149620   4.973   3.548   0.867
 8547TIP3    H249621   4.885   3.586   0.980
 8548TIP3   OH249622   4.666   3.046   1.091
 8548TIP3    H149623   4.700   2.985   1.024
 8548TIP3    H249624   4.748   3.063   1.141
 8549TIP3   OH249625   5.524   2.214   1.160
 8549TIP3    H149626   5.543   2.272   1.238
 8549TIP3    H249627   5.583   2.255   1.095
 8550TIP3   OH249628   4.983   2.494   1.121
 8550TIP3    H149629   5.000   2.398   1.122
 8550TIP3    H249630   4.972   2.508   1.025
 8551TIP3   OH249631   4.293   2.302   0.842
 8551TIP3    H149632   4.304   2.386   0.794
 8551TIP3    H249633   4.254   2.246   0.772
 8552TIP3   OH249634   5.068   2.310   0.678
 8552TIP3    H149635   5.132   2.279   0.746
 8552TIP3    H249636   5.124   2.367   0.625
 8553TIP3   OH249637   3.956   2.544   0.914
 8553TIP3    H149638   4.022   2.490   0.961
 8553TIP3    H249639   3.970   2.513   0.823
 8554TIP3   OH249640   4.474   2.700   0.846
 8554TIP3    H149641   4.539   2.642   0.889
 8554TIP3    H249642   4.420   2.634   0.799
 8555TIP3   OH249643   5.569   2.352   1.389
 8555TIP3    H149644   5.510   2.430   1.377
 8555TIP3    H249645   5.572   2.347   1.485
 8556TIP3   OH249646   4.187   2.193   1.245
 8556TIP3    H149647   4.158   2.250   1.171
 8556TIP3    H249648   4.119   2.216   1.313
 8557TIP3   OH249649   4.912   3.142   0.601
 8557TIP3    H149650   4.886   3.113   0.513
 8557TIP3    H249651   4.883   3.235   0.604
 8558TIP3   OH249652   4.436   2.957   1.269
 8558TIP3    H149653   4.366   3.022   1.292
 8558TIP3    H249654   4.507   3.017   1.240
 8559TIP3   OH249655   5.250   2.246   0.878
 8559TIP3    H149656   5.227   2.169   0.931
 8559TIP3    H249657   5.317   2.289   0.934
 8560TIP3   OH249658   4.143   2.377   1.049
 8560TIP3    H149659   4.205   2.447   1.081
 8560TIP3    H249660   4.195   2.339   0.974
 8561TIP3   OH249661   4.282   3.159   1.351
 8561TIP3    H149662   4.277   3.250   1.318
 8561TIP3    H249663   4.193   3.150   1.396
 8562TIP3   OH249664   3.888   3.117   0.429
 8562TIP3    H149665   3.866   3.152   0.340
 8562TIP3    H249666   3.896   3.200   0.481
 8563TIP3   OH249667   5.250   3.286   1.107
 8563TIP3    H149668   5.153   3.298   1.119
 8563TIP3    H249669   5.276   3.378   1.086
 8564TIP3   OH249670   5.282   2.113   1.245
 8564TIP3    H149671   5.210   2.177   1.235
 8564TIP3    H249672   5.354   2.155   1.194
 8565TIP3   OH249673   4.577   1.927   0.992
 8565TIP3    H149674   4.562   1.831   0.984
 8565TIP3    H249675   4.490   1.958   1.023
 8566TIP3   OH249676   5.078   3.463   0.770
 8566TIP3    H149677   5.116   3.390   0.716
 8566TIP3    H249678   5.118   3.541   0.728
 8567TIP3   OH249679   5.199   3.259   0.620
 8567TIP3    H149680   5.170   3.191   0.557
 8567TIP3    H249681   5.201   3.208   0.702
 8568TIP3   OH249682   5.358   3.118   1.467
 8568TIP3    H149683   5.373   3.051   1.396
 8568TIP3    H249684   5.380   3.201   1.421
 8569TIP3   OH249685   4.804   2.798   0.436
 8569TIP3    H149686   4.743   2.870   0.408
 8569TIP3    H249687   4.882   2.818   0.380
 8570TIP3   OH249688   4.811   2.650   0.155
 8570TIP3    H149689   4.891   2.666   0.210
 8570TIP3    H249690   4.848   2.593   0.088
 8571TIP3   OH249691   5.548   2.749   1.271
 8571TIP3    H149692   5.482   2.821   1.274
 8571TIP3    H249693   5.598   2.772   1.191
 8572TIP3   OH249694   5.155   2.827   0.537
 8572TIP3    H149695   5.080   2.851   0.596
 8572TIP3    H249696   5.202   2.759   0.589
 8573TIP3   OH249697   5.147   2.643   1.448
 8573TIP3    H149698   5.147   2.726   1.500
 8573TIP3    H249699   5.084   2.672   1.379
 8574TIP3   OH249700   4.314   2.892   0.728
 8574TIP3    H149701   4.283   2.853   0.643
 8574TIP3    H249702   4.376   2.824   0.762
 8575TIP3   OH249703   4.446   3.230   0.995
 8575TIP3    H149704   4.446   3.179   0.913
 8575TIP3    H249705   4.525   3.195   1.040
 8576TIP3   OH249706   4.347   2.767   1.094
 8576TIP3    H149707   4.401   2.776   1.013
 8576TIP3    H249708   4.387   2.834   1.154
 8577TIP3   OH249709   4.990   3.325   1.164
 8577TIP3    H149710   4.962   3.388   1.230
 8577TIP3    H249711   4.964   3.240   1.207
 8578TIP3   OH249712   4.442   3.210   1.566
 8578TIP3    H149713   4.400   3.285   1.613
 8578TIP3    H249714   4.377   3.191   1.494
 8579TIP3   OH249715   5.038   2.748   0.302
 8579TIP3    H149716   5.095   2.766   0.381
 8579TIP3    H249717   5.086   2.797   0.231
 8580TIP3   OH249718   4.138   2.826   1.477
 8580TIP3    H149719   4.143   2.892   1.549
 8580TIP3    H249720   4.043   2.835   1.458
 8581TIP3   OH249721   4.814   3.421   0.646
 8581TIP3    H149722   4.855   3.451   0.729
 8581TIP3    H249723   4.756   3.494   0.623
 8582TIP3   OH249724   4.267   3.407   1.637
 8582TIP3    H149725   4.261   3.405   1.540
 8582TIP3    H249726   4.174   3.400   1.663
 8583TIP3   OH249727   5.416   1.920   0.290
 8583TIP3    H149728   5.321   1.928   0.313
 8583TIP3    H249729   5.433   2.004   0.246
 8584TIP3   OH249730   4.216   2.791   0.480
 8584TIP3    H149731   4.182   2.873   0.439
 8584TIP3    H249732   4.143   2.729   0.467
 8585TIP3   OH249733   5.528   3.353   0.128
 8585TIP3    H149734   5.541   3.448   0.145
 8585TIP3    H249735   5.620   3.322   0.125
 8586TIP3   OH249736   3.819   3.036   1.380
 8586TIP3    H149737   3.776   3.029   1.293
 8586TIP3    H249738   3.828   2.941   1.402
 8587TIP3   OH249739   3.796   3.311   1.057
 8587TIP3    H149740   3.892   3.300   1.054
 8587TIP3    H249741   3.788   3.393   1.106
 8588TIP3   OH249742   5.621   3.382   1.626
 8588TIP3    H149743   5.608   3.286   1.622
 8588TIP3    H249744   5.533   3.407   1.664
 8589TIP3   OH249745   4.715   3.332   1.508
 8589TIP3    H149746   4.723   3.416   1.561
 8589TIP3    H249747   4.628   3.298   1.537
 8590TIP3   OH249748   4.758   3.710   0.491
 8590TIP3    H149749   4.748   3.705   0.394
 8590TIP3    H249750   4.764   3.807   0.507
 8591TIP3   OH249751   4.123   3.598   0.677
 8591TIP3    H149752   4.139   3.556   0.764
 8591TIP3    H249753   4.039   3.556   0.651
 8592TIP3   OH249754   5.067   3.630   0.197
 8592TIP3    H149755   5.116   3.557   0.151
 8592TIP3    H249756   5.071   3.599   0.289
 8593TIP3   OH249757   5.037   3.627   0.472
 8593TIP3    H149758   4.939   3.633   0.485
 8593TIP3    H249759   5.056   3.548   0.524
 8594TIP3   OH249760   5.335   2.528   1.672
 8594TIP3    H149761   5.287   2.573   1.600
 8594TIP3    H249762   5.333   2.436   1.642
 8595TIP3   OH249763   4.050   3.169   1.473
 8595TIP3    H149764   4.071   3.133   1.561
 8595TIP3    H249765   3.962   3.129   1.451
 8596TIP3   OH249766   4.318   2.017   1.067
 8596TIP3    H149767   4.227   2.004   1.031
 8596TIP3    H249768   4.303   2.100   1.117
 8597TIP3   OH249769   4.783   1.983   1.403
 8597TIP3    H149770   4.821   1.940   1.482
 8597TIP3    H249771   4.685   1.973   1.417
 8598TIP3   OH249772   5.110   2.369   1.494
 8598TIP3    H149773   5.053   2.347   1.571
 8598TIP3    H249774   5.092   2.462   1.471
 8599TIP3   OH249775   5.194   2.833   0.089
 8599TIP3    H149776   5.179   2.845  -0.006
 8599TIP3    H249777   5.271   2.891   0.097
 8600TIP3   OH249778   4.743   2.246   0.141
 8600TIP3    H149779   4.711   2.228   0.231
 8600TIP3    H249780   4.718   2.159   0.104
 8601TIP3   OH249781   4.327   2.515   1.194
 8601TIP3    H149782   4.252   2.514   1.257
 8601TIP3    H249783   4.323   2.605   1.156
 8602TIP3   OH249784   4.323   2.525   0.681
 8602TIP3    H149785   4.229   2.501   0.669
 8602TIP3    H249786   4.358   2.495   0.595
 8603TIP3   OH249787   4.869   2.571   0.547
 8603TIP3    H149788   4.841   2.662   0.521
 8603TIP3    H249789   4.948   2.559   0.491
 8604TIP3   OH249790   4.780   2.597   1.700
 8604TIP3    H149791   4.729   2.519   1.730
 8604TIP3    H249792   4.864   2.586   1.747
 8605TIP3   OH249793   4.981   2.525   0.843
 8605TIP3    H149794   4.952   2.583   0.771
 8605TIP3    H249795   4.988   2.441   0.794
 8606TIP3   OH249796   4.090   2.537   1.359
 8606TIP3    H149797   4.097   2.579   1.447
 8606TIP3    H249798   4.044   2.455   1.382
 8607TIP3   OH249799   4.431   2.189   0.063
 8607TIP3    H149800   4.387   2.208   0.146
 8607TIP3    H249801   4.376   2.252   0.012
 8608TIP3   OH249802   3.756   2.249   0.761
 8608TIP3    H149803   3.825   2.245   0.831
 8608TIP3    H249804   3.800   2.212   0.683
 8609TIP3   OH249805   3.881   2.321   0.295
 8609TIP3    H149806   3.933   2.382   0.239
 8609TIP3    H249807   3.813   2.383   0.329
 8610TIP3   OH249808   4.898   2.683   1.295
 8610TIP3    H149809   4.937   2.614   1.237
 8610TIP3    H249810   4.851   2.631   1.362
 8611TIP3   OH249811   4.580   2.285   0.779
 8611TIP3    H149812   4.487   2.280   0.809
 8611TIP3    H249813   4.627   2.263   0.861
 8612TIP3   OH249814   4.059   2.436   0.667
 8612TIP3    H149815   3.972   2.452   0.627
 8612TIP3    H249816   4.088   2.353   0.626
 8613TIP3   OH249817   4.408   2.434   0.435
 8613TIP3    H149818   4.500   2.439   0.468
 8613TIP3    H249819   4.384   2.505   0.372
 8614TIP3   OH249820   5.020   2.205   1.104
 8614TIP3    H149821   4.952   2.209   1.174
 8614TIP3    H249822   4.969   2.179   1.026
 8615TIP3   OH249823   4.295   2.566   0.196
 8615TIP3    H149824   4.242   2.520   0.129
 8615TIP3    H249825   4.373   2.577   0.139
 8616TIP3   OH249826   5.339   3.769   1.737
 8616TIP3    H149827   5.366   3.807   1.651
 8616TIP3    H249828   5.412   3.800   1.793
 8617TIP3   OH249829   4.107   3.016   1.694
 8617TIP3    H149830   4.179   3.041   1.753
 8617TIP3    H249831   4.030   3.023   1.755
 8618TIP3   OH249832   4.707   2.557   0.970
 8618TIP3    H149833   4.769   2.504   0.918
 8618TIP3    H249834   4.692   2.502   1.048
 8619TIP3   OH249835   4.208   2.171   0.616
 8619TIP3    H149836   4.176   2.080   0.614
 8619TIP3    H249837   4.286   2.162   0.559
 8620TIP3   OH249838   4.571   2.390   1.210
 8620TIP3    H149839   4.489   2.442   1.219
 8620TIP3    H249840   4.627   2.425   1.282
 8621TIP3   OH249841   4.631   3.005   0.383
 8621TIP3    H149842   4.548   2.967   0.347
 8621TIP3    H249843   4.605   3.028   0.475
 8622TIP3   OH249844   5.350   2.933   1.261
 8622TIP3    H149845   5.405   2.982   1.197
 8622TIP3    H249846   5.263   2.936   1.215
 8623TIP3   OH249847   5.014   2.298   0.185
 8623TIP3    H149848   4.917   2.304   0.185
 8623TIP3    H249849   5.048   2.375   0.236
 8624TIP3   OH249850   4.779   3.039   1.505
 8624TIP3    H149851   4.744   2.996   1.583
 8624TIP3    H249852   4.753   3.131   1.516
 8625TIP3   OH249853   5.082   2.488   0.366
 8625TIP3    H149854   5.173   2.469   0.400
 8625TIP3    H249855   5.099   2.567   0.313
 8626TIP3   OH249856   4.141   2.953   0.961
 8626TIP3    H149857   4.208   2.943   0.891
 8626TIP3    H249858   4.147   2.867   1.006
 8627TIP3   OH249859   4.840   3.158   0.284
 8627TIP3    H149860   4.805   3.244   0.316
 8627TIP3    H249861   4.766   3.098   0.305
 8628TIP3   OH249862   3.839   2.793   1.488
 8628TIP3    H149863   3.855   2.746   1.573
 8628TIP3    H249864   3.779   2.731   1.443
 8629TIP3   OH249865   4.541   2.748   1.703
 8629TIP3    H149866   4.509   2.715   1.617
 8629TIP3    H249867   4.633   2.715   1.704
 8630TIP3   OH249868   5.009   3.283   1.500
 8630TIP3    H149869   4.916   3.301   1.478
 8630TIP3    H249870   5.006   3.311   1.594
 8631TIP3   OH249871   5.577   2.498   0.339
 8631TIP3    H149872   5.518   2.469   0.267
 8631TIP3    H249873   5.583   2.592   0.314
 8632TIP3   OH249874   5.575   3.086   1.618
 8632TIP3    H149875   5.486   3.108   1.582
 8632TIP3    H249876   5.629   3.080   1.537
 8633TIP3   OH249877   5.410   3.381   0.380
 8633TIP3    H149878   5.370   3.299   0.410
 8633TIP3    H249879   5.434   3.363   0.287
 8634TIP3   OH249880   5.127   2.864   1.089
 8634TIP3    H149881   5.033   2.843   1.077
 8634TIP3    H249882   5.170   2.788   1.044
 8635TIP3   OH249883   4.378   3.297   0.699
 8635TIP3    H149884   4.427   3.378   0.679
 8635TIP3    H249885   4.290   3.320   0.666
 8636TIP3   OH249886   3.954   2.785   0.149
 8636TIP3    H149887   4.013   2.843   0.200
 8636TIP3    H249888   3.866   2.812   0.183
 8637TIP3   OH249889   4.519   3.064   0.650
 8637TIP3    H149890   4.487   3.155   0.659
 8637TIP3    H249891   4.449   3.013   0.695
 8638TIP3   OH249892   4.565   3.481   1.291
 8638TIP3    H149893   4.608   3.563   1.265
 8638TIP3    H249894   4.627   3.448   1.359
 8639TIP3   OH249895   4.388   3.560   0.610
 8639TIP3    H149896   4.291   3.577   0.616
 8639TIP3    H249897   4.423   3.647   0.634
 8640TIP3   OH249898   4.915   3.081   1.253
 8640TIP3    H149899   4.885   3.063   1.345
 8640TIP3    H249900   4.980   3.010   1.237
 8641TIP3   OH249901   5.145   3.186   0.163
 8641TIP3    H149902   5.181   3.143   0.242
 8641TIP3    H249903   5.051   3.169   0.178
 8642TIP3   OH249904   5.199   3.540   1.502
 8642TIP3    H149905   5.130   3.490   1.454
 8642TIP3    H249906   5.217   3.610   1.435
 8643TIP3   OH249907   5.597   3.627   0.192
 8643TIP3    H149908   5.668   3.689   0.168
 8643TIP3    H249909   5.524   3.689   0.212
 8644TIP3   OH249910   4.004   2.265   1.441
 8644TIP3    H149911   3.914   2.301   1.440
 8644TIP3    H249912   3.994   2.180   1.487
 8645TIP3   OH249913   5.229   3.054   0.393
 8645TIP3    H149914   5.205   2.972   0.441
 8645TIP3    H249915   5.325   3.055   0.404
 8646TIP3   OH249916   3.967   3.442   1.284
 8646TIP3    H149917   3.998   3.351   1.285
 8646TIP3    H249918   3.992   3.473   1.371
 8647TIP3   OH249919   4.439   3.252   0.258
 8647TIP3    H149920   4.472   3.200   0.332
 8647TIP3    H249921   4.450   3.345   0.290
 8648TIP3   OH249922   4.092   2.975   0.303
 8648TIP3    H149923   4.023   3.015   0.360
 8648TIP3    H249924   4.147   3.051   0.278
 8649TIP3   OH249925   4.878   2.242   1.339
 8649TIP3    H149926   4.950   2.249   1.403
 8649TIP3    H249927   4.840   2.155   1.360
 8650TIP3   OH249928   4.946   2.206   0.448
 8650TIP3    H149929   4.983   2.243   0.367
 8650TIP3    H249930   5.010   2.242   0.513
 8651TIP3   OH249931   4.717   3.414   0.324
 8651TIP3    H149932   4.638   3.470   0.339
 8651TIP3    H249933   4.775   3.469   0.269
 8652TIP3   OH249934   4.665   2.390   0.526
 8652TIP3    H149935   4.755   2.430   0.536
 8652TIP3    H249936   4.648   2.358   0.618
 8653TIP3   OH249937   4.732   2.477   1.448
 8653TIP3    H149938   4.738   2.532   1.529
 8653TIP3    H249939   4.797   2.408   1.457
 8654TIP3   OH249940   4.759   2.081   0.612
 8654TIP3    H149941   4.730   2.141   0.682
 8654TIP3    H249942   4.832   2.134   0.572
 8655TIP3   OH249943   4.463   3.518   0.335
 8655TIP3    H149944   4.472   3.599   0.279
 8655TIP3    H249945   4.431   3.557   0.418
 8656TIP3   OH249946   4.323   2.191   0.302
 8656TIP3    H149947   4.320   2.284   0.329
 8656TIP3    H249948   4.416   2.165   0.314
 8657TIP3   OH249949   5.348   2.264   1.532
 8657TIP3    H149950   5.255   2.296   1.519
 8657TIP3    H249951   5.378   2.262   1.440
 8658TIP3   OH249952   5.211   2.643   0.932
 8658TIP3    H149953   5.128   2.597   0.906
 8658TIP3    H249954   5.259   2.574   0.983
 8659TIP3   OH249955   4.154   3.232   0.194
 8659TIP3    H149956   4.216   3.299   0.224
 8659TIP3    H249957   4.202   3.190   0.122
 8660TIP3   OH249958   3.983   2.504   0.111
 8660TIP3    H149959   3.984   2.600   0.125
 8660TIP3    H249960   3.897   2.485   0.073
 8661TIP3   OH249961   5.316   3.571   1.098
 8661TIP3    H149962   5.308   3.639   1.030
 8661TIP3    H249963   5.412   3.574   1.118
 8662TIP3   OH249964   4.065   1.981   0.982
 8662TIP3    H149965   4.047   1.982   0.885
 8662TIP3    H249966   4.025   1.895   1.006
 8663TIP3   OH249967   3.961   3.374   0.596
 8663TIP3    H149968   3.875   3.417   0.589
 8663TIP3    H249969   4.007   3.418   0.523
 8664TIP3   OH249970   3.880   3.638   1.721
 8664TIP3    H149971   3.941   3.619   1.796
 8664TIP3    H249972   3.842   3.550   1.703
 8665TIP3   OH249973   4.343   3.520   1.886
 8665TIP3    H149974   4.430   3.486   1.913
 8665TIP3    H249975   4.349   3.506   1.790
 8666TIP3   OH249976   4.769   3.491   0.052
 8666TIP3    H149977   4.699   3.427   0.068
 8666TIP3    H249978   4.840   3.442   0.009
 8667TIP3   OH249979   5.003   3.366   1.759
 8667TIP3    H149980   4.969   3.279   1.788
 8667TIP3    H249981   5.079   3.379   1.819
 8668TIP3   OH249982   5.242   3.449   0.099
 8668TIP3    H149983   5.254   3.354   0.097
 8668TIP3    H249984   5.274   3.479   0.013
 8669TIP3   OH249985   3.871   3.015   1.823
 8669TIP3    H149986   3.888   2.924   1.794
 8669TIP3    H249987   3.798   3.040   1.765
 8670TIP3   OH249988   4.293   3.033   0.021
 8670TIP3    H149989   4.321   2.968   0.087
 8670TIP3    H249990   4.373   3.041  -0.031
 8671TIP3   OH249991   4.544   3.013   1.761
 8671TIP3    H149992   4.510   3.046   1.676
 8671TIP3    H249993   4.550   2.915   1.747
 8672TIP3   OH249994   5.113   3.000   1.501
 8672TIP3    H149995   5.192   3.057   1.496
 8672TIP3    H249996   5.043   3.069   1.504
 8673TIP3   OH249997   3.970   2.740   1.762
 8673TIP3    H149998   4.005   2.651   1.751
 8673TIP3    H249999   3.941   2.737   1.855
 8674TIP3   OH250000   4.431   2.853   0.266
 8674TIP3    H150001   4.375   2.802   0.328
 8674TIP3    H250002   4.457   2.785   0.201
 8675TIP3   OH250003   4.354   2.631   1.496
 8675TIP3    H150004   4.293   2.703   1.522
 8675TIP3    H250005   4.394   2.669   1.416
 8676TIP3   OH250006   4.541   2.669   0.100
 8676TIP3    H150007   4.513   2.663   0.005
 8676TIP3    H250008   4.636   2.688   0.093
 8677TIP3   OH250009   4.862   2.891   1.834
 8677TIP3    H150010   4.957   2.887   1.815
 8677TIP3    H250011   4.845   2.812   1.887
 8678TIP3   OH250012   5.466   2.904  11.013
 8678TIP3    H150013   5.451   2.866  10.927
 8678TIP3    H250014   5.473   2.999  10.992
 8679TIP3   OH250015   4.399   2.370   1.601
 8679TIP3    H150016   4.407   2.299   1.534
 8679TIP3    H250017   4.388   2.451   1.547
 8680TIP3   OH250018   4.436   2.208   1.357
 8680TIP3    H150019   4.486   2.255   1.286
 8680TIP3    H250020   4.346   2.201   1.317
 8681TIP3   OH250021   4.589   2.758   1.381
 8681TIP3    H150022   4.665   2.741   1.325
 8681TIP3    H250023   4.552   2.842   1.347
 8682TIP3   OH250024   5.028   2.532   1.877
 8682TIP3    H150025   5.052   2.438   1.868
 8682TIP3    H250026   5.115   2.577   1.881
 8683TIP3   OH250027   5.163   2.812   1.695
 8683TIP3    H150028   5.138   2.884   1.633
 8683TIP3    H250029   5.259   2.809   1.676
 8684TIP3   OH250030   4.241   2.495   1.793
 8684TIP3    H150031   4.164   2.437   1.778
 8684TIP3    H250032   4.306   2.458   1.732
 8685TIP3   OH250033   4.514   1.953   1.395
 8685TIP3    H150034   4.495   2.049   1.385
 8685TIP3    H250035   4.440   1.915   1.345
 8686TIP3   OH250036   4.643   2.384   1.760
 8686TIP3    H150037   4.609   2.361   1.849
 8686TIP3    H250038   4.564   2.365   1.705
 8687TIP3   OH250039   4.914   2.299   1.670
 8687TIP3    H150040   4.818   2.305   1.680
 8687TIP3    H250041   4.940   2.235   1.739
 8688TIP3   OH250042   5.071   2.162   1.857
 8688TIP3    H150043   5.068   2.064   1.861
 8688TIP3    H250044   5.048   2.191   1.948
 8689TIP3   OH250045   4.064   2.284   1.774
 8689TIP3    H150046   4.073   2.211   1.712
 8689TIP3    H250047   4.039   2.242   1.858
 8690TIP3   OH250048   4.533   1.889   1.666
 8690TIP3    H150049   4.605   1.824   1.663
 8690TIP3    H250050   4.525   1.907   1.570
 8691TIP3   OH250051   4.572   2.052   1.879
 8691TIP3    H150052   4.554   2.001   1.796
 8691TIP3    H250053   4.512   2.129   1.869
 8692TIP3   OH250054   4.529   3.740   0.199
 8692TIP3    H150055   4.623   3.760   0.200
 8692TIP3    H250056   4.488   3.803   0.135
 8693TIP3   OH250057   3.881   3.200   0.144
 8693TIP3    H150058   3.977   3.213   0.162
 8693TIP3    H250059   3.882   3.142   0.067
 8694TIP3   OH250060   3.752   3.739   0.639
 8694TIP3    H150061   3.680   3.691   0.593
 8694TIP3    H250062   3.780   3.674   0.706
 8695TIP3   OH250063   3.834   3.554   0.827
 8695TIP3    H150064   3.799   3.466   0.847
 8695TIP3    H250065   3.858   3.587   0.916
 8696TIP3   OH250066   5.587   3.637   1.116
 8696TIP3    H150067   5.591   3.648   1.213
 8696TIP3    H250068   5.661   3.691   1.090
 8697TIP3   OH250069   5.546   3.592   1.415
 8697TIP3    H150070   5.499   3.516   1.375
 8697TIP3    H250071   5.594   3.546   1.486
 8698TIP3   OH250072   5.390   3.164   1.882
 8698TIP3    H150073   5.299   3.162   1.917
 8698TIP3    H250074   5.427   3.245   1.922
 8699TIP3   OH250075   5.524   2.996   0.423
 8699TIP3    H150076   5.609   3.037   0.445
 8699TIP3    H250077   5.520   2.927   0.492
 8700TIP3   OH250078   5.557   2.806   0.613
 8700TIP3    H150079   5.481   2.756   0.652
 8700TIP3    H250080   5.617   2.818   0.690
 8701TIP3   OH250081   5.533   3.074   1.112
 8701TIP3    H150082   5.614   3.036   1.073
 8701TIP3    H250083   5.548   3.170   1.094
 8702TIP3   OH250084   5.390   3.366   1.337
 8702TIP3    H150085   5.321   3.400   1.396
 8702TIP3    H250086   5.335   3.326   1.266
 8703TIP3   OH250087   5.587   2.788   0.246
 8703TIP3    H150088   5.526   2.823   0.178
 8703TIP3    H250089   5.575   2.857   0.316
 8704TIP3   OH250090   5.425   2.515   0.102
 8704TIP3    H150091   5.425   2.580   0.032
 8704TIP3    H250092   5.404   2.430   0.059
 8705TIP3   OH250093   5.338   2.653   0.670
 8705TIP3    H150094   5.325   2.557   0.666
 8705TIP3    H250095   5.308   2.673   0.761
 8706TIP3   OH250096   3.839   2.861   1.078
 8706TIP3    H150097   3.856   2.852   0.981
 8706TIP3    H250098   3.930   2.843   1.111
 8707TIP3   OH250099   5.426   2.849   1.639
 8707TIP3    H150100   5.487   2.774   1.652
 8707TIP3    H250101   5.487   2.926   1.640
 8708TIP3   OH250102   5.576   2.637   1.704
 8708TIP3    H150103   5.488   2.597   1.689
 8708TIP3    H250104   5.633   2.558   1.697
 8709TIP3   OH250105   5.328   2.244   0.128
 8709TIP3    H150106   5.414   2.210   0.094
 8709TIP3    H250107   5.272   2.216   0.055
 8710TIP3   OH250108   5.304   2.411   0.515
 8710TIP3    H150109   5.334   2.318   0.526
 8710TIP3    H250110   5.384   2.451   0.477
 8711TIP3   OH250111   5.371   2.465   1.061
 8711TIP3    H150112   5.467   2.488   1.059
 8711TIP3    H250113   5.352   2.479   1.155
 8712TIP3   OH250114   5.377   2.537   1.338
 8712TIP3    H150115   5.289   2.566   1.369
 8712TIP3    H250116   5.421   2.623   1.316
 8713TIP3   OH250117   3.841   2.395   1.713
 8713TIP3    H150118   3.927   2.351   1.723
 8713TIP3    H250119   3.773   2.323   1.716
 8714TIP3   OH250120   5.605   1.945   1.872
 8714TIP3    H150121   5.640   1.878   1.810
 8714TIP3    H250122   5.614   2.026   1.817
 8715TIP3   OH250123   5.373   2.140   0.521
 8715TIP3    H150124   5.396   2.096   0.606
 8715TIP3    H250125   5.314   2.076   0.477
 8716TIP3   OH250126   3.922   2.221   0.977
 8716TIP3    H150127   3.968   2.137   1.001
 8716TIP3    H250128   3.978   2.289   1.015
 8717TIP3   OH250129   3.747   2.522   1.078
 8717TIP3    H150130   3.805   2.495   1.004
 8717TIP3    H250131   3.797   2.600   1.108
 8718TIP3   OH250132   5.557   2.154   1.707
 8718TIP3    H150133   5.463   2.182   1.702
 8718TIP3    H250134   5.559   2.099   1.628
 8719TIP3   OH250135   5.566   2.140   0.176
 8719TIP3    H150136   5.606   2.073   0.119
 8719TIP3    H250137   5.632   2.209   0.186
 8720TIP3   OH250138   3.786   2.147   0.488
 8720TIP3    H150139   3.692   2.165   0.472
 8720TIP3    H250140   3.828   2.196   0.415
 8721TIP3   OH250141   5.256   3.638   0.682
 8721TIP3    H150142   5.321   3.590   0.626
 8721TIP3    H250143   5.303   3.669   0.762
 8722TIP3   OH250144   3.780   2.012   1.316
 8722TIP3    H150145   3.717   1.996   1.387
 8722TIP3    H250146   3.736   2.082   1.264
 8723TIP3   OH250147   4.006   3.333   1.735
 8723TIP3    H150148   3.922   3.354   1.691
 8723TIP3    H250149   3.978   3.325   1.827
 8724TIP3   OH250150   4.294   3.432   1.358
 8724TIP3    H150151   4.264   3.521   1.336
 8724TIP3    H250152   4.388   3.441   1.331
 8725TIP3   OH250153   4.746   3.553   1.643
 8725TIP3    H150154   4.745   3.540   1.740
 8725TIP3    H250155   4.826   3.607   1.627
 8726TIP3   OH250156   4.958   3.702   1.583
 8726TIP3    H150157   5.031   3.643   1.559
 8726TIP3    H250158   4.995   3.746   1.662
 8727TIP3   OH250159   5.459   1.963   1.494
 8727TIP3    H150160   5.376   1.993   1.452
 8727TIP3    H250161   5.476   1.881   1.442
 8728TIP3   OH250162   4.038   3.754   1.359
 8728TIP3    H150163   3.967   3.808   1.321
 8728TIP3    H250164   4.009   3.740   1.451
 8729TIP3   OH250165   4.281   3.707   1.261
 8729TIP3    H150166   4.197   3.732   1.308
 8729TIP3    H250167   4.282   3.775   1.192
 8730TIP3   OH250168   4.760   3.707   1.181
 8730TIP3    H150169   4.706   3.761   1.122
 8730TIP3    H250170   4.765   3.767   1.259
 8731TIP3   OH250171   4.982   3.585   1.291
 8731TIP3    H150172   4.899   3.614   1.249
 8731TIP3    H250173   5.033   3.667   1.281
 8732TIP3   OH250174   5.241   3.740   1.309
 8732TIP3    H150175   5.238   3.836   1.287
 8732TIP3    H250176   5.264   3.703   1.221
 8733TIP3   OH250177   3.985   3.621   1.055
 8733TIP3    H150178   3.976   3.574   1.140
 8733TIP3    H250179   4.067   3.582   1.016
 8734TIP3   OH250180   4.192   3.492   0.920
 8734TIP3    H150181   4.176   3.399   0.944
 8734TIP3    H250182   4.278   3.508   0.965
 8735TIP3   OH250183   4.453   3.541   1.008
 8735TIP3    H150184   4.468   3.448   0.982
 8735TIP3    H250185   4.457   3.535   1.104
 8736TIP3   OH250186   4.796   2.105   0.918
 8736TIP3    H150187   4.730   2.041   0.950
 8736TIP3    H250188   4.853   2.050   0.863
 8737TIP3   OH250189   5.311   1.908   0.927
 8737TIP3    H150190   5.372   1.968   0.877
 8737TIP3    H250191   5.223   1.945   0.905
 8738TIP3   OH250192   5.477   2.036   0.754
 8738TIP3    H150193   5.546   1.978   0.713
 8738TIP3    H250194   5.529   2.118   0.766
 8739TIP3   OH250195   4.034   1.967   0.709
 8739TIP3    H150196   3.956   1.950   0.654
 8739TIP3    H250197   4.080   1.881   0.700
 8740TIP3   OH250198   3.913   1.943   0.284
 8740TIP3    H150199   3.959   2.009   0.227
 8740TIP3    H250200   3.857   2.000   0.339
 8741TIP3   OH250201   4.480   1.960   0.685
 8741TIP3    H150202   4.570   1.996   0.676
 8741TIP3    H250203   4.478   1.937   0.778
 8742TIP3   OH250204   5.054   1.962   0.847
 8742TIP3    H150205   5.049   1.972   0.751
 8742TIP3    H250206   5.015   1.872   0.860
 8743TIP3   OH250207   5.179   1.964   0.413
 8743TIP3    H150208   5.105   2.024   0.400
 8743TIP3    H250209   5.135   1.879   0.434
 8744TIP3   OH250210   3.901   3.539   0.380
 8744TIP3    H150211   3.835   3.541   0.308
 8744TIP3    H250212   3.909   3.635   0.394
 8745TIP3   OH250213   4.092   2.125   0.141
 8745TIP3    H150214   4.149   2.078   0.078
 8745TIP3    H250215   4.159   2.173   0.192
 8746TIP3   OH250216   4.603   2.165   0.366
 8746TIP3    H150217   4.622   2.102   0.439
 8746TIP3    H250218   4.605   2.246   0.420
 8747TIP3   OH250219   4.792   3.680   0.219
 8747TIP3    H150220   4.886   3.692   0.198
 8747TIP3    H250221   4.767   3.624   0.142
 8748TIP3   OH250222   5.454   3.623   0.483
 8748TIP3    H150223   5.439   3.539   0.432
 8748TIP3    H250224   5.455   3.689   0.410
 8749TIP3   OH250225   4.023   2.022   1.651
 8749TIP3    H150226   3.982   1.943   1.691
 8749TIP3    H250227   4.114   2.019   1.690
 8750TIP3   OH250228   4.225   1.959   1.815
 8750TIP3    H150229   4.315   1.927   1.794
 8750TIP3    H250230   4.184   1.881   1.854
 8751TIP3   OH250231   4.061   3.596   0.083
 8751TIP3    H150232   4.057   3.670   0.147
 8751TIP3    H250233   4.158   3.590   0.086
 8752TIP3   OH250234   5.063   1.889   1.832
 8752TIP3    H150235   5.072   1.841   1.916
 8752TIP3    H250236   5.154   1.887   1.798
 8753TIP3   OH250237   5.384   3.494   1.693
 8753TIP3    H150238   5.304   3.481   1.638
 8753TIP3    H250239   5.372   3.589   1.715
 8754TIP3   OH250240   6.830   2.883   0.688
 8754TIP3    H150241   6.827   2.981   0.688
 8754TIP3    H250242   6.755   2.859   0.632
 8755TIP3   OH250243   6.715   2.807   1.041
 8755TIP3    H150244   6.714   2.743   1.114
 8755TIP3    H250245   6.678   2.755   0.967
 8756TIP3   OH250246   5.949   2.775   1.197
 8756TIP3    H150247   5.958   2.706   1.266
 8756TIP3    H250248   6.024   2.832   1.219
 8757TIP3   OH250249   7.081   3.102   0.870
 8757TIP3    H150250   7.041   3.030   0.921
 8757TIP3    H250251   7.085   3.173   0.937
 8758TIP3   OH250252   6.042   3.220   1.045
 8758TIP3    H150253   6.011   3.133   1.015
 8758TIP3    H250254   6.137   3.202   1.050
 8759TIP3   OH250255   5.705   2.575   0.597
 8759TIP3    H150256   5.662   2.662   0.590
 8759TIP3    H250257   5.650   2.520   0.539
 8760TIP3   OH250258   5.777   2.798   0.812
 8760TIP3    H150259   5.805   2.715   0.856
 8760TIP3    H250260   5.845   2.809   0.744
 8761TIP3   OH250261   6.795   3.619   0.895
 8761TIP3    H150262   6.860   3.550   0.865
 8761TIP3    H250263   6.772   3.583   0.981
 8762TIP3   OH250264   6.551   3.046   1.091
 8762TIP3    H150265   6.585   2.985   1.023
 8762TIP3    H250266   6.633   3.063   1.140
 8763TIP3   OH250267   7.411   2.215   1.160
 8763TIP3    H150268   7.429   2.272   1.238
 8763TIP3    H250269   7.470   2.255   1.095
 8764TIP3   OH250270   6.868   2.494   1.121
 8764TIP3    H150271   6.886   2.398   1.122
 8764TIP3    H250272   6.858   2.508   1.025
 8765TIP3   OH250273   6.179   2.303   0.842
 8765TIP3    H150274   6.191   2.386   0.792
 8765TIP3    H250275   6.140   2.246   0.772
 8766TIP3   OH250276   6.955   2.310   0.675
 8766TIP3    H150277   7.017   2.279   0.746
 8766TIP3    H250278   7.013   2.369   0.626
 8767TIP3   OH250279   5.842   2.544   0.915
 8767TIP3    H150280   5.908   2.490   0.961
 8767TIP3    H250281   5.853   2.513   0.824
 8768TIP3   OH250282   6.357   2.700   0.849
 8768TIP3    H150283   6.425   2.642   0.886
 8768TIP3    H250284   6.307   2.635   0.796
 8769TIP3   OH250285   7.456   2.354   1.389
 8769TIP3    H150286   7.395   2.430   1.377
 8769TIP3    H250287   7.459   2.346   1.485
 8770TIP3   OH250288   6.071   2.193   1.246
 8770TIP3    H150289   6.043   2.251   1.171
 8770TIP3    H250290   6.004   2.216   1.314
 8771TIP3   OH250291   6.798   3.142   0.602
 8771TIP3    H150292   6.770   3.113   0.513
 8771TIP3    H250293   6.769   3.236   0.604
 8772TIP3   OH250294   6.321   2.957   1.269
 8772TIP3    H150295   6.252   3.022   1.292
 8772TIP3    H250296   6.392   3.017   1.240
 8773TIP3   OH250297   7.135   2.246   0.878
 8773TIP3    H150298   7.113   2.169   0.931
 8773TIP3    H250299   7.202   2.289   0.934
 8774TIP3   OH250300   6.029   2.378   1.050
 8774TIP3    H150301   6.091   2.448   1.080
 8774TIP3    H250302   6.079   2.338   0.975
 8775TIP3   OH250303   6.167   3.158   1.351
 8775TIP3    H150304   6.162   3.250   1.318
 8775TIP3    H250305   6.079   3.150   1.396
 8776TIP3   OH250306   5.773   3.117   0.429
 8776TIP3    H150307   5.752   3.152   0.340
 8776TIP3    H250308   5.781   3.199   0.482
 8777TIP3   OH250309   7.135   3.286   1.107
 8777TIP3    H150310   7.038   3.298   1.119
 8777TIP3    H250311   7.162   3.378   1.086
 8778TIP3   OH250312   7.166   2.115   1.246
 8778TIP3    H150313   7.095   2.178   1.235
 8778TIP3    H250314   7.238   2.155   1.194
 8779TIP3   OH250315   6.463   1.926   0.992
 8779TIP3    H150316   6.448   1.830   0.984
 8779TIP3    H250317   6.375   1.957   1.023
 8780TIP3   OH250318   6.962   3.464   0.769
 8780TIP3    H150319   7.003   3.392   0.716
 8780TIP3    H250320   7.007   3.542   0.729
 8781TIP3   OH250321   7.083   3.256   0.619
 8781TIP3    H150322   7.054   3.188   0.556
 8781TIP3    H250323   7.086   3.206   0.702
 8782TIP3   OH250324   7.244   3.118   1.467
 8782TIP3    H150325   7.258   3.051   1.396
 8782TIP3    H250326   7.266   3.201   1.421
 8783TIP3   OH250327   6.693   2.804   0.441
 8783TIP3    H150328   6.625   2.865   0.408
 8783TIP3    H250329   6.764   2.818   0.377
 8784TIP3   OH250330   6.702   2.659   0.146
 8784TIP3    H150331   6.772   2.665   0.213
 8784TIP3    H250332   6.732   2.589   0.089
 8785TIP3   OH250333   7.433   2.749   1.271
 8785TIP3    H150334   7.367   2.821   1.274
 8785TIP3    H250335   7.482   2.774   1.190
 8786TIP3   OH250336   7.037   2.820   0.534
 8786TIP3    H150337   6.966   2.852   0.595
 8786TIP3    H250338   7.088   2.761   0.593
 8787TIP3   OH250339   7.033   2.643   1.448
 8787TIP3    H150340   7.033   2.726   1.500
 8787TIP3    H250341   6.970   2.672   1.379
 8788TIP3   OH250342   6.200   2.892   0.727
 8788TIP3    H150343   6.169   2.853   0.642
 8788TIP3    H250344   6.262   2.823   0.760
 8789TIP3   OH250345   6.331   3.230   0.995
 8789TIP3    H150346   6.332   3.179   0.913
 8789TIP3    H250347   6.410   3.195   1.041
 8790TIP3   OH250348   6.232   2.767   1.094
 8790TIP3    H150349   6.287   2.776   1.013
 8790TIP3    H250350   6.273   2.834   1.154
 8791TIP3   OH250351   6.876   3.325   1.165
 8791TIP3    H150352   6.847   3.389   1.231
 8791TIP3    H250353   6.850   3.240   1.206
 8792TIP3   OH250354   6.329   3.211   1.563
 8792TIP3    H150355   6.286   3.284   1.612
 8792TIP3    H250356   6.262   3.190   1.493
 8793TIP3   OH250357   6.932   2.740   0.301
 8793TIP3    H150358   6.979   2.770   0.384
 8793TIP3    H250359   6.967   2.802   0.233
 8794TIP3   OH250360   6.023   2.826   1.477
 8794TIP3    H150361   6.029   2.893   1.548
 8794TIP3    H250362   5.929   2.834   1.458
 8795TIP3   OH250363   6.700   3.420   0.646
 8795TIP3    H150364   6.740   3.450   0.728
 8795TIP3    H250365   6.642   3.494   0.623
 8796TIP3   OH250366   6.154   3.413   1.637
 8796TIP3    H150367   6.147   3.404   1.541
 8796TIP3    H250368   6.061   3.400   1.665
 8797TIP3   OH250369   7.302   1.918   0.291
 8797TIP3    H150370   7.206   1.927   0.313
 8797TIP3    H250371   7.319   2.003   0.247
 8798TIP3   OH250372   6.098   2.794   0.486
 8798TIP3    H150373   6.067   2.873   0.438
 8798TIP3    H250374   6.031   2.728   0.465
 8799TIP3   OH250375   7.415   3.353   0.128
 8799TIP3    H150376   7.427   3.448   0.146
 8799TIP3    H250377   7.506   3.321   0.124
 8800TIP3   OH250378   5.705   3.038   1.380
 8800TIP3    H150379   5.662   3.030   1.293
 8800TIP3    H250380   5.715   2.943   1.401
 8801TIP3   OH250381   5.682   3.310   1.058
 8801TIP3    H150382   5.778   3.300   1.055
 8801TIP3    H250383   5.674   3.393   1.106
 8802TIP3   OH250384   7.506   3.381   1.625
 8802TIP3    H150385   7.493   3.285   1.623
 8802TIP3    H250386   7.418   3.406   1.664
 8803TIP3   OH250387   6.602   3.335   1.511
 8803TIP3    H150388   6.607   3.420   1.562
 8803TIP3    H250389   6.514   3.299   1.536
 8804TIP3   OH250390   6.645   3.711   0.492
 8804TIP3    H150391   6.636   3.705   0.395
 8804TIP3    H250392   6.649   3.807   0.508
 8805TIP3   OH250393   6.010   3.598   0.672
 8805TIP3    H150394   6.025   3.558   0.761
 8805TIP3    H250395   5.926   3.555   0.649
 8806TIP3   OH250396   6.946   3.627   0.196
 8806TIP3    H150397   7.001   3.557   0.152
 8806TIP3    H250398   6.958   3.601   0.290
 8807TIP3   OH250399   6.920   3.625   0.468
 8807TIP3    H150400   6.824   3.632   0.486
 8807TIP3    H250401   6.944   3.551   0.525
 8808TIP3   OH250402   7.221   2.528   1.672
 8808TIP3    H150403   7.172   2.573   1.600
 8808TIP3    H250404   7.219   2.436   1.642
 8809TIP3   OH250405   5.935   3.170   1.472
 8809TIP3    H150406   5.956   3.134   1.560
 8809TIP3    H250407   5.848   3.130   1.451
 8810TIP3   OH250408   6.203   2.017   1.067
 8810TIP3    H150409   6.113   2.004   1.031
 8810TIP3    H250410   6.189   2.100   1.116
 8811TIP3   OH250411   6.668   1.983   1.403
 8811TIP3    H150412   6.707   1.940   1.482
 8811TIP3    H250413   6.571   1.972   1.418
 8812TIP3   OH250414   6.996   2.369   1.494
 8812TIP3    H150415   6.939   2.347   1.571
 8812TIP3    H250416   6.977   2.462   1.471
 8813TIP3   OH250417   7.086   2.829   0.087
 8813TIP3    H150418   7.064   2.848  -0.005
 8813TIP3    H250419   7.157   2.896   0.095
 8814TIP3   OH250420   6.630   2.245   0.133
 8814TIP3    H150421   6.597   2.237   0.225
 8814TIP3    H250422   6.605   2.154   0.108
 8815TIP3   OH250423   6.214   2.515   1.195
 8815TIP3    H150424   6.139   2.514   1.258
 8815TIP3    H250425   6.208   2.605   1.156
 8816TIP3   OH250426   6.209   2.525   0.681
 8816TIP3    H150427   6.115   2.501   0.666
 8816TIP3    H250428   6.247   2.498   0.595
 8817TIP3   OH250429   6.761   2.575   0.553
 8817TIP3    H150430   6.721   2.660   0.520
 8817TIP3    H250431   6.831   2.561   0.489
 8818TIP3   OH250432   6.666   2.597   1.699
 8818TIP3    H150433   6.614   2.519   1.730
 8818TIP3    H250434   6.750   2.586   1.747
 8819TIP3   OH250435   6.866   2.526   0.841
 8819TIP3    H150436   6.836   2.582   0.768
 8819TIP3    H250437   6.874   2.441   0.795
 8820TIP3   OH250438   5.975   2.538   1.360
 8820TIP3    H150439   5.985   2.579   1.447
 8820TIP3    H250440   5.931   2.454   1.382
 8821TIP3   OH250441   6.319   2.190   0.059
 8821TIP3    H150442   6.278   2.207   0.146
 8821TIP3    H250443   6.259   2.254   0.018
 8822TIP3   OH250444   5.641   2.249   0.761
 8822TIP3    H150445   5.710   2.245   0.831
 8822TIP3    H250446   5.686   2.213   0.682
 8823TIP3   OH250447   5.767   2.321   0.294
 8823TIP3    H150448   5.819   2.383   0.239
 8823TIP3    H250449   5.699   2.383   0.329
 8824TIP3   OH250450   6.784   2.683   1.295
 8824TIP3    H150451   6.822   2.614   1.237
 8824TIP3    H250452   6.737   2.631   1.362
 8825TIP3   OH250453   6.464   2.283   0.780
 8825TIP3    H150454   6.370   2.282   0.809
 8825TIP3    H250455   6.512   2.263   0.862
 8826TIP3   OH250456   5.945   2.436   0.667
 8826TIP3    H150457   5.857   2.452   0.627
 8826TIP3    H250458   5.973   2.353   0.625
 8827TIP3   OH250459   6.308   2.443   0.433
 8827TIP3    H150460   6.404   2.452   0.447
 8827TIP3    H250461   6.285   2.508   0.364
 8828TIP3   OH250462   6.906   2.206   1.103
 8828TIP3    H150463   6.838   2.209   1.174
 8828TIP3    H250464   6.854   2.178   1.025
 8829TIP3   OH250465   6.174   2.569   0.193
 8829TIP3    H150466   6.127   2.520   0.124
 8829TIP3    H250467   6.259   2.577   0.147
 8830TIP3   OH250468   7.224   3.767   1.737
 8830TIP3    H150469   7.251   3.807   1.652
 8830TIP3    H250470   7.296   3.800   1.793
 8831TIP3   OH250471   5.992   3.016   1.694
 8831TIP3    H150472   6.065   3.040   1.754
 8831TIP3    H250473   5.916   3.022   1.755
 8832TIP3   OH250474   6.592   2.557   0.969
 8832TIP3    H150475   6.653   2.504   0.916
 8832TIP3    H250476   6.578   2.502   1.047
 8833TIP3   OH250477   6.094   2.171   0.615
 8833TIP3    H150478   6.062   2.079   0.613
 8833TIP3    H250479   6.171   2.164   0.558
 8834TIP3   OH250480   6.457   2.389   1.211
 8834TIP3    H150481   6.374   2.442   1.219
 8834TIP3    H250482   6.512   2.425   1.282
 8835TIP3   OH250483   6.516   3.009   0.382
 8835TIP3    H150484   6.435   2.965   0.347
 8835TIP3    H250485   6.491   3.025   0.475
 8836TIP3   OH250486   7.235   2.933   1.261
 8836TIP3    H150487   7.290   2.982   1.196
 8836TIP3    H250488   7.149   2.936   1.215
 8837TIP3   OH250489   6.900   2.315   0.168
 8837TIP3    H150490   6.804   2.300   0.186
 8837TIP3    H250491   6.926   2.372   0.244
 8838TIP3   OH250492   6.665   3.040   1.505
 8838TIP3    H150493   6.630   2.996   1.583
 8838TIP3    H250494   6.638   3.132   1.517
 8839TIP3   OH250495   6.981   2.481   0.348
 8839TIP3    H150496   7.057   2.473   0.411
 8839TIP3    H250497   6.976   2.577   0.328
 8840TIP3   OH250498   6.027   2.953   0.961
 8840TIP3    H150499   6.094   2.943   0.891
 8840TIP3    H250500   6.032   2.867   1.006
 8841TIP3   OH250501   6.725   3.158   0.285
 8841TIP3    H150502   6.690   3.243   0.317
 8841TIP3    H250503   6.651   3.097   0.305
 8842TIP3   OH250504   5.725   2.791   1.486
 8842TIP3    H150505   5.742   2.747   1.572
 8842TIP3    H250506   5.663   2.731   1.442
 8843TIP3   OH250507   6.427   2.748   1.703
 8843TIP3    H150508   6.394   2.715   1.618
 8843TIP3    H250509   6.519   2.714   1.703
 8844TIP3   OH250510   6.896   3.282   1.500
 8844TIP3    H150511   6.804   3.299   1.477
 8844TIP3    H250512   6.892   3.311   1.594
 8845TIP3   OH250513   7.456   2.498   0.343
 8845TIP3    H150514   7.410   2.468   0.263
 8845TIP3    H250515   7.473   2.591   0.315
 8846TIP3   OH250516   7.461   3.085   1.618
 8846TIP3    H150517   7.371   3.108   1.582
 8846TIP3    H250518   7.515   3.081   1.537
 8847TIP3   OH250519   7.297   3.380   0.380
 8847TIP3    H150520   7.255   3.299   0.411
 8847TIP3    H250521   7.319   3.363   0.286
 8848TIP3   OH250522   7.013   2.864   1.089
 8848TIP3    H150523   6.919   2.844   1.077
 8848TIP3    H250524   7.056   2.788   1.044
 8849TIP3   OH250525   6.264   3.297   0.699
 8849TIP3    H150526   6.313   3.378   0.679
 8849TIP3    H250527   6.176   3.320   0.666
 8850TIP3   OH250528   5.838   2.783   0.149
 8850TIP3    H150529   5.898   2.842   0.199
 8850TIP3    H250530   5.751   2.812   0.183
 8851TIP3   OH250531   6.405   3.063   0.651
 8851TIP3    H150532   6.372   3.155   0.659
 8851TIP3    H250533   6.334   3.013   0.696
 8852TIP3   OH250534   6.450   3.483   1.293
 8852TIP3    H150535   6.497   3.562   1.263
 8852TIP3    H250536   6.512   3.447   1.359
 8853TIP3   OH250537   6.272   3.562   0.605
 8853TIP3    H150538   6.176   3.577   0.617
 8853TIP3    H250539   6.309   3.646   0.636
 8854TIP3   OH250540   6.801   3.080   1.253
 8854TIP3    H150541   6.770   3.062   1.344
 8854TIP3    H250542   6.866   3.010   1.236
 8855TIP3   OH250543   7.030   3.186   0.163
 8855TIP3    H150544   7.067   3.143   0.242
 8855TIP3    H250545   6.936   3.168   0.178
 8856TIP3   OH250546   7.085   3.540   1.502
 8856TIP3    H150547   7.015   3.491   1.455
 8856TIP3    H250548   7.103   3.610   1.435
 8857TIP3   OH250549   7.482   3.627   0.187
 8857TIP3    H150550   7.554   3.690   0.170
 8857TIP3    H250551   7.410   3.688   0.215
 8858TIP3   OH250552   5.891   2.265   1.441
 8858TIP3    H150553   5.800   2.300   1.440
 8858TIP3    H250554   5.880   2.181   1.488
 8859TIP3   OH250555   7.114   3.054   0.392
 8859TIP3    H150556   7.090   2.974   0.442
 8859TIP3    H250557   7.210   3.054   0.404
 8860TIP3   OH250558   5.851   3.443   1.284
 8860TIP3    H150559   5.883   3.351   1.285
 8860TIP3    H250560   5.878   3.473   1.371
 8861TIP3   OH250561   6.324   3.251   0.258
 8861TIP3    H150562   6.357   3.199   0.332
 8861TIP3    H250563   6.336   3.343   0.290
 8862TIP3   OH250564   5.977   2.975   0.303
 8862TIP3    H150565   5.908   3.014   0.360
 8862TIP3    H250566   6.033   3.051   0.280
 8863TIP3   OH250567   6.764   2.243   1.339
 8863TIP3    H150568   6.836   2.249   1.403
 8863TIP3    H250569   6.726   2.155   1.360
 8864TIP3   OH250570   6.838   2.199   0.448
 8864TIP3    H150571   6.862   2.246   0.369
 8864TIP3    H250572   6.894   2.242   0.515
 8865TIP3   OH250573   6.604   3.413   0.324
 8865TIP3    H150574   6.525   3.469   0.340
 8865TIP3    H250575   6.661   3.468   0.269
 8866TIP3   OH250576   6.561   2.374   0.529
 8866TIP3    H150577   6.639   2.433   0.532
 8866TIP3    H250578   6.534   2.362   0.623
 8867TIP3   OH250579   6.617   2.477   1.448
 8867TIP3    H150580   6.624   2.532   1.529
 8867TIP3    H250581   6.683   2.408   1.457
 8868TIP3   OH250582   6.646   2.079   0.615
 8868TIP3    H150583   6.613   2.143   0.681
 8868TIP3    H250584   6.715   2.134   0.571
 8869TIP3   OH250585   6.344   3.521   0.333
 8869TIP3    H150586   6.360   3.603   0.280
 8869TIP3    H250587   6.318   3.556   0.420
 8870TIP3   OH250588   6.209   2.192   0.299
 8870TIP3    H150589   6.207   2.285   0.328
 8870TIP3    H250590   6.302   2.166   0.317
 8871TIP3   OH250591   7.234   2.263   1.532
 8871TIP3    H150592   7.141   2.296   1.519
 8871TIP3    H250593   7.264   2.262   1.440
 8872TIP3   OH250594   7.096   2.642   0.931
 8872TIP3    H150595   7.014   2.598   0.906
 8872TIP3    H250596   7.144   2.574   0.984
 8873TIP3   OH250597   6.038   3.233   0.193
 8873TIP3    H150598   6.104   3.296   0.226
 8873TIP3    H250599   6.087   3.189   0.122
 8874TIP3   OH250600   5.869   2.503   0.108
 8874TIP3    H150601   5.870   2.599   0.126
 8874TIP3    H250602   5.780   2.486   0.075
 8875TIP3   OH250603   7.202   3.569   1.099
 8875TIP3    H150604   7.194   3.637   1.029
 8875TIP3    H250605   7.298   3.574   1.117
 8876TIP3   OH250606   5.951   1.981   0.982
 8876TIP3    H150607   5.933   1.982   0.885
 8876TIP3    H250608   5.910   1.895   1.006
 8877TIP3   OH250609   5.848   3.373   0.596
 8877TIP3    H150610   5.761   3.414   0.589
 8877TIP3    H250611   5.893   3.418   0.523
 8878TIP3   OH250612   5.766   3.638   1.723
 8878TIP3    H150613   5.827   3.619   1.797
 8878TIP3    H250614   5.727   3.551   1.705
 8879TIP3   OH250615   6.236   3.530   1.884
 8879TIP3    H150616   6.311   3.480   1.917
 8879TIP3    H250617   6.233   3.502   1.790
 8880TIP3   OH250618   6.655   3.492   0.052
 8880TIP3    H150619   6.585   3.427   0.068
 8880TIP3    H250620   6.725   3.441   0.009
 8881TIP3   OH250621   6.884   3.369   1.760
 8881TIP3    H150622   6.853   3.280   1.787
 8881TIP3    H250623   6.962   3.381   1.818
 8882TIP3   OH250624   7.127   3.450   0.099
 8882TIP3    H150625   7.139   3.354   0.097
 8882TIP3    H250626   7.159   3.480   0.012
 8883TIP3   OH250627   5.757   3.015   1.823
 8883TIP3    H150628   5.774   2.924   1.794
 8883TIP3    H250629   5.683   3.041   1.765
 8884TIP3   OH250630   6.178   3.033   0.026
 8884TIP3    H150631   6.209   2.965   0.089
 8884TIP3    H250632   6.256   3.039  -0.032
 8885TIP3   OH250633   6.429   3.014   1.761
 8885TIP3    H150634   6.396   3.046   1.675
 8885TIP3    H250635   6.436   2.917   1.750
 8886TIP3   OH250636   6.999   3.000   1.501
 8886TIP3    H150637   7.078   3.057   1.496
 8886TIP3    H250638   6.929   3.067   1.504
 8887TIP3   OH250639   5.851   2.738   1.761
 8887TIP3    H150640   5.893   2.652   1.753
 8887TIP3    H250641   5.828   2.739   1.856
 8888TIP3   OH250642   6.314   2.854   0.266
 8888TIP3    H150643   6.264   2.800   0.330
 8888TIP3    H250644   6.346   2.785   0.204
 8889TIP3   OH250645   6.240   2.632   1.496
 8889TIP3    H150646   6.180   2.704   1.521
 8889TIP3    H250647   6.280   2.669   1.416
 8890TIP3   OH250648   6.425   2.672   0.094
 8890TIP3    H150649   6.400   2.668  -0.001
 8890TIP3    H250650   6.521   2.687   0.097
 8891TIP3   OH250651   6.748   2.890   1.831
 8891TIP3    H150652   6.843   2.887   1.816
 8891TIP3    H250653   6.731   2.813   1.887
 8892TIP3   OH250654   7.351   2.902  11.012
 8892TIP3    H150655   7.338   2.868  10.924
 8892TIP3    H250656   7.360   2.998  10.993
 8893TIP3   OH250657   6.281   2.370   1.601
 8893TIP3    H150658   6.292   2.299   1.534
 8893TIP3    H250659   6.276   2.451   1.547
 8894TIP3   OH250660   6.321   2.208   1.358
 8894TIP3    H150661   6.372   2.255   1.287
 8894TIP3    H250662   6.232   2.201   1.318
 8895TIP3   OH250663   6.475   2.758   1.382
 8895TIP3    H150664   6.550   2.741   1.325
 8895TIP3    H250665   6.438   2.841   1.347
 8896TIP3   OH250666   6.914   2.532   1.877
 8896TIP3    H150667   6.938   2.438   1.868
 8896TIP3    H250668   7.000   2.577   1.881
 8897TIP3   OH250669   7.049   2.812   1.695
 8897TIP3    H150670   7.024   2.884   1.633
 8897TIP3    H250671   7.145   2.809   1.676
 8898TIP3   OH250672   6.127   2.495   1.794
 8898TIP3    H150673   6.050   2.437   1.778
 8898TIP3    H250674   6.192   2.458   1.731
 8899TIP3   OH250675   6.400   1.952   1.395
 8899TIP3    H150676   6.381   2.048   1.386
 8899TIP3    H250677   6.325   1.915   1.345
 8900TIP3   OH250678   6.527   2.385   1.760
 8900TIP3    H150679   6.495   2.361   1.849
 8900TIP3    H250680   6.449   2.364   1.705
 8901TIP3   OH250681   6.799   2.300   1.670
 8901TIP3    H150682   6.703   2.305   1.680
 8901TIP3    H250683   6.825   2.235   1.739
 8902TIP3   OH250684   6.957   2.161   1.857
 8902TIP3    H150685   6.953   2.063   1.861
 8902TIP3    H250686   6.933   2.190   1.948
 8903TIP3   OH250687   5.935   2.290   1.770
 8903TIP3    H150688   5.959   2.216   1.712
 8903TIP3    H250689   5.925   2.245   1.857
 8904TIP3   OH250690   6.421   1.892   1.666
 8904TIP3    H150691   6.489   1.822   1.665
 8904TIP3    H250692   6.410   1.905   1.570
 8905TIP3   OH250693   6.458   2.052   1.879
 8905TIP3    H150694   6.440   2.001   1.796
 8905TIP3    H250695   6.398   2.129   1.869
 8906TIP3   OH250696   6.404   3.748   0.199
 8906TIP3    H150697   6.502   3.754   0.203
 8906TIP3    H250698   6.384   3.809   0.127
 8907TIP3   OH250699   5.767   3.200   0.144
 8907TIP3    H150700   5.863   3.212   0.162
 8907TIP3    H250701   5.769   3.142   0.067
 8908TIP3   OH250702   5.626   3.738   0.642
 8908TIP3    H150703   5.579   3.676   0.584
 8908TIP3    H250704   5.670   3.677   0.705
 8909TIP3   OH250705   5.715   3.556   0.827
 8909TIP3    H150706   5.687   3.465   0.847
 8909TIP3    H250707   5.746   3.585   0.915
 8910TIP3   OH250708   7.468   3.635   1.119
 8910TIP3    H150709   7.478   3.647   1.215
 8910TIP3    H250710   7.542   3.688   1.088
 8911TIP3   OH250711   7.433   3.592   1.414
 8911TIP3    H150712   7.384   3.516   1.376
 8911TIP3    H250713   7.481   3.546   1.486
 8912TIP3   OH250714   7.276   3.165   1.882
 8912TIP3    H150715   7.185   3.163   1.918
 8912TIP3    H250716   7.313   3.245   1.922
 8913TIP3   OH250717   7.410   2.996   0.423
 8913TIP3    H150718   7.495   3.037   0.446
 8913TIP3    H250719   7.405   2.926   0.492
 8914TIP3   OH250720   7.441   2.805   0.612
 8914TIP3    H150721   7.366   2.756   0.652
 8914TIP3    H250722   7.501   2.817   0.688
 8915TIP3   OH250723   7.418   3.074   1.111
 8915TIP3    H150724   7.499   3.036   1.073
 8915TIP3    H250725   7.433   3.169   1.094
 8916TIP3   OH250726   7.275   3.366   1.338
 8916TIP3    H150727   7.206   3.400   1.397
 8916TIP3    H250728   7.221   3.326   1.267
 8917TIP3   OH250729   7.468   2.785   0.249
 8917TIP3    H150730   7.413   2.826   0.178
 8917TIP3    H250731   7.463   2.857   0.315
 8918TIP3   OH250732   7.328   2.514   0.093
 8918TIP3    H150733   7.325   2.582   0.024
 8918TIP3    H250734   7.311   2.429   0.047
 8919TIP3   OH250735   7.225   2.652   0.668
 8919TIP3    H150736   7.212   2.556   0.668
 8919TIP3    H250737   7.194   2.674   0.758
 8920TIP3   OH250738   5.726   2.862   1.077
 8920TIP3    H150739   5.743   2.853   0.980
 8920TIP3    H250740   5.815   2.843   1.111
 8921TIP3   OH250741   7.312   2.849   1.640
 8921TIP3    H150742   7.373   2.773   1.652
 8921TIP3    H250743   7.372   2.926   1.639
 8922TIP3   OH250744   7.462   2.637   1.704
 8922TIP3    H150745   7.374   2.597   1.689
 8922TIP3    H250746   7.520   2.558   1.697
 8923TIP3   OH250747   7.212   2.253   0.125
 8923TIP3    H150748   7.298   2.211   0.098
 8923TIP3    H250749   7.159   2.212   0.055
 8924TIP3   OH250750   7.188   2.411   0.505
 8924TIP3    H150751   7.219   2.320   0.527
 8924TIP3    H250752   7.273   2.451   0.482
 8925TIP3   OH250753   7.256   2.466   1.060
 8925TIP3    H150754   7.352   2.488   1.059
 8925TIP3    H250755   7.238   2.479   1.155
 8926TIP3   OH250756   7.262   2.536   1.339
 8926TIP3    H150757   7.174   2.566   1.369
 8926TIP3    H250758   7.306   2.622   1.316
 8927TIP3   OH250759   5.688   2.392   1.693
 8927TIP3    H150760   5.782   2.369   1.711
 8927TIP3    H250761   5.642   2.309   1.718
 8928TIP3   OH250762   7.491   1.945   1.872
 8928TIP3    H150763   7.526   1.878   1.810
 8928TIP3    H250764   7.500   2.026   1.818
 8929TIP3   OH250765   7.257   2.142   0.520
 8929TIP3    H150766   7.283   2.099   0.604
 8929TIP3    H250767   7.199   2.075   0.478
 8930TIP3   OH250768   5.808   2.221   0.977
 8930TIP3    H150769   5.853   2.138   1.001
 8930TIP3    H250770   5.864   2.289   1.015
 8931TIP3   OH250771   5.636   2.521   1.080
 8931TIP3    H150772   5.692   2.495   1.004
 8931TIP3    H250773   5.684   2.601   1.107
 8932TIP3   OH250774   7.442   2.154   1.707
 8932TIP3    H150775   7.348   2.182   1.702
 8932TIP3    H250776   7.444   2.098   1.628
 8933TIP3   OH250777   7.448   2.144   0.173
 8933TIP3    H150778   7.491   2.073   0.123
 8933TIP3    H250779   7.519   2.208   0.189
 8934TIP3   OH250780   5.671   2.147   0.489
 8934TIP3    H150781   5.577   2.164   0.473
 8934TIP3    H250782   5.714   2.196   0.417
 8935TIP3   OH250783   7.145   3.640   0.683
 8935TIP3    H150784   7.213   3.612   0.619
 8935TIP3    H250785   7.197   3.691   0.747
 8936TIP3   OH250786   5.667   2.011   1.316
 8936TIP3    H150787   5.601   1.992   1.385
 8936TIP3    H250788   5.621   2.079   1.263
 8937TIP3   OH250789   5.892   3.330   1.732
 8937TIP3    H150790   5.808   3.354   1.689
 8937TIP3    H250791   5.865   3.323   1.824
 8938TIP3   OH250792   6.181   3.433   1.361
 8938TIP3    H150793   6.150   3.520   1.334
 8938TIP3    H250794   6.274   3.440   1.331
 8939TIP3   OH250795   6.613   3.575   1.650
 8939TIP3    H150796   6.626   3.539   1.741
 8939TIP3    H250797   6.703   3.605   1.627
 8940TIP3   OH250798   6.842   3.701   1.582
 8940TIP3    H150799   6.915   3.644   1.559
 8940TIP3    H250800   6.879   3.746   1.662
 8941TIP3   OH250801   7.344   1.963   1.494
 8941TIP3    H150802   7.262   1.993   1.453
 8941TIP3    H250803   7.360   1.880   1.443
 8942TIP3   OH250804   5.923   3.757   1.359
 8942TIP3    H150805   5.850   3.807   1.320
 8942TIP3    H250806   5.893   3.738   1.449
 8943TIP3   OH250807   6.170   3.713   1.267
 8943TIP3    H150808   6.081   3.730   1.306
 8943TIP3    H250809   6.166   3.772   1.190
 8944TIP3   OH250810   6.641   3.705   1.184
 8944TIP3    H150811   6.595   3.761   1.120
 8944TIP3    H250812   6.654   3.768   1.258
 8945TIP3   OH250813   6.869   3.584   1.289
 8945TIP3    H150814   6.785   3.614   1.250
 8945TIP3    H250815   6.919   3.667   1.279
 8946TIP3   OH250816   7.127   3.741   1.309
 8946TIP3    H150817   7.124   3.837   1.286
 8946TIP3    H250818   7.150   3.704   1.221
 8947TIP3   OH250819   5.870   3.621   1.055
 8947TIP3    H150820   5.861   3.575   1.141
 8947TIP3    H250821   5.952   3.582   1.016
 8948TIP3   OH250822   6.077   3.492   0.920
 8948TIP3    H150823   6.062   3.399   0.944
 8948TIP3    H250824   6.163   3.508   0.964
 8949TIP3   OH250825   6.338   3.541   1.008
 8949TIP3    H150826   6.353   3.448   0.982
 8949TIP3    H250827   6.343   3.535   1.105
 8950TIP3   OH250828   6.683   2.106   0.918
 8950TIP3    H150829   6.616   2.043   0.950
 8950TIP3    H250830   6.739   2.050   0.863
 8951TIP3   OH250831   7.197   1.909   0.926
 8951TIP3    H150832   7.258   1.969   0.876
 8951TIP3    H250833   7.108   1.946   0.905
 8952TIP3   OH250834   7.363   2.036   0.753
 8952TIP3    H150835   7.432   1.977   0.713
 8952TIP3    H250836   7.415   2.119   0.766
 8953TIP3   OH250837   5.920   1.967   0.708
 8953TIP3    H150838   5.841   1.950   0.654
 8953TIP3    H250839   5.966   1.881   0.700
 8954TIP3   OH250840   5.800   1.943   0.284
 8954TIP3    H150841   5.844   2.008   0.227
 8954TIP3    H250842   5.743   2.000   0.339
 8955TIP3   OH250843   6.366   1.960   0.685
 8955TIP3    H150844   6.456   1.996   0.676
 8955TIP3    H250845   6.364   1.938   0.778
 8956TIP3   OH250846   6.940   1.962   0.847
 8956TIP3    H150847   6.933   1.974   0.751
 8956TIP3    H250848   6.900   1.872   0.860
 8957TIP3   OH250849   7.065   1.966   0.412
 8957TIP3    H150850   6.988   2.024   0.402
 8957TIP3    H250851   7.024   1.880   0.434
 8958TIP3   OH250852   5.786   3.539   0.380
 8958TIP3    H150853   5.720   3.540   0.308
 8958TIP3    H250854   5.794   3.635   0.394
 8959TIP3   OH250855   5.978   2.131   0.134
 8959TIP3    H150856   6.036   2.076   0.081
 8959TIP3    H250857   6.045   2.174   0.191
 8960TIP3   OH250858   6.488   2.162   0.364
 8960TIP3    H150859   6.508   2.104   0.439
 8960TIP3    H250860   6.490   2.247   0.414
 8961TIP3   OH250861   6.673   3.683   0.217
 8961TIP3    H150862   6.768   3.692   0.200
 8961TIP3    H250863   6.654   3.623   0.141
 8962TIP3   OH250864   7.345   3.621   0.485
 8962TIP3    H150865   7.325   3.542   0.429
 8962TIP3    H250866   7.336   3.694   0.420
 8963TIP3   OH250867   5.908   2.022   1.651
 8963TIP3    H150868   5.868   1.942   1.691
 8963TIP3    H250869   5.999   2.017   1.690
 8964TIP3   OH250870   6.108   1.961   1.817
 8964TIP3    H150871   6.197   1.927   1.795
 8964TIP3    H250872   6.071   1.880   1.856
 8965TIP3   OH250873   5.967   3.630   0.074
 8965TIP3    H150874   5.940   3.665   0.160
 8965TIP3    H250875   6.048   3.582   0.093
 8966TIP3   OH250876   6.948   1.888   1.831
 8966TIP3    H150877   6.958   1.841   1.916
 8966TIP3    H250878   7.040   1.885   1.797
 8967TIP3   OH250879   7.269   3.494   1.693
 8967TIP3    H150880   7.189   3.481   1.638
 8967TIP3    H250881   7.257   3.589   1.713
 8968TIP3   OH250882   7.832   2.777   1.199
 8968TIP3    H150883   7.846   2.705   1.264
 8968TIP3    H250884   7.912   2.829   1.217
 8969TIP3   OH250885   7.908   3.206   1.062
 8969TIP3    H150886   7.892   3.123   1.014
 8969TIP3    H250887   8.006   3.210   1.054
 8970TIP3   OH250888   7.588   2.574   0.596
 8970TIP3    H150889   7.547   2.663   0.589
 8970TIP3    H250890   7.532   2.521   0.540
 8971TIP3   OH250891   7.663   2.799   0.811
 8971TIP3    H150892   7.690   2.716   0.856
 8971TIP3    H250893   7.733   2.809   0.745
 8972TIP3   OH250894   7.723   2.542   0.916
 8972TIP3    H150895   7.794   2.491   0.961
 8972TIP3    H250896   7.742   2.513   0.825
 8973TIP3   OH250897   7.935   2.191   1.243
 8973TIP3    H150898   7.924   2.255   1.169
 8973TIP3    H250899   7.878   2.224   1.314
 8974TIP3   OH250900   7.901   2.364   1.040
 8974TIP3    H150901   7.955   2.437   1.081
 8974TIP3    H250902   7.960   2.335   0.968
 8975TIP3   OH250903   8.033   3.193   1.352
 8975TIP3    H150904   8.025   3.279   1.312
 8975TIP3    H250905   7.947   3.174   1.395
 8976TIP3   OH250906   7.660   3.118   0.432
 8976TIP3    H150907   7.640   3.151   0.342
 8976TIP3    H250908   7.667   3.202   0.482
 8977TIP3   OH250909   7.897   2.825   1.480
 8977TIP3    H150910   7.907   2.889   1.551
 8977TIP3    H250911   7.804   2.835   1.457
 8978TIP3   OH250912   8.037   3.412   1.640
 8978TIP3    H150913   8.033   3.399   1.545
 8978TIP3    H250914   7.942   3.400   1.664
 8979TIP3   OH250915   7.978   2.799   0.487
 8979TIP3    H150916   7.953   2.877   0.434
 8979TIP3    H250917   7.912   2.734   0.464
 8980TIP3   OH250918   7.589   3.038   1.380
 8980TIP3    H150919   7.547   3.029   1.293
 8980TIP3    H250920   7.602   2.943   1.401
 8981TIP3   OH250921   7.568   3.312   1.058
 8981TIP3    H150922   7.664   3.301   1.054
 8981TIP3    H250923   7.562   3.395   1.106
 8982TIP3   OH250924   7.883   3.590   0.676
 8982TIP3    H150925   7.900   3.551   0.763
 8982TIP3    H250926   7.797   3.549   0.654
 8983TIP3   OH250927   7.809   3.174   1.479
 8983TIP3    H150928   7.839   3.129   1.561
 8983TIP3    H250929   7.728   3.126   1.452
 8984TIP3   OH250930   7.860   2.541   1.363
 8984TIP3    H150931   7.864   2.579   1.452
 8984TIP3    H250932   7.822   2.454   1.380
 8985TIP3   OH250933   7.524   2.248   0.760
 8985TIP3    H150934   7.592   2.245   0.831
 8985TIP3    H250935   7.572   2.214   0.682
 8986TIP3   OH250936   7.648   2.323   0.291
 8986TIP3    H150937   7.703   2.385   0.240
 8986TIP3    H250938   7.583   2.385   0.330
 8987TIP3   OH250939   7.827   2.441   0.665
 8987TIP3    H150940   7.738   2.450   0.627
 8987TIP3    H250941   7.860   2.354   0.636
 8988TIP3   OH250942   7.876   3.024   1.691
 8988TIP3    H150943   7.946   3.042   1.754
 8988TIP3    H250944   7.798   3.026   1.751
 8989TIP3   OH250945   7.929   2.166   0.593
 8989TIP3    H150946   7.925   2.072   0.621
 8989TIP3    H250947   8.026   2.174   0.586
 8990TIP3   OH250948   7.907   2.952   0.953
 8990TIP3    H150949   7.984   2.946   0.894
 8990TIP3    H250950   7.917   2.870   1.006
 8991TIP3   OH250951   7.612   2.791   1.487
 8991TIP3    H150952   7.627   2.746   1.572
 8991TIP3    H250953   7.549   2.732   1.442
 8992TIP3   OH250954   7.727   2.779   0.157
 8992TIP3    H150955   7.784   2.847   0.196
 8992TIP3    H250956   7.638   2.813   0.182
 8993TIP3   OH250957   7.774   2.266   1.446
 8993TIP3    H150958   7.683   2.299   1.435
 8993TIP3    H250959   7.761   2.178   1.487
 8994TIP3   OH250960   7.745   3.442   1.281
 8994TIP3    H150961   7.760   3.348   1.288
 8994TIP3    H250962   7.761   3.474   1.371
 8995TIP3   OH250963   7.866   2.974   0.304
 8995TIP3    H150964   7.795   3.016   0.357
 8995TIP3    H250965   7.917   3.051   0.272
 8996TIP3   OH250966   7.917   3.244   0.206
 8996TIP3    H150967   7.991   3.301   0.227
 8996TIP3    H250968   7.959   3.192   0.132
 8997TIP3   OH250969   7.758   2.502   0.116
 8997TIP3    H150970   7.756   2.600   0.121
 8997TIP3    H250971   7.675   2.481   0.075
 8998TIP3   OH250972   7.834   1.982   0.983
 8998TIP3    H150973   7.823   1.984   0.885
 8998TIP3    H250974   7.797   1.895   1.007
 8999TIP3   OH250975   7.726   3.373   0.595
 8999TIP3    H150976   7.642   3.421   0.589
 8999TIP3    H250977   7.778   3.417   0.526
 9000TIP3   OH250978   7.650   3.638   1.723
 9000TIP3    H150979   7.710   3.619   1.797
 9000TIP3    H250980   7.611   3.550   1.705
 9001TIP3   OH250981   7.644   3.015   1.823
 9001TIP3    H150982   7.658   2.923   1.794
 9001TIP3    H250983   7.569   3.040   1.766
 9002TIP3   OH250984   7.737   2.739   1.762
 9002TIP3    H150985   7.778   2.652   1.750
 9002TIP3    H250986   7.716   2.738   1.856
 9003TIP3   OH250987   7.999   2.512   1.806
 9003TIP3    H150988   7.930   2.445   1.786
 9003TIP3    H250989   8.069   2.481   1.747
 9004TIP3   OH250990   7.820   2.288   1.769
 9004TIP3    H150991   7.843   2.213   1.710
 9004TIP3    H250992   7.814   2.246   1.857
 9005TIP3   OH250993   7.648   3.197   0.150
 9005TIP3    H150994   7.744   3.212   0.163
 9005TIP3    H250995   7.653   3.144   0.069
 9006TIP3   OH250996   7.522   3.739   0.639
 9006TIP3    H150997   7.449   3.690   0.594
 9006TIP3    H250998   7.552   3.675   0.706
 9007TIP3   OH250999   7.604   3.552   0.827
 9007TIP3    H151000   7.569   3.465   0.847
 9007TIP3    H251001   7.631   3.585   0.915
 9008TIP3   OH251002   7.613   2.866   1.074
 9008TIP3    H151003   7.634   2.851   0.979
 9008TIP3    H251004   7.700   2.843   1.112
 9009TIP3   OH251005   7.571   2.392   1.691
 9009TIP3    H151006   7.665   2.370   1.708
 9009TIP3    H251007   7.526   2.309   1.718
 9010TIP3   OH251008   7.690   2.220   0.977
 9010TIP3    H151009   7.741   2.139   0.997
 9010TIP3    H251010   7.751   2.288   1.010
 9011TIP3   OH251011   7.518   2.521   1.078
 9011TIP3    H151012   7.578   2.495   1.004
 9011TIP3    H251013   7.566   2.600   1.108
 9012TIP3   OH251014   7.557   2.143   0.486
 9012TIP3    H151015   7.463   2.163   0.474
 9012TIP3    H251016   7.597   2.198   0.417
 9013TIP3   OH251017   7.551   2.011   1.317
 9013TIP3    H151018   7.483   1.992   1.384
 9013TIP3    H251019   7.507   2.078   1.262
 9014TIP3   OH251020   7.774   3.332   1.733
 9014TIP3    H151021   7.691   3.355   1.687
 9014TIP3    H251022   7.745   3.322   1.824
 9015TIP3   OH251023   7.808   3.758   1.363
 9015TIP3    H151024   7.735   3.806   1.321
 9015TIP3    H251025   7.773   3.740   1.451
 9016TIP3   OH251026   8.034   3.679   1.237
 9016TIP3    H151027   7.969   3.716   1.300
 9016TIP3    H251028   8.056   3.762   1.192
 9017TIP3   OH251029   7.745   3.621   1.057
 9017TIP3    H151030   7.751   3.576   1.144
 9017TIP3    H251031   7.829   3.587   1.017
 9018TIP3   OH251032   7.943   3.491   0.936
 9018TIP3    H151033   7.938   3.395   0.949
 9018TIP3    H251034   8.034   3.504   0.970
 9019TIP3   OH251035   7.798   1.962   0.710
 9019TIP3    H151036   7.720   1.944   0.654
 9019TIP3    H251037   7.851   1.881   0.705
 9020TIP3   OH251038   7.683   1.944   0.282
 9020TIP3    H151039   7.729   2.010   0.227
 9020TIP3    H251040   7.628   1.999   0.340
 9021TIP3   OH251041   7.676   3.539   0.373
 9021TIP3    H151042   7.604   3.539   0.308
 9021TIP3    H251043   7.678   3.634   0.396
 9022TIP3   OH251044   7.865   2.124   0.137
 9022TIP3    H151045   7.924   2.077   0.076
 9022TIP3    H251046   7.928   2.175   0.189
 9023TIP3   OH251047   7.800   2.023   1.648
 9023TIP3    H151048   7.760   1.945   1.689
 9023TIP3    H251049   7.889   2.018   1.688
 9024TIP3   OH251050   7.991   1.956   1.815
 9024TIP3    H151051   8.081   1.926   1.791
 9024TIP3    H251052   7.955   1.876   1.857
 9025TIP3   OH251053   7.854   3.637   0.075
 9025TIP3    H151054   7.828   3.667   0.163
 9025TIP3    H251055   7.931   3.581   0.090
 9026TIP3   OH251056   1.173   4.768   0.689
 9026TIP3    H151057   1.170   4.866   0.688
 9026TIP3    H251058   1.098   4.744   0.632
 9027TIP3   OH251059   1.058   4.692   1.041
 9027TIP3    H151060   1.056   4.628   1.113
 9027TIP3    H251061   1.021   4.641   0.967
 9028TIP3   OH251062   0.307   4.652   1.187
 9028TIP3    H151063   0.300   4.593   1.265
 9028TIP3    H251064   0.368   4.719   1.221
 9029TIP3   OH251065   1.434   4.988   0.875
 9029TIP3    H151066   1.383   4.917   0.916
 9029TIP3    H251067   1.421   5.059   0.941
 9030TIP3   OH251068   0.383   5.106   1.043
 9030TIP3    H151069   0.354   5.016   1.017
 9030TIP3    H251070   0.478   5.088   1.050
 9031TIP3   OH251071   0.054   4.463   0.586
 9031TIP3    H151072   0.010   4.550   0.592
 9031TIP3    H251073  -0.011   4.408   0.545
 9032TIP3   OH251074   0.120   4.680   0.810
 9032TIP3    H151075   0.146   4.598   0.856
 9032TIP3    H251076   0.189   4.691   0.743
 9033TIP3   OH251077   1.138   5.504   0.894
 9033TIP3    H151078   1.204   5.435   0.866
 9033TIP3    H251079   1.115   5.469   0.980
 9034TIP3   OH251080   0.895   4.932   1.091
 9034TIP3    H151081   0.928   4.870   1.024
 9034TIP3    H251082   0.977   4.949   1.141
 9035TIP3   OH251083   1.753   4.100   1.160
 9035TIP3    H151084   1.772   4.157   1.237
 9035TIP3    H251085   1.811   4.141   1.095
 9036TIP3   OH251086   1.212   4.380   1.121
 9036TIP3    H151087   1.229   4.284   1.122
 9036TIP3    H251088   1.201   4.393   1.025
 9037TIP3   OH251089   0.523   4.189   0.842
 9037TIP3    H151090   0.533   4.273   0.793
 9037TIP3    H251091   0.485   4.132   0.772
 9038TIP3   OH251092   1.296   4.195   0.678
 9038TIP3    H151093   1.361   4.165   0.746
 9038TIP3    H251094   1.353   4.253   0.625
 9039TIP3   OH251095   0.196   4.431   0.914
 9039TIP3    H151096   0.258   4.371   0.960
 9039TIP3    H251097   0.198   4.396   0.823
 9040TIP3   OH251098   0.700   4.585   0.848
 9040TIP3    H151099   0.768   4.527   0.886
 9040TIP3    H251100   0.650   4.520   0.796
 9041TIP3   OH251101   1.797   4.238   1.389
 9041TIP3    H151102   1.738   4.316   1.377
 9041TIP3    H251103   1.801   4.233   1.485
 9042TIP3   OH251104   0.417   4.078   1.244
 9042TIP3    H151105   0.386   4.137   1.172
 9042TIP3    H251106   0.350   4.099   1.314
 9043TIP3   OH251107   1.142   5.027   0.601
 9043TIP3    H151108   1.114   4.998   0.512
 9043TIP3    H251109   1.112   5.121   0.603
 9044TIP3   OH251110   0.667   4.843   1.269
 9044TIP3    H151111   0.596   4.906   1.292
 9044TIP3    H251112   0.737   4.903   1.239
 9045TIP3   OH251113   1.479   4.131   0.878
 9045TIP3    H151114   1.456   4.055   0.931
 9045TIP3    H251115   1.545   4.175   0.934
 9046TIP3   OH251116   0.375   4.261   1.051
 9046TIP3    H151117   0.434   4.333   1.081
 9046TIP3    H251118   0.426   4.224   0.974
 9047TIP3   OH251119   0.511   5.043   1.350
 9047TIP3    H151120   0.504   5.134   1.318
 9047TIP3    H251121   0.423   5.034   1.394
 9048TIP3   OH251122   0.115   5.004   0.427
 9048TIP3    H151123   0.092   5.039   0.340
 9048TIP3    H251124   0.125   5.084   0.482
 9049TIP3   OH251125   1.481   5.174   1.099
 9049TIP3    H151126   1.384   5.181   1.119
 9049TIP3    H251127   1.501   5.269   1.090
 9050TIP3   OH251128   1.512   4.000   1.245
 9050TIP3    H151129   1.439   4.063   1.235
 9050TIP3    H251130   1.583   4.042   1.193
 9051TIP3   OH251131   0.806   3.812   0.992
 9051TIP3    H151132   0.791   3.716   0.984
 9051TIP3    H251133   0.719   3.843   1.023
 9052TIP3   OH251134   1.310   5.348   0.772
 9052TIP3    H151135   1.344   5.278   0.713
 9052TIP3    H251136   1.348   5.428   0.729
 9053TIP3   OH251137   1.430   5.141   0.620
 9053TIP3    H151138   1.397   5.076   0.555
 9053TIP3    H251139   1.425   5.090   0.702
 9054TIP3   OH251140   1.587   5.003   1.466
 9054TIP3    H151141   1.602   4.936   1.397
 9054TIP3    H251142   1.608   5.087   1.422
 9055TIP3   OH251143   1.037   4.688   0.441
 9055TIP3    H151144   0.970   4.750   0.407
 9055TIP3    H251145   1.109   4.700   0.376
 9056TIP3   OH251146   1.045   4.546   0.146
 9056TIP3    H151147   1.116   4.550   0.212
 9056TIP3    H251148   1.075   4.474   0.091
 9057TIP3   OH251149   1.777   4.633   1.273
 9057TIP3    H151150   1.711   4.704   1.276
 9057TIP3    H251151   1.826   4.655   1.192
 9058TIP3   OH251152   1.384   4.713   0.537
 9058TIP3    H151153   1.308   4.736   0.596
 9058TIP3    H251154   1.431   4.645   0.589
 9059TIP3   OH251155   1.374   4.528   1.450
 9059TIP3    H151156   1.376   4.611   1.500
 9059TIP3    H251157   1.313   4.557   1.379
 9060TIP3   OH251158   0.545   4.778   0.728
 9060TIP3    H151159   0.510   4.738   0.644
 9060TIP3    H251160   0.606   4.708   0.761
 9061TIP3   OH251161   0.675   5.115   0.995
 9061TIP3    H151162   0.675   5.064   0.913
 9061TIP3    H251163   0.754   5.081   1.040
 9062TIP3   OH251164   0.579   4.651   1.093
 9062TIP3    H151165   0.631   4.662   1.012
 9062TIP3    H251166   0.614   4.720   1.154
 9063TIP3   OH251167   1.221   5.211   1.164
 9063TIP3    H151168   1.191   5.274   1.230
 9063TIP3    H251169   1.196   5.125   1.205
 9064TIP3   OH251170   0.672   5.096   1.563
 9064TIP3    H151171   0.629   5.169   1.613
 9064TIP3    H251172   0.605   5.076   1.493
 9065TIP3   OH251173   1.269   4.632   0.302
 9065TIP3    H151174   1.324   4.651   0.382
 9065TIP3    H251175   1.315   4.683   0.231
 9066TIP3   OH251176   0.364   4.708   1.480
 9066TIP3    H151177   0.371   4.780   1.545
 9066TIP3    H251178   0.269   4.719   1.457
 9067TIP3   OH251179   1.044   5.306   0.646
 9067TIP3    H151180   1.083   5.335   0.729
 9067TIP3    H251181   0.985   5.380   0.623
 9068TIP3   OH251182   0.498   5.298   1.638
 9068TIP3    H151183   0.489   5.290   1.541
 9068TIP3    H251184   0.404   5.285   1.665
 9069TIP3   OH251185   1.645   3.805   0.290
 9069TIP3    H151186   1.549   3.812   0.312
 9069TIP3    H251187   1.661   3.890   0.246
 9070TIP3   OH251188   0.445   4.679   0.484
 9070TIP3    H151189   0.411   4.758   0.438
 9070TIP3    H251190   0.377   4.614   0.467
 9071TIP3   OH251191   1.757   5.239   0.128
 9071TIP3    H151192   1.770   5.334   0.146
 9071TIP3    H251193   1.848   5.207   0.125
 9072TIP3   OH251194   0.102   4.880   1.355
 9072TIP3    H151195   0.026   4.916   1.307
 9072TIP3    H251196   0.056   4.811   1.406
 9073TIP3   OH251197   0.050   5.220   1.040
 9073TIP3    H151198   0.139   5.188   1.059
 9073TIP3    H251199   0.031   5.277   1.115
 9074TIP3   OH251200   1.849   5.268   1.626
 9074TIP3    H151201   1.837   5.172   1.623
 9074TIP3    H251202   1.762   5.293   1.664
 9075TIP3   OH251203   0.944   5.221   1.511
 9075TIP3    H151204   0.950   5.305   1.562
 9075TIP3    H251205   0.856   5.186   1.535
 9076TIP3   OH251206   0.988   5.596   0.492
 9076TIP3    H151207   0.980   5.591   0.395
 9076TIP3    H251208   0.992   5.692   0.508
 9077TIP3   OH251209   0.358   5.481   0.671
 9077TIP3    H151210   0.368   5.443   0.761
 9077TIP3    H251211   0.272   5.442   0.648
 9078TIP3   OH251212   1.290   5.513   0.196
 9078TIP3    H151213   1.344   5.443   0.152
 9078TIP3    H251214   1.301   5.487   0.290
 9079TIP3   OH251215   1.263   5.510   0.468
 9079TIP3    H151216   1.167   5.518   0.486
 9079TIP3    H251217   1.287   5.436   0.525
 9080TIP3   OH251218   1.564   4.414   1.672
 9080TIP3    H151219   1.516   4.459   1.600
 9080TIP3    H251220   1.562   4.322   1.642
 9081TIP3   OH251221   0.278   5.062   1.475
 9081TIP3    H151222   0.294   5.019   1.562
 9081TIP3    H251223   0.197   5.015   1.446
 9082TIP3   OH251224   0.547   3.904   1.065
 9082TIP3    H151225   0.456   3.891   1.031
 9082TIP3    H251226   0.532   3.986   1.117
 9083TIP3   OH251227   1.011   3.868   1.403
 9083TIP3    H151228   1.050   3.826   1.482
 9083TIP3    H251229   0.914   3.858   1.418
 9084TIP3   OH251230   1.339   4.255   1.494
 9084TIP3    H151231   1.282   4.233   1.572
 9084TIP3    H251232   1.321   4.347   1.471
 9085TIP3   OH251233   1.423   4.719   0.089
 9085TIP3    H151234   1.407   4.730  -0.006
 9085TIP3    H251235   1.499   4.777   0.096
 9086TIP3   OH251236   0.976   4.128   0.138
 9086TIP3    H151237   0.940   4.121   0.228
 9086TIP3    H251238   0.945   4.042   0.105
 9087TIP3   OH251239   0.557   4.401   1.195
 9087TIP3    H151240   0.482   4.400   1.258
 9087TIP3    H251241   0.551   4.491   1.156
 9088TIP3   OH251242   0.553   4.411   0.681
 9088TIP3    H151243   0.459   4.388   0.667
 9088TIP3    H251244   0.590   4.383   0.595
 9089TIP3   OH251245   1.104   4.461   0.554
 9089TIP3    H151246   1.066   4.545   0.519
 9089TIP3    H251247   1.173   4.445   0.488
 9090TIP3   OH251248   1.008   4.485   1.704
 9090TIP3    H151249   0.957   4.404   1.728
 9090TIP3    H251250   1.095   4.470   1.744
 9091TIP3   OH251251   1.208   4.412   0.841
 9091TIP3    H151252   1.179   4.468   0.768
 9091TIP3    H251253   1.217   4.327   0.795
 9092TIP3   OH251254   0.321   4.426   1.359
 9092TIP3    H151255   0.324   4.468   1.447
 9092TIP3    H251256   0.274   4.343   1.379
 9093TIP3   OH251257   0.659   4.073   0.062
 9093TIP3    H151258   0.619   4.096   0.147
 9093TIP3    H251259   0.606   4.139   0.014
 9094TIP3   OH251260   0.014   4.167   0.767
 9094TIP3    H151261   0.065   4.132   0.843
 9094TIP3    H251262   0.025   4.100   0.702
 9095TIP3   OH251263   0.111   4.218   0.294
 9095TIP3    H151264   0.165   4.274   0.237
 9095TIP3    H251265   0.044   4.278   0.328
 9096TIP3   OH251266   1.127   4.569   1.295
 9096TIP3    H151267   1.166   4.500   1.237
 9096TIP3    H251268   1.080   4.516   1.361
 9097TIP3   OH251269   0.808   4.168   0.780
 9097TIP3    H151270   0.715   4.167   0.808
 9097TIP3    H251271   0.856   4.149   0.862
 9098TIP3   OH251272   0.293   4.320   0.667
 9098TIP3    H151273   0.204   4.339   0.630
 9098TIP3    H251274   0.314   4.234   0.626
 9099TIP3   OH251275   0.651   4.329   0.434
 9099TIP3    H151276   0.748   4.337   0.447
 9099TIP3    H251277   0.628   4.394   0.365
 9100TIP3   OH251278   1.249   4.091   1.103
 9100TIP3    H151279   1.181   4.095   1.174
 9100TIP3    H251280   1.198   4.064   1.025
 9101TIP3   OH251281   0.517   4.455   0.193
 9101TIP3    H151282   0.472   4.406   0.123
 9101TIP3    H251283   0.603   4.462   0.147
 9102TIP3   OH251284   1.568   5.654   1.736
 9102TIP3    H151285   1.594   5.692   1.651
 9102TIP3    H251286   1.640   5.686   1.792
 9103TIP3   OH251287   0.340   4.898   1.696
 9103TIP3    H151288   0.413   4.925   1.755
 9103TIP3    H251289   0.263   4.908   1.754
 9104TIP3   OH251290   0.936   4.443   0.969
 9104TIP3    H151291   0.996   4.390   0.916
 9104TIP3    H251292   0.921   4.388   1.047
 9105TIP3   OH251293   0.440   4.057   0.616
 9105TIP3    H151294   0.404   3.966   0.613
 9105TIP3    H251295   0.518   4.049   0.559
 9106TIP3   OH251296   0.800   4.275   1.211
 9106TIP3    H151297   0.717   4.327   1.219
 9106TIP3    H251298   0.855   4.311   1.282
 9107TIP3   OH251299   0.859   4.895   0.382
 9107TIP3    H151300   0.778   4.850   0.347
 9107TIP3    H251301   0.834   4.910   0.475
 9108TIP3   OH251302   1.579   4.820   1.261
 9108TIP3    H151303   1.633   4.866   1.195
 9108TIP3    H251304   1.492   4.820   1.216
 9109TIP3   OH251305   1.243   4.186   0.184
 9109TIP3    H151306   1.146   4.190   0.187
 9109TIP3    H251307   1.276   4.262   0.237
 9110TIP3   OH251308   1.008   4.926   1.505
 9110TIP3    H151309   0.973   4.882   1.583
 9110TIP3    H251310   0.981   5.018   1.517
 9111TIP3   OH251311   1.312   4.372   0.366
 9111TIP3    H151312   1.402   4.355   0.400
 9111TIP3    H251313   1.324   4.453   0.313
 9112TIP3   OH251314   0.369   4.839   0.961
 9112TIP3    H151315   0.436   4.830   0.890
 9112TIP3    H251316   0.376   4.752   1.006
 9113TIP3   OH251317   1.069   5.044   0.285
 9113TIP3    H151318   1.033   5.129   0.317
 9113TIP3    H251319   0.995   4.982   0.305
 9114TIP3   OH251320   0.080   4.659   1.482
 9114TIP3    H151321   0.086   4.628   1.574
 9114TIP3    H251322   0.001   4.616   1.447
 9115TIP3   OH251323   0.771   4.634   1.705
 9115TIP3    H151324   0.737   4.602   1.620
 9115TIP3    H251325   0.862   4.600   1.701
 9116TIP3   OH251326   1.240   5.167   1.500
 9116TIP3    H151327   1.147   5.185   1.476
 9116TIP3    H251328   1.235   5.197   1.593
 9117TIP3   OH251329   1.808   4.383   0.338
 9117TIP3    H151330   1.745   4.356   0.267
 9117TIP3    H251331   1.811   4.478   0.314
 9118TIP3   OH251332   1.804   4.971   1.618
 9118TIP3    H151333   1.715   4.993   1.583
 9118TIP3    H251334   1.858   4.966   1.537
 9119TIP3   OH251335   1.642   5.265   0.382
 9119TIP3    H151336   1.596   5.184   0.408
 9119TIP3    H251337   1.663   5.250   0.288
 9120TIP3   OH251338   1.357   4.751   1.088
 9120TIP3    H151339   1.263   4.730   1.077
 9120TIP3    H251340   1.399   4.675   1.044
 9121TIP3   OH251341   0.608   5.182   0.699
 9121TIP3    H151342   0.657   5.263   0.679
 9121TIP3    H251343   0.520   5.205   0.666
 9122TIP3   OH251344   0.178   4.668   0.153
 9122TIP3    H151345   0.242   4.728   0.197
 9122TIP3    H251346   0.095   4.702   0.185
 9123TIP3   OH251347   0.748   4.949   0.651
 9123TIP3    H151348   0.716   5.041   0.659
 9123TIP3    H251349   0.677   4.899   0.695
 9124TIP3   OH251350   0.794   5.368   1.293
 9124TIP3    H151351   0.840   5.448   1.263
 9124TIP3    H251352   0.856   5.333   1.359
 9125TIP3   OH251353   0.616   5.447   0.604
 9125TIP3    H151354   0.520   5.462   0.617
 9125TIP3    H251355   0.653   5.532   0.636
 9126TIP3   OH251356   1.144   4.966   1.253
 9126TIP3    H151357   1.114   4.948   1.344
 9126TIP3    H251358   1.209   4.896   1.236
 9127TIP3   OH251359   1.373   5.071   0.163
 9127TIP3    H151360   1.410   5.028   0.242
 9127TIP3    H251361   1.280   5.054   0.178
 9128TIP3   OH251362   1.429   5.425   1.502
 9128TIP3    H151363   1.358   5.376   1.455
 9128TIP3    H251364   1.446   5.495   1.435
 9129TIP3   OH251365   1.826   5.512   0.188
 9129TIP3    H151366   1.897   5.575   0.169
 9129TIP3    H251367   1.754   5.573   0.215
 9130TIP3   OH251368   0.234   4.149   1.439
 9130TIP3    H151369   0.144   4.185   1.445
 9130TIP3    H251370   0.220   4.065   1.486
 9131TIP3   OH251371   1.457   4.938   0.391
 9131TIP3    H151372   1.433   4.858   0.442
 9131TIP3    H251373   1.553   4.939   0.401
 9132TIP3   OH251374   0.196   5.327   1.280
 9132TIP3    H151375   0.227   5.235   1.285
 9132TIP3    H251376   0.218   5.358   1.368
 9133TIP3   OH251377   0.667   5.137   0.258
 9133TIP3    H151378   0.700   5.084   0.332
 9133TIP3    H251379   0.679   5.229   0.289
 9134TIP3   OH251380   0.320   4.859   0.304
 9134TIP3    H151381   0.251   4.898   0.362
 9134TIP3    H251382   0.372   4.938   0.278
 9135TIP3   OH251383   1.107   4.128   1.339
 9135TIP3    H151384   1.179   4.134   1.403
 9135TIP3    H251385   1.069   4.041   1.360
 9136TIP3   OH251386   1.180   4.085   0.448
 9136TIP3    H151387   1.207   4.131   0.368
 9136TIP3    H251388   1.237   4.128   0.513
 9137TIP3   OH251389   0.947   5.299   0.324
 9137TIP3    H151390   0.868   5.355   0.340
 9137TIP3    H251391   1.004   5.354   0.269
 9138TIP3   OH251392   0.904   4.260   0.529
 9138TIP3    H151393   0.982   4.319   0.532
 9138TIP3    H251394   0.878   4.248   0.623
 9139TIP3   OH251395   0.960   4.363   1.448
 9139TIP3    H151396   0.967   4.419   1.528
 9139TIP3    H251397   1.026   4.293   1.457
 9140TIP3   OH251398   0.989   3.965   0.615
 9140TIP3    H151399   0.956   4.029   0.680
 9140TIP3    H251400   1.059   4.020   0.571
 9141TIP3   OH251401   0.688   5.406   0.333
 9141TIP3    H151402   0.704   5.488   0.280
 9141TIP3    H251403   0.661   5.442   0.420
 9142TIP3   OH251404   0.552   4.077   0.303
 9142TIP3    H151405   0.551   4.171   0.326
 9142TIP3    H251406   0.645   4.053   0.313
 9143TIP3   OH251407   1.577   4.149   1.532
 9143TIP3    H151408   1.484   4.181   1.519
 9143TIP3    H251409   1.607   4.147   1.440
 9144TIP3   OH251410   1.439   4.528   0.932
 9144TIP3    H151411   1.356   4.483   0.905
 9144TIP3    H251412   1.487   4.460   0.984
 9145TIP3   OH251413   0.381   5.121   0.191
 9145TIP3    H151414   0.448   5.182   0.226
 9145TIP3    H251415   0.432   5.074   0.123
 9146TIP3   OH251416   0.214   4.390   0.105
 9146TIP3    H151417   0.209   4.486   0.126
 9146TIP3    H251418   0.127   4.367   0.072
 9147TIP3   OH251419   1.547   5.451   1.094
 9147TIP3    H151420   1.535   5.525   1.031
 9147TIP3    H251421   1.641   5.464   1.119
 9148TIP3   OH251422   0.291   3.870   0.976
 9148TIP3    H151423   0.272   3.865   0.880
 9148TIP3    H251424   0.256   3.783   1.005
 9149TIP3   OH251425   0.190   5.256   0.594
 9149TIP3    H151426   0.107   5.303   0.591
 9149TIP3    H251427   0.239   5.304   0.526
 9150TIP3   OH251428   0.112   5.521   1.723
 9150TIP3    H151429   0.172   5.496   1.796
 9150TIP3    H251430   0.067   5.437   1.701
 9151TIP3   OH251431   0.581   5.415   1.883
 9151TIP3    H151432   0.656   5.364   1.917
 9151TIP3    H251433   0.576   5.387   1.790
 9152TIP3   OH251434   0.998   5.377   0.052
 9152TIP3    H151435   0.928   5.313   0.068
 9152TIP3    H251436   1.069   5.327   0.009
 9153TIP3   OH251437   1.228   5.254   1.759
 9153TIP3    H151438   1.196   5.166   1.787
 9153TIP3    H251439   1.305   5.266   1.818
 9154TIP3   OH251440   1.470   5.335   0.100
 9154TIP3    H151441   1.482   5.239   0.097
 9154TIP3    H251442   1.503   5.365   0.013
 9155TIP3   OH251443   0.101   4.905   1.826
 9155TIP3    H151444   0.119   4.814   1.794
 9155TIP3    H251445   0.032   4.930   1.765
 9156TIP3   OH251446   0.521   4.919   0.026
 9156TIP3    H151447   0.552   4.851   0.088
 9156TIP3    H251448   0.599   4.925  -0.032
 9157TIP3   OH251449   0.772   4.900   1.761
 9157TIP3    H151450   0.739   4.932   1.675
 9157TIP3    H251451   0.779   4.802   1.750
 9158TIP3   OH251452   1.342   4.885   1.501
 9158TIP3    H151453   1.421   4.943   1.496
 9158TIP3    H251454   1.273   4.953   1.504
 9159TIP3   OH251455   0.184   4.626   1.763
 9159TIP3    H151456   0.233   4.543   1.753
 9159TIP3    H251457   0.162   4.623   1.857
 9160TIP3   OH251458   0.657   4.740   0.267
 9160TIP3    H151459   0.608   4.685   0.329
 9160TIP3    H251460   0.689   4.671   0.203
 9161TIP3   OH251461   0.583   4.518   1.496
 9161TIP3    H151462   0.522   4.589   1.521
 9161TIP3    H251463   0.623   4.554   1.416
 9162TIP3   OH251464   0.766   4.563   0.094
 9162TIP3    H151465   0.746   4.547  -0.001
 9162TIP3    H251466   0.863   4.569   0.097
 9163TIP3   OH251467   1.091   4.777   1.834
 9163TIP3    H151468   1.186   4.774   1.814
 9163TIP3    H251469   1.074   4.696   1.884
 9164TIP3   OH251470   1.695   4.789  11.013
 9164TIP3    H151471   1.679   4.751  10.927
 9164TIP3    H251472   1.702   4.884  10.992
 9165TIP3   OH251473   0.628   4.256   1.601
 9165TIP3    H151474   0.634   4.185   1.535
 9165TIP3    H251475   0.617   4.337   1.547
 9166TIP3   OH251476   0.665   4.094   1.358
 9166TIP3    H151477   0.715   4.140   1.287
 9166TIP3    H251478   0.575   4.087   1.318
 9167TIP3   OH251479   0.819   4.645   1.383
 9167TIP3    H151480   0.893   4.627   1.325
 9167TIP3    H251481   0.781   4.727   1.347
 9168TIP3   OH251482   1.258   4.418   1.881
 9168TIP3    H151483   1.282   4.325   1.865
 9168TIP3    H251484   1.345   4.462   1.876
 9169TIP3   OH251485   1.392   4.698   1.695
 9169TIP3    H151486   1.367   4.769   1.633
 9169TIP3    H251487   1.488   4.694   1.676
 9170TIP3   OH251488   0.470   4.382   1.794
 9170TIP3    H151489   0.394   4.323   1.778
 9170TIP3    H251490   0.535   4.344   1.732
 9171TIP3   OH251491   0.744   3.838   1.395
 9171TIP3    H151492   0.725   3.934   1.387
 9171TIP3    H251493   0.669   3.800   1.345
 9172TIP3   OH251494   0.872   4.272   1.762
 9172TIP3    H151495   0.837   4.245   1.849
 9172TIP3    H251496   0.795   4.251   1.705
 9173TIP3   OH251497   1.143   4.186   1.670
 9173TIP3    H151498   1.046   4.191   1.680
 9173TIP3    H251499   1.168   4.121   1.738
 9174TIP3   OH251500   1.300   4.046   1.857
 9174TIP3    H151501   1.295   3.948   1.861
 9174TIP3    H251502   1.277   4.075   1.948
 9175TIP3   OH251503   0.286   4.174   1.772
 9175TIP3    H151504   0.306   4.101   1.711
 9175TIP3    H251505   0.271   4.128   1.857
 9176TIP3   OH251506   0.765   3.778   1.665
 9176TIP3    H151507   0.833   3.708   1.663
 9176TIP3    H251508   0.752   3.791   1.569
 9177TIP3   OH251509   0.801   3.938   1.879
 9177TIP3    H151510   0.783   3.887   1.796
 9177TIP3    H251511   0.741   4.015   1.869
 9178TIP3   OH251512   0.747   5.634   0.199
 9178TIP3    H151513   0.845   5.640   0.203
 9178TIP3    H251514   0.727   5.695   0.126
 9179TIP3   OH251515   0.111   5.085   0.143
 9179TIP3    H151516   0.208   5.101   0.160
 9179TIP3    H251517   0.116   5.025   0.068
 9180TIP3   OH251518  -0.004   5.636   0.628
 9180TIP3    H151519  -0.085   5.588   0.599
 9180TIP3    H251520   0.015   5.575   0.702
 9181TIP3   OH251521   0.084   5.442   0.819
 9181TIP3    H151522   0.036   5.358   0.836
 9181TIP3    H251523   0.095   5.478   0.909
 9182TIP3   OH251524   1.819   5.515   1.118
 9182TIP3    H151525   1.820   5.534   1.214
 9182TIP3    H251526   1.886   5.578   1.089
 9183TIP3   OH251527   1.776   5.476   1.410
 9183TIP3    H151528   1.726   5.400   1.376
 9183TIP3    H251529   1.822   5.434   1.484
 9184TIP3   OH251530   1.619   5.050   1.882
 9184TIP3    H151531   1.528   5.048   1.918
 9184TIP3    H251532   1.656   5.131   1.922
 9185TIP3   OH251533   1.751   4.885   0.427
 9185TIP3    H151534   1.839   4.921   0.443
 9185TIP3    H251535   1.749   4.811   0.492
 9186TIP3   OH251536   1.785   4.693   0.614
 9186TIP3    H151537   1.711   4.639   0.649
 9186TIP3    H251538   1.846   4.701   0.690
 9187TIP3   OH251539   1.759   4.965   1.096
 9187TIP3    H151540   1.844   4.918   1.077
 9187TIP3    H251541   1.787   5.056   1.114
 9188TIP3   OH251542   1.618   5.251   1.336
 9188TIP3    H151543   1.552   5.286   1.398
 9188TIP3    H251544   1.561   5.211   1.269
 9189TIP3   OH251545   1.816   4.675   0.247
 9189TIP3    H151546   1.755   4.709   0.178
 9189TIP3    H251547   1.804   4.743   0.316
 9190TIP3   OH251548   1.654   4.400   0.103
 9190TIP3    H151549   1.654   4.465   0.033
 9190TIP3    H251550   1.633   4.316   0.060
 9191TIP3   OH251551   1.569   4.538   0.670
 9191TIP3    H151552   1.554   4.443   0.665
 9191TIP3    H251553   1.536   4.559   0.760
 9192TIP3   OH251554   0.069   4.744   1.076
 9192TIP3    H151555   0.088   4.738   0.980
 9192TIP3    H251556   0.157   4.731   1.114
 9193TIP3   OH251557   1.654   4.735   1.640
 9193TIP3    H151558   1.716   4.659   1.652
 9193TIP3    H251559   1.715   4.812   1.640
 9194TIP3   OH251560   1.805   4.522   1.704
 9194TIP3    H151561   1.716   4.483   1.689
 9194TIP3    H251562   1.862   4.444   1.697
 9195TIP3   OH251563   1.556   4.128   0.128
 9195TIP3    H151564   1.642   4.096   0.094
 9195TIP3    H251565   1.500   4.102   0.054
 9196TIP3   OH251566   1.533   4.297   0.517
 9196TIP3    H151567   1.562   4.203   0.526
 9196TIP3    H251568   1.610   4.336   0.476
 9197TIP3   OH251569   1.599   4.351   1.061
 9197TIP3    H151570   1.695   4.374   1.059
 9197TIP3    H251571   1.581   4.365   1.155
 9198TIP3   OH251572   1.606   4.423   1.340
 9198TIP3    H151573   1.517   4.452   1.369
 9198TIP3    H251574   1.649   4.508   1.316
 9199TIP3   OH251575   0.053   4.231   1.651
 9199TIP3    H151576   0.132   4.248   1.706
 9199TIP3    H251577  -0.014   4.196   1.713
 9200TIP3   OH251578   1.834   3.830   1.872
 9200TIP3    H151579   1.869   3.764   1.810
 9200TIP3    H251580   1.843   3.911   1.817
 9201TIP3   OH251581   1.605   4.025   0.520
 9201TIP3    H151582   1.623   3.982   0.606
 9201TIP3    H251583   1.542   3.963   0.477
 9202TIP3   OH251584   0.151   4.106   0.982
 9202TIP3    H151585   0.199   4.024   1.003
 9202TIP3    H251586   0.206   4.175   1.021
 9203TIP3   OH251587   0.001   4.414   1.089
 9203TIP3    H151588   0.047   4.391   1.006
 9203TIP3    H251589   0.035   4.502   1.106
 9204TIP3   OH251590   1.786   4.040   1.707
 9204TIP3    H151591   1.692   4.067   1.701
 9204TIP3    H251592   1.788   3.984   1.628
 9205TIP3   OH251593   1.797   4.024   0.178
 9205TIP3    H151594   1.832   3.959   0.117
 9205TIP3    H251595   1.861   4.095   0.183
 9206TIP3   OH251596   0.037   4.014   0.440
 9206TIP3    H151597  -0.057   4.037   0.453
 9206TIP3    H251598   0.073   4.093   0.397
 9207TIP3   OH251599   1.491   5.524   0.683
 9207TIP3    H151600   1.557   5.499   0.616
 9207TIP3    H251601   1.540   5.580   0.746
 9208TIP3   OH251602   0.028   3.910   1.330
 9208TIP3    H151603  -0.045   3.881   1.386
 9208TIP3    H251604  -0.026   3.972   1.275
 9209TIP3   OH251605   0.235   5.224   1.734
 9209TIP3    H151606   0.151   5.241   1.690
 9209TIP3    H251607   0.208   5.211   1.826
 9210TIP3   OH251608   0.522   5.318   1.360
 9210TIP3    H151609   0.490   5.406   1.333
 9210TIP3    H251610   0.616   5.326   1.331
 9211TIP3   OH251611   0.957   5.460   1.651
 9211TIP3    H151612   0.970   5.425   1.742
 9211TIP3    H251613   1.047   5.491   1.627
 9212TIP3   OH251614   1.185   5.587   1.582
 9212TIP3    H151615   1.259   5.529   1.559
 9212TIP3    H251616   1.222   5.631   1.662
 9213TIP3   OH251617   1.687   3.848   1.494
 9213TIP3    H151618   1.605   3.879   1.452
 9213TIP3    H251619   1.704   3.766   1.443
 9214TIP3   OH251620   0.265   5.642   1.360
 9214TIP3    H151621   0.191   5.692   1.322
 9214TIP3    H251622   0.233   5.627   1.451
 9215TIP3   OH251623   0.516   5.600   1.268
 9215TIP3    H151624   0.427   5.614   1.307
 9215TIP3    H251625   0.510   5.657   1.190
 9216TIP3   OH251626   0.985   5.590   1.184
 9216TIP3    H151627   0.938   5.646   1.120
 9216TIP3    H251628   0.997   5.653   1.258
 9217TIP3   OH251629   1.212   5.470   1.289
 9217TIP3    H151630   1.128   5.499   1.250
 9217TIP3    H251631   1.262   5.552   1.279
 9218TIP3   OH251632   1.470   5.628   1.309
 9218TIP3    H151633   1.467   5.724   1.287
 9218TIP3    H251634   1.491   5.592   1.221
 9219TIP3   OH251635   0.217   5.510   1.051
 9219TIP3    H151636   0.202   5.465   1.137
 9219TIP3    H251637   0.296   5.467   1.014
 9220TIP3   OH251638   0.420   5.376   0.920
 9220TIP3    H151639   0.405   5.283   0.944
 9220TIP3    H251640   0.506   5.394   0.965
 9221TIP3   OH251641   0.681   5.425   1.009
 9221TIP3    H151642   0.696   5.333   0.982
 9221TIP3    H251643   0.687   5.420   1.105
 9222TIP3   OH251644   1.025   3.991   0.919
 9222TIP3    H151645   0.959   3.927   0.950
 9222TIP3    H251646   1.081   3.936   0.863
 9223TIP3   OH251647   1.540   3.795   0.926
 9223TIP3    H151648   1.601   3.855   0.876
 9223TIP3    H251649   1.451   3.831   0.904
 9224TIP3   OH251650   1.707   3.923   0.753
 9224TIP3    H151651   1.774   3.862   0.714
 9224TIP3    H251652   1.757   4.005   0.767
 9225TIP3   OH251653   0.268   3.852   0.706
 9225TIP3    H151654   0.187   3.834   0.653
 9225TIP3    H251655   0.312   3.766   0.699
 9226TIP3   OH251656   0.144   3.826   0.283
 9226TIP3    H151657   0.187   3.893   0.226
 9226TIP3    H251658   0.089   3.884   0.339
 9227TIP3   OH251659   0.709   3.846   0.685
 9227TIP3    H151660   0.799   3.881   0.676
 9227TIP3    H251661   0.706   3.824   0.778
 9228TIP3   OH251662   1.283   3.848   0.847
 9228TIP3    H151663   1.276   3.860   0.751
 9228TIP3    H251664   1.243   3.758   0.860
 9229TIP3   OH251665   1.408   3.850   0.413
 9229TIP3    H151666   1.334   3.910   0.400
 9229TIP3    H251667   1.364   3.764   0.434
 9230TIP3   OH251668   0.132   5.430   0.379
 9230TIP3    H151669   0.067   5.428   0.308
 9230TIP3    H251670   0.132   5.525   0.396
 9231TIP3   OH251671   0.323   4.019   0.132
 9231TIP3    H151672   0.378   3.962   0.079
 9231TIP3    H251673   0.392   4.058   0.189
 9232TIP3   OH251674   0.830   4.047   0.365
 9232TIP3    H151675   0.851   3.990   0.441
 9232TIP3    H251676   0.834   4.133   0.414
 9233TIP3   OH251677   1.016   5.568   0.217
 9233TIP3    H151678   1.111   5.577   0.200
 9233TIP3    H251679   0.998   5.508   0.141
 9234TIP3   OH251680   1.688   5.506   0.486
 9234TIP3    H151681   1.668   5.428   0.429
 9234TIP3    H251682   1.680   5.579   0.422
 9235TIP3   OH251683   0.251   3.909   1.656
 9235TIP3    H151684   0.211   3.826   1.690
 9235TIP3    H251685   0.343   3.902   1.691
 9236TIP3   OH251686   0.455   3.846   1.817
 9236TIP3    H151687   0.543   3.810   1.794
 9236TIP3    H251688   0.413   3.767   1.855
 9237TIP3   OH251689   0.311   5.512   0.074
 9237TIP3    H151690   0.287   5.551   0.160
 9237TIP3    H251691   0.394   5.468   0.092
 9238TIP3   OH251692   1.292   3.776   1.833
 9238TIP3    H151693   1.301   3.728   1.917
 9238TIP3    H251694   1.383   3.771   1.797
 9239TIP3   OH251695   1.613   5.380   1.693
 9239TIP3    H151696   1.533   5.367   1.638
 9239TIP3    H251697   1.601   5.475   1.715
 9240TIP3   OH251698   3.059   4.768   0.689
 9240TIP3    H151699   3.056   4.866   0.688
 9240TIP3    H251700   2.984   4.745   0.631
 9241TIP3   OH251701   2.943   4.692   1.041
 9241TIP3    H151702   2.942   4.628   1.113
 9241TIP3    H251703   2.906   4.640   0.967
 9242TIP3   OH251704   2.177   4.661   1.197
 9242TIP3    H151705   2.186   4.592   1.265
 9242TIP3    H251706   2.253   4.718   1.219
 9243TIP3   OH251707   3.311   4.988   0.871
 9243TIP3    H151708   3.270   4.916   0.920
 9243TIP3    H251709   3.314   5.058   0.938
 9244TIP3   OH251710   2.267   5.106   1.044
 9244TIP3    H151711   2.241   5.016   1.015
 9244TIP3    H251712   2.363   5.090   1.051
 9245TIP3   OH251713   1.937   4.456   0.592
 9245TIP3    H151714   1.896   4.546   0.592
 9245TIP3    H251715   1.872   4.409   0.538
 9246TIP3   OH251716   2.005   4.684   0.811
 9246TIP3    H151717   2.033   4.604   0.857
 9246TIP3    H251718   2.075   4.696   0.745
 9247TIP3   OH251719   3.024   5.504   0.895
 9247TIP3    H151720   3.088   5.436   0.865
 9247TIP3    H251721   3.001   5.469   0.981
 9248TIP3   OH251722   2.780   4.932   1.091
 9248TIP3    H151723   2.814   4.870   1.023
 9248TIP3    H251724   2.862   4.949   1.141
 9249TIP3   OH251725   3.639   4.100   1.160
 9249TIP3    H151726   3.658   4.157   1.237
 9249TIP3    H251727   3.697   4.141   1.095
 9250TIP3   OH251728   3.097   4.380   1.121
 9250TIP3    H151729   3.114   4.284   1.122
 9250TIP3    H251730   3.087   4.393   1.025
 9251TIP3   OH251731   2.405   4.189   0.841
 9251TIP3    H151732   2.424   4.272   0.793
 9251TIP3    H251733   2.373   4.129   0.772
 9252TIP3   OH251734   3.182   4.196   0.678
 9252TIP3    H151735   3.247   4.165   0.746
 9252TIP3    H251736   3.239   4.253   0.625
 9253TIP3   OH251737   2.068   4.431   0.919
 9253TIP3    H151738   2.136   4.379   0.964
 9253TIP3    H251739   2.084   4.403   0.827
 9254TIP3   OH251740   2.585   4.585   0.849
 9254TIP3    H151741   2.654   4.528   0.886
 9254TIP3    H251742   2.535   4.520   0.795
 9255TIP3   OH251743   3.684   4.238   1.389
 9255TIP3    H151744   3.625   4.316   1.377
 9255TIP3    H251745   3.687   4.232   1.486
 9256TIP3   OH251746   2.300   4.079   1.245
 9256TIP3    H151747   2.271   4.136   1.171
 9256TIP3    H251748   2.233   4.101   1.314
 9257TIP3   OH251749   3.027   5.027   0.601
 9257TIP3    H151750   3.000   4.998   0.513
 9257TIP3    H251751   2.998   5.121   0.604
 9258TIP3   OH251752   2.550   4.843   1.269
 9258TIP3    H151753   2.480   4.908   1.292
 9258TIP3    H251754   2.621   4.903   1.240
 9259TIP3   OH251755   3.364   4.132   0.878
 9259TIP3    H151756   3.341   4.055   0.931
 9259TIP3    H251757   3.431   4.175   0.934
 9260TIP3   OH251758   2.256   4.266   1.048
 9260TIP3    H151759   2.320   4.333   1.082
 9260TIP3    H251760   2.310   4.224   0.976
 9261TIP3   OH251761   2.396   5.044   1.351
 9261TIP3    H151762   2.391   5.136   1.318
 9261TIP3    H251763   2.308   5.036   1.396
 9262TIP3   OH251764   1.999   5.003   0.431
 9262TIP3    H151765   1.980   5.037   0.342
 9262TIP3    H251766   2.012   5.086   0.481
 9263TIP3   OH251767   3.364   5.172   1.107
 9263TIP3    H151768   3.267   5.183   1.119
 9263TIP3    H251769   3.391   5.263   1.086
 9264TIP3   OH251770   3.396   3.999   1.245
 9264TIP3    H151771   3.324   4.063   1.235
 9264TIP3    H251772   3.468   4.041   1.194
 9265TIP3   OH251773   2.692   3.813   0.992
 9265TIP3    H151774   2.677   3.716   0.984
 9265TIP3    H251775   2.604   3.843   1.023
 9266TIP3   OH251776   3.191   5.349   0.769
 9266TIP3    H151777   3.232   5.278   0.715
 9266TIP3    H251778   3.236   5.428   0.729
 9267TIP3   OH251779   3.312   5.142   0.619
 9267TIP3    H151780   3.283   5.074   0.556
 9267TIP3    H251781   3.315   5.091   0.702
 9268TIP3   OH251782   3.472   5.003   1.467
 9268TIP3    H151783   3.488   4.937   1.396
 9268TIP3    H251784   3.494   5.086   1.421
 9269TIP3   OH251785   2.922   4.688   0.441
 9269TIP3    H151786   2.855   4.750   0.407
 9269TIP3    H251787   2.995   4.701   0.377
 9270TIP3   OH251788   2.931   4.546   0.146
 9270TIP3    H151789   3.003   4.549   0.212
 9270TIP3    H251790   2.960   4.474   0.091
 9271TIP3   OH251791   3.662   4.634   1.271
 9271TIP3    H151792   3.597   4.707   1.274
 9271TIP3    H251793   3.712   4.658   1.191
 9272TIP3   OH251794   3.270   4.713   0.537
 9272TIP3    H151795   3.194   4.736   0.596
 9272TIP3    H251796   3.316   4.645   0.589
 9273TIP3   OH251797   3.261   4.529   1.448
 9273TIP3    H151798   3.261   4.611   1.500
 9273TIP3    H251799   3.198   4.557   1.379
 9274TIP3   OH251800   2.427   4.777   0.727
 9274TIP3    H151801   2.397   4.738   0.641
 9274TIP3    H251802   2.490   4.709   0.760
 9275TIP3   OH251803   2.560   5.115   0.995
 9275TIP3    H151804   2.561   5.064   0.913
 9275TIP3    H251805   2.639   5.081   1.040
 9276TIP3   OH251806   2.463   4.653   1.096
 9276TIP3    H151807   2.515   4.662   1.014
 9276TIP3    H251808   2.503   4.721   1.155
 9277TIP3   OH251809   3.104   5.211   1.165
 9277TIP3    H151810   3.076   5.274   1.231
 9277TIP3    H251811   3.079   5.125   1.206
 9278TIP3   OH251812   2.557   5.096   1.563
 9278TIP3    H151813   2.514   5.169   1.612
 9278TIP3    H251814   2.490   5.076   1.493
 9279TIP3   OH251815   3.155   4.632   0.302
 9279TIP3    H151816   3.210   4.651   0.382
 9279TIP3    H251817   3.200   4.683   0.231
 9280TIP3   OH251818   2.252   4.712   1.477
 9280TIP3    H151819   2.258   4.778   1.548
 9280TIP3    H251820   2.157   4.720   1.458
 9281TIP3   OH251821   2.929   5.306   0.645
 9281TIP3    H151822   2.969   5.335   0.728
 9281TIP3    H251823   2.871   5.380   0.623
 9282TIP3   OH251824   2.382   5.299   1.637
 9282TIP3    H151825   2.375   5.290   1.541
 9282TIP3    H251826   2.290   5.285   1.665
 9283TIP3   OH251827   3.531   3.807   0.290
 9283TIP3    H151828   3.435   3.814   0.313
 9283TIP3    H251829   3.546   3.891   0.245
 9284TIP3   OH251830   2.326   4.679   0.487
 9284TIP3    H151831   2.297   4.758   0.438
 9284TIP3    H251832   2.260   4.615   0.463
 9285TIP3   OH251833   3.643   5.239   0.128
 9285TIP3    H151834   3.655   5.334   0.146
 9285TIP3    H251835   3.734   5.207   0.125
 9286TIP3   OH251836   1.933   4.924   1.379
 9286TIP3    H151837   1.891   4.913   1.292
 9286TIP3    H251838   1.944   4.830   1.401
 9287TIP3   OH251839   1.914   5.200   1.056
 9287TIP3    H151840   2.011   5.186   1.057
 9287TIP3    H251841   1.910   5.280   1.111
 9288TIP3   OH251842   3.735   5.267   1.626
 9288TIP3    H151843   3.723   5.172   1.622
 9288TIP3    H251844   3.647   5.293   1.664
 9289TIP3   OH251845   2.830   5.221   1.511
 9289TIP3    H151846   2.836   5.305   1.562
 9289TIP3    H251847   2.743   5.185   1.536
 9290TIP3   OH251848   2.873   5.596   0.492
 9290TIP3    H151849   2.865   5.591   0.396
 9290TIP3    H251850   2.878   5.692   0.508
 9291TIP3   OH251851   2.240   5.485   0.672
 9291TIP3    H151852   2.254   5.443   0.760
 9291TIP3    H251853   2.155   5.444   0.648
 9292TIP3   OH251854   3.175   5.512   0.196
 9292TIP3    H151855   3.230   5.443   0.152
 9292TIP3    H251856   3.186   5.486   0.289
 9293TIP3   OH251857   3.148   5.510   0.468
 9293TIP3    H151858   3.053   5.518   0.486
 9293TIP3    H251859   3.173   5.436   0.525
 9294TIP3   OH251860   3.450   4.414   1.672
 9294TIP3    H151861   3.401   4.458   1.601
 9294TIP3    H251862   3.447   4.322   1.642
 9295TIP3   OH251863   2.164   5.055   1.472
 9295TIP3    H151864   2.185   5.019   1.560
 9295TIP3    H251865   2.076   5.015   1.451
 9296TIP3   OH251866   2.432   3.904   1.066
 9296TIP3    H151867   2.341   3.889   1.031
 9296TIP3    H251868   2.417   3.986   1.117
 9297TIP3   OH251869   2.897   3.868   1.403
 9297TIP3    H151870   2.936   3.826   1.482
 9297TIP3    H251871   2.799   3.858   1.418
 9298TIP3   OH251872   3.224   4.254   1.494
 9298TIP3    H151873   3.168   4.232   1.571
 9298TIP3    H251874   3.206   4.347   1.471
 9299TIP3   OH251875   3.310   4.718   0.089
 9299TIP3    H151876   3.291   4.732  -0.005
 9299TIP3    H251877   3.384   4.780   0.095
 9300TIP3   OH251878   2.862   4.128   0.138
 9300TIP3    H151879   2.825   4.121   0.228
 9300TIP3    H251880   2.831   4.042   0.105
 9301TIP3   OH251881   2.442   4.400   1.194
 9301TIP3    H151882   2.368   4.400   1.258
 9301TIP3    H251883   2.438   4.491   1.156
 9302TIP3   OH251884   2.443   4.408   0.681
 9302TIP3    H151885   2.347   4.396   0.667
 9302TIP3    H251886   2.480   4.384   0.594
 9303TIP3   OH251887   2.990   4.461   0.554
 9303TIP3    H151888   2.951   4.545   0.519
 9303TIP3    H251889   3.059   4.445   0.488
 9304TIP3   OH251890   2.895   4.483   1.699
 9304TIP3    H151891   2.843   4.405   1.730
 9304TIP3    H251892   2.979   4.472   1.747
 9305TIP3   OH251893   3.094   4.412   0.841
 9305TIP3    H151894   3.065   4.468   0.768
 9305TIP3    H251895   3.103   4.327   0.795
 9306TIP3   OH251896   2.204   4.424   1.360
 9306TIP3    H151897   2.214   4.465   1.447
 9306TIP3    H251898   2.160   4.340   1.382
 9307TIP3   OH251899   2.544   4.074   0.062
 9307TIP3    H151900   2.505   4.097   0.147
 9307TIP3    H251901   2.491   4.139   0.014
 9308TIP3   OH251902   1.876   4.143   0.758
 9308TIP3    H151903   1.937   4.128   0.834
 9308TIP3    H251904   1.909   4.088   0.685
 9309TIP3   OH251905   2.005   4.211   0.308
 9309TIP3    H151906   2.046   4.267   0.238
 9309TIP3    H251907   1.926   4.269   0.325
 9310TIP3   OH251908   3.012   4.569   1.295
 9310TIP3    H151909   3.051   4.500   1.238
 9310TIP3    H251910   2.965   4.516   1.362
 9311TIP3   OH251911   2.695   4.168   0.780
 9311TIP3    H151912   2.603   4.167   0.810
 9311TIP3    H251913   2.743   4.148   0.862
 9312TIP3   OH251914   2.181   4.344   0.685
 9312TIP3    H151915   2.096   4.362   0.638
 9312TIP3    H251916   2.228   4.266   0.652
 9313TIP3   OH251917   2.535   4.329   0.435
 9313TIP3    H151918   2.632   4.336   0.447
 9313TIP3    H251919   2.515   4.394   0.365
 9314TIP3   OH251920   3.134   4.091   1.103
 9314TIP3    H151921   3.066   4.095   1.174
 9314TIP3    H251922   3.083   4.064   1.025
 9315TIP3   OH251923   2.402   4.452   0.195
 9315TIP3    H151924   2.357   4.405   0.123
 9315TIP3    H251925   2.487   4.462   0.149
 9316TIP3   OH251926   3.453   5.655   1.737
 9316TIP3    H151927   3.480   5.692   1.651
 9316TIP3    H251928   3.526   5.686   1.792
 9317TIP3   OH251929   2.221   4.902   1.694
 9317TIP3    H151930   2.293   4.926   1.754
 9317TIP3    H251931   2.144   4.908   1.755
 9318TIP3   OH251932   2.821   4.443   0.969
 9318TIP3    H151933   2.882   4.390   0.916
 9318TIP3    H251934   2.807   4.388   1.047
 9319TIP3   OH251935   2.312   4.059   0.604
 9319TIP3    H151936   2.296   3.962   0.615
 9319TIP3    H251937   2.400   4.051   0.561
 9320TIP3   OH251938   2.685   4.275   1.212
 9320TIP3    H151939   2.603   4.327   1.219
 9320TIP3    H251940   2.741   4.311   1.282
 9321TIP3   OH251941   2.744   4.895   0.382
 9321TIP3    H151942   2.664   4.850   0.347
 9321TIP3    H251943   2.720   4.910   0.475
 9322TIP3   OH251944   3.464   4.819   1.261
 9322TIP3    H151945   3.519   4.867   1.197
 9322TIP3    H251946   3.378   4.822   1.215
 9323TIP3   OH251947   3.131   4.187   0.181
 9323TIP3    H151948   3.034   4.189   0.186
 9323TIP3    H251949   3.161   4.262   0.238
 9324TIP3   OH251950   2.894   4.926   1.505
 9324TIP3    H151951   2.858   4.882   1.583
 9324TIP3    H251952   2.867   5.018   1.517
 9325TIP3   OH251953   3.199   4.370   0.363
 9325TIP3    H151954   3.288   4.356   0.401
 9325TIP3    H251955   3.209   4.454   0.314
 9326TIP3   OH251956   2.255   4.838   0.960
 9326TIP3    H151957   2.323   4.830   0.891
 9326TIP3    H251958   2.261   4.753   1.007
 9327TIP3   OH251959   2.954   5.044   0.285
 9327TIP3    H151960   2.918   5.129   0.318
 9327TIP3    H251961   2.880   4.982   0.305
 9328TIP3   OH251962   1.954   4.677   1.486
 9328TIP3    H151963   1.970   4.633   1.572
 9328TIP3    H251964   1.892   4.617   1.442
 9329TIP3   OH251965   2.656   4.633   1.703
 9329TIP3    H151966   2.623   4.601   1.618
 9329TIP3    H251967   2.747   4.600   1.703
 9330TIP3   OH251968   3.125   5.167   1.500
 9330TIP3    H151969   3.032   5.185   1.477
 9330TIP3    H251970   3.121   5.197   1.594
 9331TIP3   OH251971   3.694   4.386   0.333
 9331TIP3    H151972   3.622   4.359   0.275
 9331TIP3    H251973   3.696   4.483   0.316
 9332TIP3   OH251974   3.690   4.971   1.618
 9332TIP3    H151975   3.600   4.993   1.582
 9332TIP3    H251976   3.744   4.966   1.537
 9333TIP3   OH251977   3.525   5.266   0.379
 9333TIP3    H151978   3.483   5.184   0.410
 9333TIP3    H251979   3.548   5.248   0.286
 9334TIP3   OH251980   3.241   4.749   1.089
 9334TIP3    H151981   3.147   4.729   1.077
 9334TIP3    H251982   3.284   4.674   1.044
 9335TIP3   OH251983   2.492   5.183   0.701
 9335TIP3    H151984   2.542   5.263   0.679
 9335TIP3    H251985   2.404   5.206   0.666
 9336TIP3   OH251986   2.067   4.669   0.148
 9336TIP3    H151987   2.127   4.727   0.199
 9336TIP3    H251988   1.980   4.697   0.183
 9337TIP3   OH251989   2.633   4.949   0.651
 9337TIP3    H151990   2.601   5.041   0.659
 9337TIP3    H251991   2.563   4.899   0.696
 9338TIP3   OH251992   2.678   5.368   1.293
 9338TIP3    H151993   2.725   5.447   1.263
 9338TIP3    H251994   2.740   5.333   1.359
 9339TIP3   OH251995   2.501   5.447   0.605
 9339TIP3    H151996   2.405   5.462   0.617
 9339TIP3    H251997   2.538   5.532   0.636
 9340TIP3   OH251998   3.029   4.966   1.253
 9340TIP3    H151999   2.999   4.948   1.344
 9340TIP3    H252000   3.095   4.896   1.236
 9341TIP3   OH252001   3.259   5.071   0.163
 9341TIP3    H152002   3.296   5.028   0.242
 9341TIP3    H252003   3.165   5.054   0.178
 9342TIP3   OH252004   3.314   5.425   1.502
 9342TIP3    H152005   3.244   5.376   1.455
 9342TIP3    H252006   3.331   5.495   1.435
 9343TIP3   OH252007   3.712   5.512   0.188
 9343TIP3    H152008   3.783   5.575   0.169
 9343TIP3    H252009   3.640   5.573   0.215
 9344TIP3   OH252010   2.119   4.151   1.441
 9344TIP3    H152011   2.029   4.186   1.440
 9344TIP3    H252012   2.108   4.066   1.488
 9345TIP3   OH252013   3.343   4.938   0.392
 9345TIP3    H152014   3.319   4.857   0.441
 9345TIP3    H252015   3.439   4.941   0.405
 9346TIP3   OH252016   2.079   5.326   1.282
 9346TIP3    H152017   2.115   5.236   1.286
 9346TIP3    H252018   2.105   5.359   1.369
 9347TIP3   OH252019   2.551   5.137   0.259
 9347TIP3    H152020   2.587   5.084   0.332
 9347TIP3    H252021   2.565   5.229   0.290
 9348TIP3   OH252022   2.206   4.860   0.303
 9348TIP3    H152023   2.137   4.900   0.360
 9348TIP3    H252024   2.261   4.936   0.280
 9349TIP3   OH252025   2.993   4.128   1.339
 9349TIP3    H152026   3.065   4.134   1.403
 9349TIP3    H252027   2.954   4.041   1.360
 9350TIP3   OH252028   3.066   4.085   0.448
 9350TIP3    H152029   3.092   4.131   0.368
 9350TIP3    H252030   3.123   4.128   0.514
 9351TIP3   OH252031   2.832   5.299   0.324
 9351TIP3    H152032   2.754   5.355   0.340
 9351TIP3    H252033   2.890   5.354   0.269
 9352TIP3   OH252034   2.789   4.260   0.529
 9352TIP3    H152035   2.867   4.319   0.532
 9352TIP3    H252036   2.763   4.248   0.623
 9353TIP3   OH252037   2.846   4.363   1.448
 9353TIP3    H152038   2.853   4.418   1.529
 9353TIP3    H252039   2.912   4.293   1.457
 9354TIP3   OH252040   2.874   3.965   0.615
 9354TIP3    H152041   2.842   4.029   0.680
 9354TIP3    H252042   2.944   4.020   0.571
 9355TIP3   OH252043   2.573   5.407   0.333
 9355TIP3    H152044   2.589   5.488   0.280
 9355TIP3    H252045   2.547   5.442   0.420
 9356TIP3   OH252046   2.435   4.077   0.307
 9356TIP3    H152047   2.439   4.172   0.325
 9356TIP3    H252048   2.529   4.051   0.312
 9357TIP3   OH252049   3.462   4.149   1.532
 9357TIP3    H152050   3.370   4.182   1.519
 9357TIP3    H252051   3.493   4.147   1.440
 9358TIP3   OH252052   3.325   4.528   0.931
 9358TIP3    H152053   3.242   4.483   0.905
 9358TIP3    H252054   3.373   4.460   0.984
 9359TIP3   OH252055   2.267   5.119   0.193
 9359TIP3    H152056   2.333   5.182   0.226
 9359TIP3    H252057   2.316   5.075   0.122
 9360TIP3   OH252058   2.096   4.387   0.114
 9360TIP3    H152059   2.100   4.485   0.124
 9360TIP3    H252060   2.011   4.373   0.073
 9361TIP3   OH252061   3.431   5.455   1.099
 9361TIP3    H152062   3.423   5.523   1.029
 9361TIP3    H252063   3.527   5.460   1.117
 9362TIP3   OH252064   2.179   3.867   0.981
 9362TIP3    H152065   2.161   3.866   0.885
 9362TIP3    H252066   2.140   3.780   1.007
 9363TIP3   OH252067   2.072   5.261   0.598
 9363TIP3    H152068   1.988   5.306   0.586
 9363TIP3    H252069   2.123   5.301   0.525
 9364TIP3   OH252070   1.995   5.524   1.723
 9364TIP3    H152071   2.056   5.505   1.797
 9364TIP3    H252072   1.956   5.436   1.705
 9365TIP3   OH252073   2.465   5.416   1.884
 9365TIP3    H152074   2.540   5.366   1.917
 9365TIP3    H252075   2.461   5.387   1.790
 9366TIP3   OH252076   2.884   5.377   0.052
 9366TIP3    H152077   2.814   5.313   0.068
 9366TIP3    H252078   2.954   5.327   0.009
 9367TIP3   OH252079   3.113   5.254   1.760
 9367TIP3    H152080   3.082   5.166   1.787
 9367TIP3    H252081   3.191   5.266   1.818
 9368TIP3   OH252082   3.356   5.335   0.099
 9368TIP3    H152083   3.368   5.239   0.097
 9368TIP3    H252084   3.389   5.365   0.013
 9369TIP3   OH252085   1.985   4.901   1.823
 9369TIP3    H152086   2.002   4.809   1.794
 9369TIP3    H252087   1.912   4.926   1.765
 9370TIP3   OH252088   2.407   4.918   0.026
 9370TIP3    H152089   2.438   4.851   0.089
 9370TIP3    H252090   2.485   4.925  -0.032
 9371TIP3   OH252091   2.658   4.900   1.761
 9371TIP3    H152092   2.625   4.932   1.675
 9371TIP3    H252093   2.664   4.802   1.750
 9372TIP3   OH252094   3.227   4.885   1.501
 9372TIP3    H152095   3.307   4.943   1.496
 9372TIP3    H252096   3.158   4.953   1.504
 9373TIP3   OH252097   2.079   4.624   1.761
 9373TIP3    H152098   2.121   4.537   1.752
 9373TIP3    H252099   2.056   4.625   1.856
 9374TIP3   OH252100   2.543   4.740   0.266
 9374TIP3    H152101   2.494   4.685   0.329
 9374TIP3    H252102   2.575   4.671   0.203
 9375TIP3   OH252103   2.468   4.517   1.496
 9375TIP3    H152104   2.410   4.590   1.522
 9375TIP3    H252105   2.509   4.555   1.416
 9376TIP3   OH252106   2.652   4.563   0.094
 9376TIP3    H152107   2.630   4.548  -0.000
 9376TIP3    H252108   2.749   4.569   0.097
 9377TIP3   OH252109   2.977   4.775   1.831
 9377TIP3    H152110   3.072   4.773   1.816
 9377TIP3    H252111   2.959   4.698   1.887
 9378TIP3   OH252112   3.582   4.788  11.013
 9378TIP3    H152113   3.563   4.754  10.926
 9378TIP3    H252114   3.587   4.884  10.994
 9379TIP3   OH252115   2.510   4.255   1.601
 9379TIP3    H152116   2.521   4.185   1.535
 9379TIP3    H252117   2.505   4.337   1.547
 9380TIP3   OH252118   2.550   4.094   1.357
 9380TIP3    H152119   2.601   4.140   1.287
 9380TIP3    H252120   2.461   4.086   1.318
 9381TIP3   OH252121   2.703   4.644   1.382
 9381TIP3    H152122   2.779   4.627   1.325
 9381TIP3    H252123   2.666   4.727   1.347
 9382TIP3   OH252124   3.143   4.417   1.878
 9382TIP3    H152125   3.167   4.324   1.868
 9382TIP3    H252126   3.229   4.462   1.881
 9383TIP3   OH252127   3.278   4.698   1.695
 9383TIP3    H152128   3.252   4.769   1.633
 9383TIP3    H252129   3.373   4.694   1.676
 9384TIP3   OH252130   2.356   4.381   1.794
 9384TIP3    H152131   2.279   4.323   1.778
 9384TIP3    H252132   2.421   4.344   1.731
 9385TIP3   OH252133   2.629   3.837   1.395
 9385TIP3    H152134   2.610   3.934   1.386
 9385TIP3    H252135   2.554   3.800   1.345
 9386TIP3   OH252136   2.756   4.270   1.760
 9386TIP3    H152137   2.723   4.247   1.849
 9386TIP3    H252138   2.678   4.250   1.705
 9387TIP3   OH252139   3.028   4.185   1.670
 9387TIP3    H152140   2.932   4.191   1.680
 9387TIP3    H252141   3.054   4.121   1.739
 9388TIP3   OH252142   3.185   4.047   1.857
 9388TIP3    H152143   3.182   3.949   1.861
 9388TIP3    H252144   3.162   4.076   1.948
 9389TIP3   OH252145   2.163   4.175   1.770
 9389TIP3    H152146   2.187   4.101   1.712
 9389TIP3    H252147   2.153   4.131   1.857
 9390TIP3   OH252148   2.650   3.778   1.666
 9390TIP3    H152149   2.718   3.707   1.665
 9390TIP3    H252150   2.638   3.790   1.570
 9391TIP3   OH252151   2.686   3.938   1.879
 9391TIP3    H152152   2.669   3.887   1.796
 9391TIP3    H252153   2.627   4.015   1.869
 9392TIP3   OH252154   2.633   5.634   0.199
 9392TIP3    H152155   2.730   5.639   0.203
 9392TIP3    H252156   2.612   5.696   0.128
 9393TIP3   OH252157   1.996   5.085   0.144
 9393TIP3    H152158   2.092   5.098   0.162
 9393TIP3    H252159   1.998   5.028   0.067
 9394TIP3   OH252160   1.866   5.625   0.639
 9394TIP3    H152161   1.794   5.577   0.592
 9394TIP3    H252162   1.895   5.560   0.705
 9395TIP3   OH252163   1.945   5.441   0.828
 9395TIP3    H152164   1.920   5.351   0.849
 9395TIP3    H252165   1.977   5.475   0.914
 9396TIP3   OH252166   3.703   5.519   1.119
 9396TIP3    H152167   3.706   5.534   1.215
 9396TIP3    H252168   3.773   5.577   1.089
 9397TIP3   OH252169   3.660   5.478   1.414
 9397TIP3    H152170   3.613   5.401   1.375
 9397TIP3    H252171   3.707   5.433   1.486
 9398TIP3   OH252172   3.504   5.050   1.882
 9398TIP3    H152173   3.414   5.048   1.918
 9398TIP3    H252174   3.541   5.131   1.922
 9399TIP3   OH252175   3.639   4.882   0.423
 9399TIP3    H152176   3.724   4.923   0.445
 9399TIP3    H252177   3.634   4.812   0.492
 9400TIP3   OH252178   3.672   4.692   0.614
 9400TIP3    H152179   3.596   4.641   0.651
 9400TIP3    H252180   3.731   4.703   0.691
 9401TIP3   OH252181   3.647   4.960   1.112
 9401TIP3    H152182   3.728   4.922   1.073
 9401TIP3    H252183   3.662   5.055   1.094
 9402TIP3   OH252184   3.504   5.251   1.338
 9402TIP3    H152185   3.435   5.286   1.397
 9402TIP3    H252186   3.449   5.211   1.267
 9403TIP3   OH252187   3.699   4.672   0.248
 9403TIP3    H152188   3.641   4.711   0.179
 9403TIP3    H252189   3.691   4.742   0.317
 9404TIP3   OH252190   3.527   4.406   0.106
 9404TIP3    H152191   3.522   4.475   0.039
 9404TIP3    H252192   3.488   4.325   0.065
 9405TIP3   OH252193   3.455   4.538   0.671
 9405TIP3    H152194   3.439   4.443   0.666
 9405TIP3    H252195   3.422   4.559   0.760
 9406TIP3   OH252196   1.956   4.754   1.076
 9406TIP3    H152197   1.972   4.737   0.980
 9406TIP3    H252198   2.043   4.726   1.111
 9407TIP3   OH252199   3.541   4.734   1.640
 9407TIP3    H152200   3.602   4.659   1.652
 9407TIP3    H252201   3.601   4.812   1.639
 9408TIP3   OH252202   3.691   4.522   1.704
 9408TIP3    H152203   3.602   4.483   1.689
 9408TIP3    H252204   3.747   4.444   1.697
 9409TIP3   OH252205   3.447   4.137   0.124
 9409TIP3    H152206   3.526   4.087   0.096
 9409TIP3    H252207   3.384   4.102   0.059
 9410TIP3   OH252208   3.418   4.296   0.512
 9410TIP3    H152209   3.449   4.204   0.527
 9410TIP3    H252210   3.499   4.337   0.480
 9411TIP3   OH252211   3.485   4.351   1.061
 9411TIP3    H152212   3.581   4.374   1.059
 9411TIP3    H252213   3.467   4.365   1.155
 9412TIP3   OH252214   3.492   4.423   1.339
 9412TIP3    H152215   3.403   4.452   1.369
 9412TIP3    H252216   3.535   4.508   1.316
 9413TIP3   OH252217   1.917   4.278   1.693
 9413TIP3    H152218   2.011   4.255   1.711
 9413TIP3    H252219   1.871   4.194   1.718
 9414TIP3   OH252220   3.720   3.829   1.872
 9414TIP3    H152221   3.753   3.763   1.808
 9414TIP3    H252222   3.729   3.911   1.819
 9415TIP3   OH252223   3.491   4.026   0.518
 9415TIP3    H152224   3.511   3.983   0.604
 9415TIP3    H252225   3.428   3.963   0.477
 9416TIP3   OH252226   2.040   4.107   0.970
 9416TIP3    H152227   2.080   4.024   1.003
 9416TIP3    H252228   2.091   4.175   1.017
 9417TIP3   OH252229   1.864   4.407   1.081
 9417TIP3    H152230   1.921   4.381   1.006
 9417TIP3    H252231   1.912   4.487   1.108
 9418TIP3   OH252232   3.671   4.040   1.708
 9418TIP3    H152233   3.577   4.067   1.703
 9418TIP3    H252234   3.674   3.984   1.629
 9419TIP3   OH252235   3.683   4.035   0.164
 9419TIP3    H152236   3.721   3.955   0.126
 9419TIP3    H252237   3.759   4.085   0.198
 9420TIP3   OH252238   1.905   4.044   0.493
 9420TIP3    H152239   1.808   4.045   0.476
 9420TIP3    H252240   1.935   4.077   0.407
 9421TIP3   OH252241   3.374   5.526   0.682
 9421TIP3    H152242   3.442   5.497   0.618
 9421TIP3    H252243   3.426   5.576   0.747
 9422TIP3   OH252244   1.896   3.897   1.316
 9422TIP3    H152245   1.829   3.878   1.385
 9422TIP3    H252246   1.850   3.964   1.263
 9423TIP3   OH252247   2.121   5.216   1.733
 9423TIP3    H152248   2.037   5.239   1.689
 9423TIP3    H252249   2.094   5.209   1.824
 9424TIP3   OH252250   2.410   5.318   1.361
 9424TIP3    H152251   2.379   5.406   1.334
 9424TIP3    H252252   2.503   5.326   1.331
 9425TIP3   OH252253   2.842   5.460   1.650
 9425TIP3    H152254   2.855   5.425   1.741
 9425TIP3    H252255   2.933   5.491   1.627
 9426TIP3   OH252256   3.070   5.587   1.583
 9426TIP3    H152257   3.144   5.529   1.559
 9426TIP3    H252258   3.108   5.632   1.662
 9427TIP3   OH252259   3.573   3.848   1.494
 9427TIP3    H152260   3.490   3.879   1.452
 9427TIP3    H252261   3.589   3.766   1.443
 9428TIP3   OH252262   2.152   5.641   1.359
 9428TIP3    H152263   2.079   5.692   1.321
 9428TIP3    H252264   2.123   5.624   1.450
 9429TIP3   OH252265   2.399   5.599   1.267
 9429TIP3    H152266   2.310   5.615   1.306
 9429TIP3    H252267   2.394   5.658   1.190
 9430TIP3   OH252268   2.870   5.590   1.184
 9430TIP3    H152269   2.824   5.646   1.120
 9430TIP3    H252270   2.883   5.653   1.258
 9431TIP3   OH252271   3.098   5.470   1.289
 9431TIP3    H152272   3.014   5.499   1.250
 9431TIP3    H252273   3.148   5.552   1.279
 9432TIP3   OH252274   3.356   5.627   1.309
 9432TIP3    H152275   3.353   5.723   1.286
 9432TIP3    H252276   3.379   5.590   1.221
 9433TIP3   OH252277   2.096   5.503   1.052
 9433TIP3    H152278   2.091   5.461   1.142
 9433TIP3    H252279   2.182   5.469   1.017
 9434TIP3   OH252280   2.306   5.377   0.920
 9434TIP3    H152281   2.292   5.284   0.944
 9434TIP3    H252282   2.391   5.394   0.964
 9435TIP3   OH252283   2.566   5.426   1.008
 9435TIP3    H152284   2.582   5.334   0.982
 9435TIP3    H252285   2.571   5.421   1.105
 9436TIP3   OH252286   2.911   3.991   0.919
 9436TIP3    H152287   2.844   3.927   0.950
 9436TIP3    H252288   2.967   3.936   0.863
 9437TIP3   OH252289   3.426   3.795   0.926
 9437TIP3    H152290   3.486   3.855   0.876
 9437TIP3    H252291   3.337   3.831   0.904
 9438TIP3   OH252292   3.591   3.922   0.752
 9438TIP3    H152293   3.660   3.863   0.714
 9438TIP3    H252294   3.643   4.004   0.768
 9439TIP3   OH252295   2.150   3.856   0.704
 9439TIP3    H152296   2.070   3.831   0.655
 9439TIP3    H252297   2.195   3.768   0.702
 9440TIP3   OH252298   2.033   3.828   0.287
 9440TIP3    H152299   2.073   3.893   0.225
 9440TIP3    H252300   1.967   3.881   0.334
 9441TIP3   OH252301   2.595   3.845   0.685
 9441TIP3    H152302   2.685   3.880   0.677
 9441TIP3    H252303   2.593   3.824   0.778
 9442TIP3   OH252304   3.168   3.848   0.847
 9442TIP3    H152305   3.162   3.860   0.751
 9442TIP3    H252306   3.129   3.758   0.860
 9443TIP3   OH252307   3.294   3.850   0.413
 9443TIP3    H152308   3.219   3.910   0.401
 9443TIP3    H252309   3.250   3.764   0.434
 9444TIP3   OH252310   2.019   5.425   0.376
 9444TIP3    H152311   1.946   5.426   0.311
 9444TIP3    H252312   2.020   5.519   0.397
 9445TIP3   OH252313   2.207   4.017   0.136
 9445TIP3    H152314   2.262   3.962   0.080
 9445TIP3    H252315   2.277   4.059   0.188
 9446TIP3   OH252316   2.716   4.047   0.365
 9446TIP3    H152317   2.737   3.990   0.441
 9446TIP3    H252318   2.719   4.133   0.414
 9447TIP3   OH252319   2.901   5.568   0.217
 9447TIP3    H152320   2.997   5.577   0.201
 9447TIP3    H252321   2.883   5.508   0.141
 9448TIP3   OH252322   3.574   5.507   0.485
 9448TIP3    H152323   3.553   5.427   0.430
 9448TIP3    H252324   3.565   5.580   0.419
 9449TIP3   OH252325   2.137   3.908   1.651
 9449TIP3    H152326   2.097   3.828   1.690
 9449TIP3    H252327   2.227   3.903   1.690
 9450TIP3   OH252328   2.337   3.847   1.817
 9450TIP3    H152329   2.426   3.813   1.795
 9450TIP3    H252330   2.300   3.766   1.856
 9451TIP3   OH252331   2.196   5.516   0.073
 9451TIP3    H152332   2.168   5.550   0.160
 9451TIP3    H252333   2.276   5.467   0.093
 9452TIP3   OH252334   3.178   3.775   1.831
 9452TIP3    H152335   3.187   3.727   1.916
 9452TIP3    H252336   3.269   3.771   1.797
 9453TIP3   OH252337   3.498   5.380   1.693
 9453TIP3    H152338   3.418   5.367   1.638
 9453TIP3    H252339   3.487   5.475   1.715
 9454TIP3   OH252340   4.944   4.768   0.689
 9454TIP3    H152341   4.941   4.866   0.688
 9454TIP3    H252342   4.869   4.745   0.632
 9455TIP3   OH252343   4.832   4.690   1.042
 9455TIP3    H152344   4.824   4.627   1.114
 9455TIP3    H252345   4.790   4.644   0.967
 9456TIP3   OH252346   4.063   4.661   1.197
 9456TIP3    H152347   4.072   4.592   1.265
 9456TIP3    H252348   4.139   4.718   1.220
 9457TIP3   OH252349   5.196   4.988   0.871
 9457TIP3    H152350   5.156   4.916   0.921
 9457TIP3    H252351   5.200   5.058   0.938
 9458TIP3   OH252352   4.156   5.106   1.046
 9458TIP3    H152353   4.126   5.018   1.015
 9458TIP3    H252354   4.252   5.088   1.050
 9459TIP3   OH252355   3.821   4.460   0.592
 9459TIP3    H152356   3.776   4.546   0.589
 9459TIP3    H252357   3.761   4.405   0.541
 9460TIP3   OH252358   3.892   4.684   0.812
 9460TIP3    H152359   3.920   4.601   0.856
 9460TIP3    H252360   3.960   4.695   0.744
 9461TIP3   OH252361   4.909   5.505   0.895
 9461TIP3    H152362   4.974   5.436   0.865
 9461TIP3    H252363   4.886   5.469   0.981
 9462TIP3   OH252364   4.666   4.931   1.091
 9462TIP3    H152365   4.699   4.871   1.023
 9462TIP3    H252366   4.748   4.949   1.141
 9463TIP3   OH252367   5.522   4.101   1.160
 9463TIP3    H152368   5.545   4.156   1.238
 9463TIP3    H252369   5.584   4.139   1.095
 9464TIP3   OH252370   4.992   4.376   1.121
 9464TIP3    H152371   4.991   4.279   1.113
 9464TIP3    H252372   4.970   4.396   1.027
 9465TIP3   OH252373   4.293   4.189   0.842
 9465TIP3    H152374   4.306   4.272   0.793
 9465TIP3    H252375   4.255   4.131   0.772
 9466TIP3   OH252376   5.071   4.191   0.674
 9466TIP3    H152377   5.133   4.166   0.746
 9466TIP3    H252378   5.124   4.256   0.625
 9467TIP3   OH252379   3.956   4.431   0.915
 9467TIP3    H152380   4.023   4.376   0.961
 9467TIP3    H252381   3.968   4.398   0.824
 9468TIP3   OH252382   4.472   4.586   0.848
 9468TIP3    H152383   4.539   4.527   0.886
 9468TIP3    H252384   4.421   4.521   0.796
 9469TIP3   OH252385   5.566   4.238   1.388
 9469TIP3    H152386   5.512   4.319   1.379
 9469TIP3    H252387   5.576   4.231   1.484
 9470TIP3   OH252388   4.183   4.076   1.242
 9470TIP3    H152389   4.157   4.138   1.171
 9470TIP3    H252390   4.122   4.101   1.315
 9471TIP3   OH252391   4.913   5.026   0.602
 9471TIP3    H152392   4.886   4.998   0.513
 9471TIP3    H252393   4.884   5.121   0.604
 9472TIP3   OH252394   4.436   4.843   1.269
 9472TIP3    H152395   4.366   4.907   1.293
 9472TIP3    H252396   4.507   4.903   1.240
 9473TIP3   OH252397   5.250   4.132   0.880
 9473TIP3    H152398   5.226   4.056   0.934
 9473TIP3    H252399   5.316   4.175   0.935
 9474TIP3   OH252400   4.143   4.265   1.049
 9474TIP3    H152401   4.206   4.334   1.080
 9474TIP3    H252402   4.194   4.224   0.974
 9475TIP3   OH252403   4.282   5.044   1.351
 9475TIP3    H152404   4.276   5.136   1.318
 9475TIP3    H252405   4.193   5.036   1.396
 9476TIP3   OH252406   3.888   5.002   0.429
 9476TIP3    H152407   3.866   5.038   0.340
 9476TIP3    H252408   3.896   5.084   0.482
 9477TIP3   OH252409   5.249   5.172   1.107
 9477TIP3    H152410   5.153   5.184   1.119
 9477TIP3    H252411   5.276   5.263   1.086
 9478TIP3   OH252412   5.282   4.003   1.248
 9478TIP3    H152413   5.207   4.061   1.232
 9478TIP3    H252414   5.354   4.039   1.193
 9479TIP3   OH252415   4.577   3.812   0.990
 9479TIP3    H152416   4.562   3.716   0.985
 9479TIP3    H252417   4.491   3.843   1.027
 9480TIP3   OH252418   5.077   5.350   0.769
 9480TIP3    H152419   5.118   5.278   0.716
 9480TIP3    H252420   5.121   5.428   0.729
 9481TIP3   OH252421   5.198   5.142   0.619
 9481TIP3    H152422   5.169   5.074   0.556
 9481TIP3    H252423   5.200   5.091   0.702
 9482TIP3   OH252424   5.358   5.003   1.467
 9482TIP3    H152425   5.373   4.937   1.396
 9482TIP3    H252426   5.379   5.086   1.421
 9483TIP3   OH252427   4.808   4.688   0.441
 9483TIP3    H152428   4.741   4.750   0.407
 9483TIP3    H252429   4.880   4.701   0.377
 9484TIP3   OH252430   4.817   4.547   0.146
 9484TIP3    H152431   4.888   4.550   0.212
 9484TIP3    H252432   4.846   4.474   0.091
 9485TIP3   OH252433   5.543   4.631   1.268
 9485TIP3    H152434   5.484   4.708   1.274
 9485TIP3    H252435   5.599   4.658   1.192
 9486TIP3   OH252436   5.155   4.713   0.537
 9486TIP3    H152437   5.080   4.736   0.596
 9486TIP3    H252438   5.202   4.645   0.589
 9487TIP3   OH252439   5.147   4.529   1.440
 9487TIP3    H152440   5.150   4.606   1.502
 9487TIP3    H252441   5.076   4.567   1.383
 9488TIP3   OH252442   4.314   4.777   0.727
 9488TIP3    H152443   4.283   4.739   0.641
 9488TIP3    H252444   4.376   4.709   0.760
 9489TIP3   OH252445   4.446   5.115   0.995
 9489TIP3    H152446   4.446   5.064   0.913
 9489TIP3    H252447   4.525   5.080   1.041
 9490TIP3   OH252448   4.349   4.651   1.095
 9490TIP3    H152449   4.401   4.662   1.013
 9490TIP3    H252450   4.388   4.720   1.154
 9491TIP3   OH252451   4.991   5.211   1.165
 9491TIP3    H152452   4.960   5.275   1.231
 9491TIP3    H252453   4.964   5.126   1.206
 9492TIP3   OH252454   4.443   5.096   1.563
 9492TIP3    H152455   4.400   5.169   1.612
 9492TIP3    H252456   4.376   5.075   1.493
 9493TIP3   OH252457   5.040   4.632   0.302
 9493TIP3    H152458   5.095   4.651   0.382
 9493TIP3    H252459   5.086   4.683   0.231
 9494TIP3   OH252460   4.138   4.712   1.477
 9494TIP3    H152461   4.143   4.778   1.548
 9494TIP3    H252462   4.043   4.718   1.458
 9495TIP3   OH252463   4.814   5.305   0.647
 9495TIP3    H152464   4.855   5.336   0.729
 9495TIP3    H252465   4.757   5.380   0.623
 9496TIP3   OH252466   4.268   5.299   1.637
 9496TIP3    H152467   4.261   5.290   1.541
 9496TIP3    H252468   4.175   5.285   1.665
 9497TIP3   OH252469   5.416   3.808   0.301
 9497TIP3    H152470   5.318   3.814   0.308
 9497TIP3    H252471   5.434   3.887   0.244
 9498TIP3   OH252472   4.212   4.679   0.486
 9498TIP3    H152473   4.182   4.758   0.438
 9498TIP3    H252474   4.146   4.613   0.465
 9499TIP3   OH252475   5.528   5.239   0.128
 9499TIP3    H152476   5.541   5.334   0.146
 9499TIP3    H252477   5.620   5.207   0.125
 9500TIP3   OH252478   3.820   4.923   1.380
 9500TIP3    H152479   3.776   4.915   1.293
 9500TIP3    H252480   3.830   4.828   1.401
 9501TIP3   OH252481   3.796   5.197   1.056
 9501TIP3    H152482   3.892   5.185   1.054
 9501TIP3    H252483   3.788   5.279   1.106
 9502TIP3   OH252484   5.621   5.268   1.626
 9502TIP3    H152485   5.608   5.172   1.622
 9502TIP3    H252486   5.533   5.293   1.664
 9503TIP3   OH252487   4.716   5.221   1.511
 9503TIP3    H152488   4.722   5.305   1.562
 9503TIP3    H252489   4.629   5.185   1.536
 9504TIP3   OH252490   4.762   5.597   0.493
 9504TIP3    H152491   4.748   5.590   0.397
 9504TIP3    H252492   4.764   5.693   0.508
 9505TIP3   OH252493   4.124   5.484   0.672
 9505TIP3    H152494   4.139   5.443   0.760
 9505TIP3    H252495   4.039   5.442   0.650
 9506TIP3   OH252496   5.061   5.513   0.196
 9506TIP3    H152497   5.116   5.443   0.152
 9506TIP3    H252498   5.071   5.487   0.289
 9507TIP3   OH252499   5.036   5.511   0.469
 9507TIP3    H152500   4.940   5.519   0.486
 9507TIP3    H252501   5.059   5.436   0.525
 9508TIP3   OH252502   5.337   4.413   1.671
 9508TIP3    H152503   5.287   4.460   1.603
 9508TIP3    H252504   5.333   4.321   1.643
 9509TIP3   OH252505   4.050   5.055   1.473
 9509TIP3    H152506   4.071   5.019   1.561
 9509TIP3    H252507   3.962   5.015   1.451
 9510TIP3   OH252508   4.317   3.905   1.060
 9510TIP3    H152509   4.225   3.890   1.029
 9510TIP3    H252510   4.304   3.982   1.118
 9511TIP3   OH252511   4.786   3.868   1.403
 9511TIP3    H152512   4.820   3.826   1.484
 9511TIP3    H252513   4.687   3.861   1.414
 9512TIP3   OH252514   5.107   4.261   1.486
 9512TIP3    H152515   5.058   4.228   1.567
 9512TIP3    H252516   5.085   4.354   1.486
 9513TIP3   OH252517   5.194   4.719   0.089
 9513TIP3    H152518   5.178   4.730  -0.006
 9513TIP3    H252519   5.271   4.777   0.096
 9514TIP3   OH252520   4.750   4.127   0.139
 9514TIP3    H152521   4.710   4.120   0.227
 9514TIP3    H252522   4.714   4.043   0.105
 9515TIP3   OH252523   4.329   4.401   1.195
 9515TIP3    H152524   4.255   4.398   1.259
 9515TIP3    H252525   4.320   4.490   1.155
 9516TIP3   OH252526   4.322   4.411   0.680
 9516TIP3    H152527   4.229   4.386   0.666
 9516TIP3    H252528   4.362   4.383   0.596
 9517TIP3   OH252529   4.875   4.461   0.555
 9517TIP3    H152530   4.837   4.544   0.519
 9517TIP3    H252531   4.944   4.445   0.489
 9518TIP3   OH252532   4.782   4.481   1.697
 9518TIP3    H152533   4.728   4.404   1.728
 9518TIP3    H252534   4.863   4.472   1.750
 9519TIP3   OH252535   4.982   4.411   0.842
 9519TIP3    H152536   4.950   4.467   0.769
 9519TIP3    H252537   4.987   4.326   0.794
 9520TIP3   OH252538   4.089   4.423   1.360
 9520TIP3    H152539   4.099   4.465   1.447
 9520TIP3    H252540   4.047   4.339   1.383
 9521TIP3   OH252541   4.437   4.081   0.063
 9521TIP3    H152542   4.387   4.088   0.146
 9521TIP3    H252543   4.375   4.140   0.016
 9522TIP3   OH252544   3.756   4.135   0.759
 9522TIP3    H152545   3.824   4.131   0.830
 9522TIP3    H252546   3.801   4.098   0.681
 9523TIP3   OH252547   3.871   4.207   0.283
 9523TIP3    H152548   3.940   4.266   0.245
 9523TIP3    H252549   3.817   4.271   0.334
 9524TIP3   OH252550   4.908   4.566   1.300
 9524TIP3    H152551   4.928   4.500   1.232
 9524TIP3    H252552   4.847   4.518   1.362
 9525TIP3   OH252553   4.578   4.169   0.782
 9525TIP3    H152554   4.484   4.167   0.810
 9525TIP3    H252555   4.626   4.147   0.863
 9526TIP3   OH252556   4.059   4.321   0.667
 9526TIP3    H152557   3.972   4.337   0.625
 9526TIP3    H252558   4.089   4.237   0.627
 9527TIP3   OH252559   4.423   4.330   0.435
 9527TIP3    H152560   4.519   4.337   0.447
 9527TIP3    H252561   4.400   4.394   0.365
 9528TIP3   OH252562   5.020   4.097   1.103
 9528TIP3    H152563   4.952   4.091   1.174
 9528TIP3    H252564   4.970   4.061   1.027
 9529TIP3   OH252565   4.289   4.455   0.193
 9529TIP3    H152566   4.245   4.402   0.124
 9529TIP3    H252567   4.374   4.463   0.147
 9530TIP3   OH252568   5.340   5.654   1.737
 9530TIP3    H152569   5.366   5.692   1.651
 9530TIP3    H252570   5.412   5.685   1.793
 9531TIP3   OH252571   4.107   4.902   1.694
 9531TIP3    H152572   4.179   4.926   1.754
 9531TIP3    H252573   4.030   4.908   1.755
 9532TIP3   OH252574   4.711   4.444   0.973
 9532TIP3    H152575   4.764   4.389   0.914
 9532TIP3    H252576   4.688   4.385   1.047
 9533TIP3   OH252577   4.210   4.057   0.618
 9533TIP3    H152578   4.176   3.965   0.612
 9533TIP3    H252579   4.284   4.050   0.556
 9534TIP3   OH252580   4.576   4.281   1.206
 9534TIP3    H152581   4.489   4.324   1.220
 9534TIP3    H252582   4.624   4.308   1.286
 9535TIP3   OH252583   4.630   4.893   0.383
 9535TIP3    H152584   4.549   4.850   0.347
 9535TIP3    H252585   4.605   4.910   0.475
 9536TIP3   OH252586   5.350   4.815   1.259
 9536TIP3    H152587   5.405   4.868   1.198
 9536TIP3    H252588   5.263   4.824   1.215
 9537TIP3   OH252589   5.015   4.186   0.184
 9537TIP3    H152590   4.918   4.189   0.187
 9537TIP3    H252591   5.047   4.262   0.237
 9538TIP3   OH252592   4.779   4.926   1.505
 9538TIP3    H152593   4.744   4.882   1.583
 9538TIP3    H252594   4.752   5.017   1.517
 9539TIP3   OH252595   5.083   4.372   0.366
 9539TIP3    H152596   5.174   4.355   0.399
 9539TIP3    H252597   5.096   4.452   0.313
 9540TIP3   OH252598   4.141   4.838   0.961
 9540TIP3    H152599   4.208   4.829   0.891
 9540TIP3    H252600   4.147   4.752   1.007
 9541TIP3   OH252601   4.840   5.044   0.285
 9541TIP3    H152602   4.804   5.129   0.316
 9541TIP3    H252603   4.766   4.982   0.305
 9542TIP3   OH252604   3.840   4.676   1.488
 9542TIP3    H152605   3.856   4.632   1.573
 9542TIP3    H252606   3.778   4.617   1.443
 9543TIP3   OH252607   4.541   4.634   1.703
 9543TIP3    H152608   4.508   4.601   1.618
 9543TIP3    H252609   4.633   4.600   1.703
 9544TIP3   OH252610   5.011   5.167   1.501
 9544TIP3    H152611   4.918   5.185   1.477
 9544TIP3    H252612   5.007   5.197   1.594
 9545TIP3   OH252613   5.578   4.384   0.339
 9545TIP3    H152614   5.518   4.355   0.267
 9545TIP3    H252615   5.583   4.479   0.313
 9546TIP3   OH252616   5.575   4.971   1.618
 9546TIP3    H152617   5.486   4.994   1.582
 9546TIP3    H252618   5.629   4.965   1.537
 9547TIP3   OH252619   5.410   5.266   0.379
 9547TIP3    H152620   5.369   5.184   0.410
 9547TIP3    H252621   5.434   5.248   0.286
 9548TIP3   OH252622   5.126   4.745   1.094
 9548TIP3    H152623   5.032   4.731   1.074
 9548TIP3    H252624   5.169   4.676   1.040
 9549TIP3   OH252625   4.379   5.183   0.699
 9549TIP3    H152626   4.428   5.264   0.679
 9549TIP3    H252627   4.291   5.206   0.666
 9550TIP3   OH252628   3.952   4.668   0.151
 9550TIP3    H152629   4.013   4.727   0.198
 9550TIP3    H252630   3.865   4.700   0.184
 9551TIP3   OH252631   4.519   4.949   0.651
 9551TIP3    H152632   4.487   5.041   0.658
 9551TIP3    H252633   4.448   4.899   0.695
 9552TIP3   OH252634   4.564   5.368   1.293
 9552TIP3    H152635   4.611   5.447   1.263
 9552TIP3    H252636   4.626   5.333   1.359
 9553TIP3   OH252637   4.386   5.447   0.610
 9553TIP3    H152638   4.290   5.463   0.618
 9553TIP3    H252639   4.423   5.533   0.637
 9554TIP3   OH252640   4.914   4.967   1.253
 9554TIP3    H152641   4.885   4.948   1.345
 9554TIP3    H252642   4.980   4.898   1.236
 9555TIP3   OH252643   5.145   5.071   0.163
 9555TIP3    H152644   5.181   5.028   0.242
 9555TIP3    H252645   5.051   5.054   0.178
 9556TIP3   OH252646   5.200   5.425   1.502
 9556TIP3    H152647   5.130   5.376   1.455
 9556TIP3    H252648   5.217   5.495   1.435
 9557TIP3   OH252649   5.597   5.512   0.188
 9557TIP3    H152650   5.668   5.576   0.170
 9557TIP3    H252651   5.525   5.573   0.215
 9558TIP3   OH252652   4.005   4.152   1.441
 9558TIP3    H152653   3.914   4.185   1.441
 9558TIP3    H252654   3.997   4.067   1.488
 9559TIP3   OH252655   5.228   4.939   0.392
 9559TIP3    H152656   5.204   4.858   0.441
 9559TIP3    H252657   5.325   4.940   0.404
 9560TIP3   OH252658   3.966   5.328   1.284
 9560TIP3    H152659   3.998   5.237   1.285
 9560TIP3    H252660   3.992   5.358   1.371
 9561TIP3   OH252661   4.436   5.134   0.260
 9561TIP3    H152662   4.473   5.086   0.335
 9561TIP3    H252663   4.450   5.229   0.284
 9562TIP3   OH252664   4.091   4.860   0.303
 9562TIP3    H152665   4.023   4.900   0.360
 9562TIP3    H252666   4.147   4.936   0.280
 9563TIP3   OH252667   4.884   4.127   1.337
 9563TIP3    H152668   4.947   4.130   1.409
 9563TIP3    H252669   4.836   4.043   1.359
 9564TIP3   OH252670   4.958   4.080   0.447
 9564TIP3    H152671   4.977   4.131   0.368
 9564TIP3    H252672   5.007   4.131   0.513
 9565TIP3   OH252673   4.721   5.301   0.330
 9565TIP3    H152674   4.639   5.353   0.337
 9565TIP3    H252675   4.773   5.353   0.266
 9566TIP3   OH252676   4.675   4.260   0.529
 9566TIP3    H152677   4.753   4.319   0.533
 9566TIP3    H252678   4.649   4.248   0.623
 9567TIP3   OH252679   4.744   4.370   1.442
 9567TIP3    H152680   4.734   4.415   1.529
 9567TIP3    H252681   4.790   4.287   1.461
 9568TIP3   OH252682   4.760   3.966   0.615
 9568TIP3    H152683   4.727   4.030   0.680
 9568TIP3    H252684   4.830   4.020   0.571
 9569TIP3   OH252685   4.460   5.404   0.338
 9569TIP3    H152686   4.471   5.480   0.277
 9569TIP3    H252687   4.431   5.445   0.421
 9570TIP3   OH252688   4.323   4.082   0.309
 9570TIP3    H152689   4.326   4.176   0.328
 9570TIP3    H252690   4.416   4.053   0.312
 9571TIP3   OH252691   5.347   4.149   1.531
 9571TIP3    H152692   5.254   4.178   1.520
 9571TIP3    H252693   5.380   4.144   1.440
 9572TIP3   OH252694   5.207   4.529   0.939
 9572TIP3    H152695   5.129   4.483   0.902
 9572TIP3    H252696   5.262   4.458   0.978
 9573TIP3   OH252697   4.153   5.116   0.196
 9573TIP3    H152698   4.217   5.184   0.224
 9573TIP3    H252699   4.202   5.077   0.122
 9574TIP3   OH252700   3.986   4.390   0.110
 9574TIP3    H152701   3.989   4.487   0.127
 9574TIP3    H252702   3.901   4.374   0.073
 9575TIP3   OH252703   5.316   5.455   1.099
 9575TIP3    H152704   5.308   5.523   1.029
 9575TIP3    H252705   5.413   5.460   1.117
 9576TIP3   OH252706   4.061   3.867   0.980
 9576TIP3    H152707   4.046   3.867   0.883
 9576TIP3    H252708   4.024   3.780   1.005
 9577TIP3   OH252709   3.960   5.260   0.596
 9577TIP3    H152710   3.874   5.304   0.589
 9577TIP3    H252711   4.007   5.303   0.524
 9578TIP3   OH252712   3.880   5.524   1.723
 9578TIP3    H152713   3.941   5.505   1.797
 9578TIP3    H252714   3.842   5.436   1.705
 9579TIP3   OH252715   4.350   5.416   1.883
 9579TIP3    H152716   4.425   5.366   1.917
 9579TIP3    H252717   4.347   5.387   1.790
 9580TIP3   OH252718   4.779   5.374   0.057
 9580TIP3    H152719   4.695   5.323   0.064
 9580TIP3    H252720   4.838   5.321   0.005
 9581TIP3   OH252721   4.999   5.254   1.760
 9581TIP3    H152722   4.968   5.166   1.787
 9581TIP3    H252723   5.076   5.266   1.818
 9582TIP3   OH252724   5.242   5.335   0.100
 9582TIP3    H152725   5.253   5.239   0.097
 9582TIP3    H252726   5.274   5.365   0.013
 9583TIP3   OH252727   3.871   4.901   1.823
 9583TIP3    H152728   3.888   4.809   1.793
 9583TIP3    H252729   3.798   4.926   1.765
 9584TIP3   OH252730   4.291   4.915   0.026
 9584TIP3    H152731   4.325   4.850   0.089
 9584TIP3    H252732   4.370   4.929  -0.029
 9585TIP3   OH252733   4.544   4.900   1.761
 9585TIP3    H152734   4.510   4.932   1.675
 9585TIP3    H252735   4.550   4.802   1.750
 9586TIP3   OH252736   5.113   4.883   1.498
 9586TIP3    H152737   5.192   4.941   1.495
 9586TIP3    H252738   5.044   4.951   1.504
 9587TIP3   OH252739   3.965   4.624   1.760
 9587TIP3    H152740   4.007   4.538   1.751
 9587TIP3    H252741   3.941   4.626   1.855
 9588TIP3   OH252742   4.429   4.740   0.267
 9588TIP3    H152743   4.379   4.685   0.329
 9588TIP3    H252744   4.461   4.671   0.203
 9589TIP3   OH252745   4.354   4.520   1.495
 9589TIP3    H152746   4.294   4.592   1.520
 9589TIP3    H252747   4.395   4.556   1.415
 9590TIP3   OH252748   4.538   4.562   0.094
 9590TIP3    H152749   4.516   4.548  -0.000
 9590TIP3    H252750   4.636   4.569   0.096
 9591TIP3   OH252751   4.862   4.774   1.829
 9591TIP3    H152752   4.958   4.772   1.816
 9591TIP3    H252753   4.845   4.698   1.887
 9592TIP3   OH252754   5.467   4.789  11.013
 9592TIP3    H152755   5.451   4.751  10.927
 9592TIP3    H252756   5.473   4.884  10.992
 9593TIP3   OH252757   4.395   4.265   1.602
 9593TIP3    H152758   4.406   4.183   1.545
 9593TIP3    H252759   4.390   4.339   1.540
 9594TIP3   OH252760   4.435   4.108   1.350
 9594TIP3    H152761   4.487   4.141   1.276
 9594TIP3    H252762   4.347   4.085   1.316
 9595TIP3   OH252763   4.587   4.645   1.383
 9595TIP3    H152764   4.662   4.628   1.325
 9595TIP3    H252765   4.550   4.728   1.349
 9596TIP3   OH252766   5.029   4.418   1.877
 9596TIP3    H152767   5.054   4.325   1.867
 9596TIP3    H252768   5.115   4.463   1.881
 9597TIP3   OH252769   5.165   4.697   1.694
 9597TIP3    H152770   5.138   4.771   1.634
 9597TIP3    H252771   5.261   4.698   1.678
 9598TIP3   OH252772   4.241   4.380   1.795
 9598TIP3    H152773   4.166   4.321   1.776
 9598TIP3    H252774   4.307   4.344   1.732
 9599TIP3   OH252775   4.530   3.841   1.340
 9599TIP3    H152776   4.506   3.923   1.388
 9599TIP3    H252777   4.443   3.799   1.344
 9600TIP3   OH252778   4.640   4.270   1.759
 9600TIP3    H152779   4.608   4.244   1.847
 9600TIP3    H252780   4.563   4.245   1.704
 9601TIP3   OH252781   4.913   4.183   1.665
 9601TIP3    H152782   4.817   4.189   1.678
 9601TIP3    H252783   4.938   4.122   1.738
 9602TIP3   OH252784   5.069   4.046   1.857
 9602TIP3    H152785   5.067   3.949   1.861
 9602TIP3    H252786   5.047   4.076   1.947
 9603TIP3   OH252787   4.047   4.177   1.771
 9603TIP3    H152788   4.074   4.105   1.711
 9603TIP3    H252789   4.040   4.129   1.855
 9604TIP3   OH252790   4.551   3.710   1.693
 9604TIP3    H152791   4.640   3.681   1.669
 9604TIP3    H252792   4.526   3.764   1.616
 9605TIP3   OH252793   4.571   3.940   1.880
 9605TIP3    H152794   4.553   3.890   1.797
 9605TIP3    H252795   4.512   4.015   1.862
 9606TIP3   OH252796   4.526   5.663   0.220
 9606TIP3    H152797   4.619   5.638   0.202
 9606TIP3    H252798   4.497   5.679   0.129
 9607TIP3   OH252799   3.881   5.086   0.144
 9607TIP3    H152800   3.977   5.097   0.162
 9607TIP3    H252801   3.884   5.028   0.067
 9608TIP3   OH252802   3.752   5.625   0.639
 9608TIP3    H152803   3.680   5.576   0.593
 9608TIP3    H252804   3.780   5.560   0.706
 9609TIP3   OH252805   3.834   5.439   0.827
 9609TIP3    H152806   3.799   5.352   0.847
 9609TIP3    H252807   3.857   5.472   0.916
 9610TIP3   OH252808   5.589   5.519   1.119
 9610TIP3    H152809   5.592   5.534   1.215
 9610TIP3    H252810   5.659   5.577   1.089
 9611TIP3   OH252811   5.545   5.479   1.414
 9611TIP3    H152812   5.499   5.402   1.375
 9611TIP3    H252813   5.593   5.434   1.486
 9612TIP3   OH252814   5.390   5.050   1.882
 9612TIP3    H152815   5.299   5.048   1.918
 9612TIP3    H252816   5.427   5.131   1.922
 9613TIP3   OH252817   5.524   4.882   0.423
 9613TIP3    H152818   5.609   4.923   0.445
 9613TIP3    H252819   5.520   4.812   0.492
 9614TIP3   OH252820   5.557   4.692   0.613
 9614TIP3    H152821   5.482   4.642   0.652
 9614TIP3    H252822   5.617   4.704   0.690
 9615TIP3   OH252823   5.533   4.961   1.112
 9615TIP3    H152824   5.614   4.922   1.073
 9615TIP3    H252825   5.548   5.056   1.094
 9616TIP3   OH252826   5.389   5.251   1.338
 9616TIP3    H152827   5.320   5.286   1.397
 9616TIP3    H252828   5.335   5.212   1.267
 9617TIP3   OH252829   5.587   4.673   0.247
 9617TIP3    H152830   5.526   4.709   0.178
 9617TIP3    H252831   5.575   4.742   0.316
 9618TIP3   OH252832   5.425   4.400   0.102
 9618TIP3    H152833   5.425   4.465   0.032
 9618TIP3    H252834   5.404   4.316   0.059
 9619TIP3   OH252835   5.340   4.538   0.670
 9619TIP3    H152836   5.325   4.443   0.666
 9619TIP3    H252837   5.308   4.561   0.759
 9620TIP3   OH252838   3.840   4.747   1.077
 9620TIP3    H152839   3.857   4.739   0.980
 9620TIP3    H252840   3.930   4.728   1.111
 9621TIP3   OH252841   5.425   4.733   1.638
 9621TIP3    H152842   5.488   4.659   1.654
 9621TIP3    H252843   5.485   4.811   1.639
 9622TIP3   OH252844   5.577   4.523   1.705
 9622TIP3    H152845   5.488   4.483   1.692
 9622TIP3    H252846   5.633   4.444   1.697
 9623TIP3   OH252847   5.329   4.128   0.129
 9623TIP3    H152848   5.414   4.096   0.094
 9623TIP3    H252849   5.272   4.102   0.055
 9624TIP3   OH252850   5.305   4.296   0.516
 9624TIP3    H152851   5.336   4.204   0.524
 9624TIP3    H252852   5.383   4.338   0.477
 9625TIP3   OH252853   5.368   4.352   1.064
 9625TIP3    H152854   5.465   4.373   1.054
 9625TIP3    H252855   5.364   4.367   1.159
 9626TIP3   OH252856   5.373   4.426   1.331
 9626TIP3    H152857   5.302   4.465   1.385
 9626TIP3    H252858   5.429   4.507   1.315
 9627TIP3   OH252859   3.802   4.278   1.692
 9627TIP3    H152860   3.895   4.256   1.711
 9627TIP3    H252861   3.756   4.195   1.717
 9628TIP3   OH252862   5.605   3.830   1.872
 9628TIP3    H152863   5.640   3.764   1.810
 9628TIP3    H252864   5.614   3.911   1.817
 9629TIP3   OH252865   5.378   4.023   0.517
 9629TIP3    H152866   5.392   3.996   0.609
 9629TIP3    H252867   5.308   3.969   0.475
 9630TIP3   OH252868   3.922   4.107   0.977
 9630TIP3    H152869   3.968   4.023   1.001
 9630TIP3    H252870   3.979   4.175   1.015
 9631TIP3   OH252871   3.750   4.407   1.080
 9631TIP3    H152872   3.807   4.381   1.004
 9631TIP3    H252873   3.798   4.487   1.107
 9632TIP3   OH252874   5.556   4.040   1.707
 9632TIP3    H152875   5.463   4.067   1.702
 9632TIP3    H252876   5.559   3.984   1.628
 9633TIP3   OH252877   5.566   4.023   0.178
 9633TIP3    H152878   5.606   3.960   0.117
 9633TIP3    H252879   5.630   4.094   0.186
 9634TIP3   OH252880   3.785   4.032   0.486
 9634TIP3    H152881   3.691   4.051   0.474
 9634TIP3    H252882   3.829   4.081   0.416
 9635TIP3   OH252883   5.261   5.526   0.682
 9635TIP3    H152884   5.328   5.497   0.618
 9635TIP3    H252885   5.312   5.576   0.747
 9636TIP3   OH252886   3.782   3.897   1.316
 9636TIP3    H152887   3.715   3.878   1.385
 9636TIP3    H252888   3.736   3.964   1.262
 9637TIP3   OH252889   4.006   5.216   1.733
 9637TIP3    H152890   3.923   5.239   1.689
 9637TIP3    H252891   3.980   5.209   1.824
 9638TIP3   OH252892   4.295   5.318   1.361
 9638TIP3    H152893   4.264   5.406   1.334
 9638TIP3    H252894   4.388   5.326   1.330
 9639TIP3   OH252895   4.728   5.460   1.650
 9639TIP3    H152896   4.740   5.425   1.741
 9639TIP3    H252897   4.818   5.491   1.627
 9640TIP3   OH252898   4.956   5.587   1.583
 9640TIP3    H152899   5.030   5.529   1.559
 9640TIP3    H252900   4.993   5.632   1.662
 9641TIP3   OH252901   5.460   3.848   1.493
 9641TIP3    H152902   5.376   3.876   1.453
 9641TIP3    H252903   5.476   3.765   1.443
 9642TIP3   OH252904   4.038   5.641   1.359
 9642TIP3    H152905   3.965   5.692   1.320
 9642TIP3    H252906   4.008   5.623   1.449
 9643TIP3   OH252907   4.285   5.599   1.267
 9643TIP3    H152908   4.195   5.615   1.306
 9643TIP3    H252909   4.280   5.658   1.190
 9644TIP3   OH252910   4.756   5.590   1.185
 9644TIP3    H152911   4.710   5.646   1.120
 9644TIP3    H252912   4.769   5.654   1.259
 9645TIP3   OH252913   4.983   5.470   1.289
 9645TIP3    H152914   4.899   5.499   1.250
 9645TIP3    H252915   5.034   5.552   1.279
 9646TIP3   OH252916   5.241   5.627   1.309
 9646TIP3    H152917   5.238   5.723   1.287
 9646TIP3    H252918   5.264   5.590   1.221
 9647TIP3   OH252919   3.985   5.507   1.055
 9647TIP3    H152920   3.976   5.460   1.140
 9647TIP3    H252921   4.067   5.467   1.016
 9648TIP3   OH252922   4.192   5.377   0.920
 9648TIP3    H152923   4.176   5.284   0.944
 9648TIP3    H252924   4.278   5.394   0.964
 9649TIP3   OH252925   4.453   5.426   1.008
 9649TIP3    H152926   4.468   5.334   0.982
 9649TIP3    H252927   4.457   5.421   1.105
 9650TIP3   OH252928   4.797   3.991   0.921
 9650TIP3    H152929   4.729   3.927   0.950
 9650TIP3    H252930   4.851   3.936   0.864
 9651TIP3   OH252931   5.311   3.788   0.913
 9651TIP3    H152932   5.372   3.860   0.884
 9651TIP3    H252933   5.222   3.831   0.908
 9652TIP3   OH252934   5.482   3.927   0.756
 9652TIP3    H152935   5.560   3.873   0.724
 9652TIP3    H252936   5.531   4.012   0.772
 9653TIP3   OH252937   4.035   3.854   0.704
 9653TIP3    H152938   3.956   3.835   0.652
 9653TIP3    H252939   4.081   3.768   0.697
 9654TIP3   OH252940   3.908   3.829   0.280
 9654TIP3    H152941   3.964   3.889   0.228
 9654TIP3    H252942   3.860   3.887   0.341
 9655TIP3   OH252943   4.480   3.845   0.686
 9655TIP3    H152944   4.570   3.881   0.677
 9655TIP3    H252945   4.479   3.824   0.780
 9656TIP3   OH252946   5.059   3.846   0.845
 9656TIP3    H152947   5.042   3.860   0.751
 9656TIP3    H252948   5.014   3.759   0.861
 9657TIP3   OH252949   5.182   3.849   0.424
 9657TIP3    H152950   5.109   3.909   0.399
 9657TIP3    H252951   5.133   3.763   0.431
 9658TIP3   OH252952   3.905   5.425   0.376
 9658TIP3    H152953   3.832   5.426   0.311
 9658TIP3    H252954   3.906   5.520   0.397
 9659TIP3   OH252955   4.073   4.055   0.127
 9659TIP3    H152956   4.123   3.983   0.081
 9659TIP3    H252957   4.147   4.064   0.191
 9660TIP3   OH252958   4.606   4.049   0.364
 9660TIP3    H152959   4.620   3.989   0.440
 9660TIP3    H252960   4.605   4.133   0.415
 9661TIP3   OH252961   4.788   5.568   0.218
 9661TIP3    H152962   4.882   5.576   0.199
 9661TIP3    H252963   4.765   5.509   0.142
 9662TIP3   OH252964   5.460   5.507   0.485
 9662TIP3    H152965   5.439   5.427   0.430
 9662TIP3    H252966   5.451   5.580   0.419
 9663TIP3   OH252967   4.021   3.908   1.652
 9663TIP3    H152968   3.985   3.827   1.691
 9663TIP3    H252969   4.115   3.904   1.683
 9664TIP3   OH252970   4.221   3.846   1.828
 9664TIP3    H152971   4.308   3.821   1.788
 9664TIP3    H252972   4.190   3.760   1.860
 9665TIP3   OH252973   4.077   5.510   0.075
 9665TIP3    H152974   4.057   5.550   0.161
 9665TIP3    H252975   4.165   5.471   0.088
 9666TIP3   OH252976   5.063   3.776   1.831
 9666TIP3    H152977   5.071   3.727   1.915
 9666TIP3    H252978   5.155   3.771   1.797
 9667TIP3   OH252979   5.384   5.380   1.693
 9667TIP3    H152980   5.304   5.367   1.638
 9667TIP3    H252981   5.372   5.475   1.715
 9668TIP3   OH252982   6.830   4.768   0.688
 9668TIP3    H152983   6.827   4.866   0.688
 9668TIP3    H252984   6.755   4.744   0.632
 9669TIP3   OH252985   6.715   4.692   1.041
 9669TIP3    H152986   6.713   4.628   1.113
 9669TIP3    H252987   6.678   4.641   0.967
 9670TIP3   OH252988   5.948   4.661   1.197
 9670TIP3    H152989   5.958   4.592   1.266
 9670TIP3    H252990   6.024   4.717   1.219
 9671TIP3   OH252991   7.082   4.986   0.870
 9671TIP3    H152992   7.041   4.915   0.920
 9671TIP3    H252993   7.086   5.056   0.937
 9672TIP3   OH252994   6.042   5.106   1.046
 9672TIP3    H152995   6.011   5.018   1.015
 9672TIP3    H252996   6.137   5.088   1.050
 9673TIP3   OH252997   5.705   4.460   0.597
 9673TIP3    H152998   5.662   4.547   0.590
 9673TIP3    H252999   5.650   4.406   0.538
 9674TIP3   OH253000   5.777   4.684   0.812
 9674TIP3    H153001   5.805   4.601   0.856
 9674TIP3    H253002   5.845   4.695   0.744
 9675TIP3   OH253003   6.804   5.508   0.903
 9675TIP3    H153004   6.857   5.434   0.862
 9675TIP3    H253005   6.762   5.463   0.977
 9676TIP3   OH253006   6.552   4.932   1.090
 9676TIP3    H153007   6.585   4.870   1.024
 9676TIP3    H253008   6.633   4.949   1.140
 9677TIP3   OH253009   7.411   4.100   1.161
 9677TIP3    H153010   7.428   4.157   1.238
 9677TIP3    H253011   7.471   4.141   1.097
 9678TIP3   OH253012   6.868   4.380   1.121
 9678TIP3    H153013   6.886   4.284   1.122
 9678TIP3    H253014   6.858   4.393   1.025
 9679TIP3   OH253015   6.179   4.189   0.842
 9679TIP3    H153016   6.191   4.272   0.792
 9679TIP3    H253017   6.140   4.131   0.772
 9680TIP3   OH253018   6.953   4.196   0.678
 9680TIP3    H153019   7.018   4.165   0.746
 9680TIP3    H253020   7.010   4.253   0.625
 9681TIP3   OH253021   5.841   4.430   0.915
 9681TIP3    H153022   5.908   4.376   0.961
 9681TIP3    H253023   5.854   4.399   0.824
 9682TIP3   OH253024   6.357   4.586   0.849
 9682TIP3    H153025   6.425   4.527   0.886
 9682TIP3    H253026   6.307   4.521   0.796
 9683TIP3   OH253027   7.453   4.239   1.386
 9683TIP3    H153028   7.393   4.316   1.377
 9683TIP3    H253029   7.464   4.234   1.484
 9684TIP3   OH253030   6.071   4.079   1.246
 9684TIP3    H153031   6.043   4.136   1.171
 9684TIP3    H253032   6.004   4.101   1.314
 9685TIP3   OH253033   6.798   5.027   0.602
 9685TIP3    H153034   6.771   4.998   0.513
 9685TIP3    H253035   6.769   5.121   0.603
 9686TIP3   OH253036   6.321   4.843   1.269
 9686TIP3    H153037   6.252   4.907   1.292
 9686TIP3    H253038   6.392   4.902   1.240
 9687TIP3   OH253039   7.135   4.132   0.878
 9687TIP3    H153040   7.113   4.055   0.932
 9687TIP3    H253041   7.202   4.175   0.934
 9688TIP3   OH253042   6.029   4.264   1.050
 9688TIP3    H153043   6.091   4.333   1.081
 9688TIP3    H253044   6.080   4.224   0.974
 9689TIP3   OH253045   6.167   5.044   1.351
 9689TIP3    H153046   6.162   5.135   1.318
 9689TIP3    H253047   6.079   5.036   1.396
 9690TIP3   OH253048   5.773   5.002   0.429
 9690TIP3    H153049   5.752   5.038   0.340
 9690TIP3    H253050   5.781   5.084   0.482
 9691TIP3   OH253051   7.135   5.172   1.108
 9691TIP3    H153052   7.038   5.181   1.118
 9691TIP3    H253053   7.164   5.261   1.084
 9692TIP3   OH253054   7.166   4.000   1.246
 9692TIP3    H153055   7.095   4.064   1.235
 9692TIP3    H253056   7.239   4.042   1.195
 9693TIP3   OH253057   6.463   3.812   0.992
 9693TIP3    H153058   6.448   3.716   0.984
 9693TIP3    H253059   6.376   3.843   1.023
 9694TIP3   OH253060   6.965   5.351   0.773
 9694TIP3    H153061   7.001   5.278   0.716
 9694TIP3    H253062   7.007   5.427   0.727
 9695TIP3   OH253063   7.083   5.142   0.619
 9695TIP3    H153064   7.054   5.074   0.556
 9695TIP3    H253065   7.086   5.092   0.702
 9696TIP3   OH253066   7.244   5.003   1.467
 9696TIP3    H153067   7.259   4.936   1.397
 9696TIP3    H253068   7.266   5.086   1.421
 9697TIP3   OH253069   6.694   4.688   0.441
 9697TIP3    H153070   6.626   4.750   0.407
 9697TIP3    H253071   6.766   4.701   0.377
 9698TIP3   OH253072   6.702   4.546   0.146
 9698TIP3    H153073   6.774   4.549   0.212
 9698TIP3    H253074   6.731   4.474   0.091
 9699TIP3   OH253075   7.434   4.634   1.271
 9699TIP3    H153076   7.368   4.706   1.275
 9699TIP3    H253077   7.482   4.659   1.190
 9700TIP3   OH253078   7.041   4.711   0.535
 9700TIP3    H153079   6.966   4.736   0.595
 9700TIP3    H253080   7.088   4.644   0.589
 9701TIP3   OH253081   7.033   4.529   1.449
 9701TIP3    H153082   7.033   4.610   1.501
 9701TIP3    H253083   6.970   4.557   1.379
 9702TIP3   OH253084   6.200   4.777   0.727
 9702TIP3    H153085   6.169   4.739   0.642
 9702TIP3    H253086   6.262   4.709   0.760
 9703TIP3   OH253087   6.332   5.116   0.995
 9703TIP3    H153088   6.331   5.064   0.913
 9703TIP3    H253089   6.410   5.080   1.041
 9704TIP3   OH253090   6.232   4.653   1.094
 9704TIP3    H153091   6.287   4.662   1.013
 9704TIP3    H253092   6.273   4.719   1.154
 9705TIP3   OH253093   6.878   5.215   1.166
 9705TIP3    H153094   6.842   5.270   1.236
 9705TIP3    H253095   6.853   5.126   1.202
 9706TIP3   OH253096   6.329   5.096   1.563
 9706TIP3    H153097   6.286   5.169   1.612
 9706TIP3    H253098   6.262   5.075   1.493
 9707TIP3   OH253099   6.926   4.632   0.302
 9707TIP3    H153100   6.981   4.651   0.382
 9707TIP3    H253101   6.971   4.683   0.231
 9708TIP3   OH253102   6.023   4.712   1.477
 9708TIP3    H153103   6.029   4.778   1.548
 9708TIP3    H253104   5.929   4.720   1.458
 9709TIP3   OH253105   6.699   5.306   0.644
 9709TIP3    H153106   6.738   5.334   0.727
 9709TIP3    H253107   6.642   5.380   0.622
 9710TIP3   OH253108   6.154   5.299   1.637
 9710TIP3    H153109   6.147   5.290   1.541
 9710TIP3    H253110   6.061   5.285   1.665
 9711TIP3   OH253111   7.302   3.805   0.291
 9711TIP3    H153112   7.206   3.814   0.313
 9711TIP3    H253113   7.319   3.890   0.246
 9712TIP3   OH253114   6.098   4.679   0.486
 9712TIP3    H153115   6.067   4.758   0.438
 9712TIP3    H253116   6.031   4.613   0.465
 9713TIP3   OH253117   7.413   5.240   0.128
 9713TIP3    H153118   7.426   5.334   0.146
 9713TIP3    H253119   7.505   5.208   0.126
 9714TIP3   OH253120   5.705   4.923   1.380
 9714TIP3    H153121   5.662   4.915   1.293
 9714TIP3    H253122   5.715   4.829   1.401
 9715TIP3   OH253123   5.682   5.197   1.056
 9715TIP3    H153124   5.778   5.185   1.054
 9715TIP3    H253125   5.674   5.279   1.106
 9716TIP3   OH253126   7.506   5.267   1.625
 9716TIP3    H153127   7.495   5.170   1.623
 9716TIP3    H253128   7.420   5.291   1.664
 9717TIP3   OH253129   6.601   5.221   1.512
 9717TIP3    H153130   6.607   5.305   1.562
 9717TIP3    H253131   6.514   5.184   1.537
 9718TIP3   OH253132   6.645   5.596   0.491
 9718TIP3    H153133   6.636   5.590   0.395
 9718TIP3    H253134   6.649   5.692   0.507
 9719TIP3   OH253135   6.010   5.484   0.672
 9719TIP3    H153136   6.025   5.443   0.761
 9719TIP3    H253137   5.925   5.442   0.649
 9720TIP3   OH253138   6.946   5.512   0.197
 9720TIP3    H153139   7.001   5.443   0.153
 9720TIP3    H253140   6.958   5.487   0.290
 9721TIP3   OH253141   6.920   5.510   0.468
 9721TIP3    H153142   6.824   5.518   0.486
 9721TIP3    H253143   6.944   5.436   0.525
 9722TIP3   OH253144   7.215   4.414   1.674
 9722TIP3    H153145   7.171   4.458   1.599
 9722TIP3    H253146   7.222   4.322   1.642
 9723TIP3   OH253147   5.935   5.055   1.473
 9723TIP3    H153148   5.957   5.019   1.561
 9723TIP3    H253149   5.848   5.015   1.452
 9724TIP3   OH253150   6.204   3.903   1.067
 9724TIP3    H153151   6.113   3.889   1.031
 9724TIP3    H253152   6.189   3.985   1.117
 9725TIP3   OH253153   6.668   3.868   1.403
 9725TIP3    H153154   6.707   3.826   1.482
 9725TIP3    H253155   6.571   3.858   1.418
 9726TIP3   OH253156   6.991   4.253   1.490
 9726TIP3    H153157   6.938   4.232   1.571
 9726TIP3    H253158   6.977   4.348   1.472
 9727TIP3   OH253159   7.079   4.719   0.089
 9727TIP3    H153160   7.065   4.731  -0.006
 9727TIP3    H253161   7.156   4.778   0.097
 9728TIP3   OH253162   6.632   4.128   0.138
 9728TIP3    H153163   6.597   4.121   0.228
 9728TIP3    H253164   6.602   4.042   0.105
 9729TIP3   OH253165   6.214   4.401   1.194
 9729TIP3    H153166   6.139   4.400   1.258
 9729TIP3    H253167   6.208   4.491   1.156
 9730TIP3   OH253168   6.209   4.410   0.682
 9730TIP3    H153169   6.115   4.387   0.667
 9730TIP3    H253170   6.246   4.383   0.596
 9731TIP3   OH253171   6.761   4.461   0.554
 9731TIP3    H153172   6.723   4.545   0.519
 9731TIP3    H253173   6.831   4.444   0.488
 9732TIP3   OH253174   6.666   4.483   1.700
 9732TIP3    H153175   6.614   4.405   1.730
 9732TIP3    H253176   6.750   4.472   1.747
 9733TIP3   OH253177   6.865   4.412   0.841
 9733TIP3    H153178   6.836   4.468   0.768
 9733TIP3    H253179   6.874   4.327   0.795
 9734TIP3   OH253180   5.972   4.424   1.360
 9734TIP3    H153181   5.985   4.465   1.447
 9734TIP3    H253182   5.931   4.339   1.382
 9735TIP3   OH253183   6.316   4.074   0.062
 9735TIP3    H153184   6.276   4.096   0.147
 9735TIP3    H253185   6.262   4.139   0.014
 9736TIP3   OH253186   5.641   4.131   0.761
 9736TIP3    H153187   5.710   4.132   0.831
 9736TIP3    H253188   5.689   4.101   0.682
 9737TIP3   OH253189   5.768   4.207   0.295
 9737TIP3    H153190   5.819   4.269   0.239
 9737TIP3    H253191   5.699   4.268   0.329
 9738TIP3   OH253192   6.784   4.569   1.295
 9738TIP3    H153193   6.823   4.500   1.238
 9738TIP3    H253194   6.737   4.516   1.362
 9739TIP3   OH253195   6.465   4.168   0.780
 9739TIP3    H153196   6.372   4.167   0.808
 9739TIP3    H253197   6.513   4.149   0.862
 9740TIP3   OH253198   5.944   4.321   0.668
 9740TIP3    H153199   5.857   4.338   0.627
 9740TIP3    H253200   5.973   4.238   0.626
 9741TIP3   OH253201   6.308   4.329   0.434
 9741TIP3    H153202   6.404   4.337   0.447
 9741TIP3    H253203   6.285   4.394   0.365
 9742TIP3   OH253204   6.906   4.091   1.103
 9742TIP3    H153205   6.838   4.095   1.174
 9742TIP3    H253206   6.854   4.064   1.025
 9743TIP3   OH253207   6.174   4.456   0.193
 9743TIP3    H153208   6.128   4.405   0.123
 9743TIP3    H253209   6.259   4.462   0.147
 9744TIP3   OH253210   7.225   5.655   1.736
 9744TIP3    H153211   7.252   5.692   1.650
 9744TIP3    H253212   7.297   5.686   1.792
 9745TIP3   OH253213   5.992   4.902   1.694
 9745TIP3    H153214   6.065   4.926   1.754
 9745TIP3    H253215   5.915   4.908   1.755
 9746TIP3   OH253216   6.592   4.443   0.969
 9746TIP3    H153217   6.653   4.390   0.916
 9746TIP3    H253218   6.578   4.388   1.047
 9747TIP3   OH253219   6.093   4.056   0.616
 9747TIP3    H153220   6.062   3.964   0.613
 9747TIP3    H253221   6.171   4.049   0.558
 9748TIP3   OH253222   6.456   4.275   1.211
 9748TIP3    H153223   6.374   4.327   1.219
 9748TIP3    H253224   6.512   4.311   1.282
 9749TIP3   OH253225   6.516   4.894   0.382
 9749TIP3    H153226   6.435   4.850   0.347
 9749TIP3    H253227   6.491   4.910   0.475
 9750TIP3   OH253228   7.235   4.819   1.261
 9750TIP3    H153229   7.290   4.867   1.196
 9750TIP3    H253230   7.149   4.822   1.215
 9751TIP3   OH253231   6.900   4.186   0.184
 9751TIP3    H153232   6.803   4.190   0.187
 9751TIP3    H253233   6.933   4.262   0.237
 9752TIP3   OH253234   6.665   4.926   1.505
 9752TIP3    H153235   6.630   4.882   1.583
 9752TIP3    H253236   6.638   5.017   1.517
 9753TIP3   OH253237   6.970   4.372   0.365
 9753TIP3    H153238   7.060   4.355   0.400
 9753TIP3    H253239   6.982   4.453   0.313
 9754TIP3   OH253240   6.027   4.838   0.961
 9754TIP3    H153241   6.094   4.829   0.890
 9754TIP3    H253242   6.032   4.752   1.006
 9755TIP3   OH253243   6.725   5.044   0.285
 9755TIP3    H153244   6.689   5.129   0.317
 9755TIP3    H253245   6.651   4.983   0.305
 9756TIP3   OH253246   5.726   4.678   1.486
 9756TIP3    H153247   5.742   4.633   1.572
 9756TIP3    H253248   5.665   4.617   1.442
 9757TIP3   OH253249   6.427   4.634   1.703
 9757TIP3    H153250   6.394   4.601   1.618
 9757TIP3    H253251   6.519   4.600   1.703
 9758TIP3   OH253252   6.896   5.172   1.498
 9758TIP3    H153253   6.802   5.184   1.478
 9758TIP3    H253254   6.893   5.196   1.593
 9759TIP3   OH253255   7.464   4.383   0.337
 9759TIP3    H153256   7.401   4.355   0.267
 9759TIP3    H253257   7.468   4.479   0.314
 9760TIP3   OH253258   7.461   4.971   1.618
 9760TIP3    H153259   7.371   4.993   1.582
 9760TIP3    H253260   7.515   4.966   1.537
 9761TIP3   OH253261   7.297   5.266   0.380
 9761TIP3    H153262   7.255   5.185   0.410
 9761TIP3    H253263   7.319   5.249   0.286
 9762TIP3   OH253264   7.013   4.749   1.089
 9762TIP3    H153265   6.919   4.728   1.077
 9762TIP3    H253266   7.056   4.674   1.044
 9763TIP3   OH253267   6.263   5.182   0.699
 9763TIP3    H153268   6.313   5.263   0.679
 9763TIP3    H253269   6.176   5.205   0.666
 9764TIP3   OH253270   5.838   4.668   0.149
 9764TIP3    H153271   5.898   4.727   0.199
 9764TIP3    H253272   5.751   4.697   0.183
 9765TIP3   OH253273   6.405   4.949   0.650
 9765TIP3    H153274   6.372   5.041   0.659
 9765TIP3    H253275   6.334   4.899   0.696
 9766TIP3   OH253276   6.450   5.367   1.292
 9766TIP3    H153277   6.495   5.448   1.264
 9766TIP3    H253278   6.510   5.333   1.360
 9767TIP3   OH253279   6.274   5.447   0.606
 9767TIP3    H153280   6.178   5.462   0.617
 9767TIP3    H253281   6.310   5.533   0.636
 9768TIP3   OH253282   6.801   4.967   1.252
 9768TIP3    H153283   6.771   4.948   1.343
 9768TIP3    H253284   6.866   4.896   1.236
 9769TIP3   OH253285   7.030   5.071   0.163
 9769TIP3    H153286   7.067   5.028   0.242
 9769TIP3    H253287   6.936   5.054   0.178
 9770TIP3   OH253288   7.085   5.425   1.502
 9770TIP3    H153289   7.015   5.374   1.457
 9770TIP3    H253290   7.103   5.496   1.437
 9771TIP3   OH253291   7.484   5.511   0.189
 9771TIP3    H153292   7.554   5.575   0.170
 9771TIP3    H253293   7.411   5.572   0.215
 9772TIP3   OH253294   5.890   4.151   1.441
 9772TIP3    H153295   5.800   4.186   1.440
 9772TIP3    H253296   5.880   4.066   1.488
 9773TIP3   OH253297   7.114   4.939   0.392
 9773TIP3    H153298   7.090   4.858   0.442
 9773TIP3    H253299   7.210   4.939   0.403
 9774TIP3   OH253300   5.852   5.328   1.284
 9774TIP3    H153301   5.884   5.237   1.285
 9774TIP3    H253302   5.878   5.358   1.371
 9775TIP3   OH253303   6.324   5.137   0.258
 9775TIP3    H153304   6.358   5.084   0.332
 9775TIP3    H253305   6.336   5.229   0.290
 9776TIP3   OH253306   5.977   4.860   0.303
 9776TIP3    H153307   5.908   4.900   0.360
 9776TIP3    H253308   6.033   4.936   0.280
 9777TIP3   OH253309   6.764   4.128   1.339
 9777TIP3    H153310   6.836   4.135   1.403
 9777TIP3    H253311   6.726   4.041   1.360
 9778TIP3   OH253312   6.837   4.085   0.448
 9778TIP3    H153313   6.863   4.131   0.368
 9778TIP3    H253314   6.895   4.128   0.513
 9779TIP3   OH253315   6.604   5.299   0.324
 9779TIP3    H153316   6.525   5.355   0.340
 9779TIP3    H253317   6.661   5.354   0.269
 9780TIP3   OH253318   6.561   4.260   0.529
 9780TIP3    H153319   6.639   4.319   0.532
 9780TIP3    H253320   6.535   4.248   0.623
 9781TIP3   OH253321   6.617   4.363   1.448
 9781TIP3    H153322   6.624   4.418   1.529
 9781TIP3    H253323   6.683   4.293   1.457
 9782TIP3   OH253324   6.646   3.965   0.615
 9782TIP3    H153325   6.613   4.029   0.680
 9782TIP3    H253326   6.715   4.020   0.571
 9783TIP3   OH253327   6.344   5.406   0.333
 9783TIP3    H153328   6.360   5.488   0.280
 9783TIP3    H253329   6.318   5.441   0.420
 9784TIP3   OH253330   6.208   4.077   0.303
 9784TIP3    H153331   6.208   4.171   0.327
 9784TIP3    H253332   6.302   4.053   0.314
 9785TIP3   OH253333   7.233   4.150   1.533
 9785TIP3    H153334   7.140   4.182   1.519
 9785TIP3    H253335   7.264   4.148   1.441
 9786TIP3   OH253336   7.096   4.528   0.932
 9786TIP3    H153337   7.013   4.483   0.905
 9786TIP3    H253338   7.145   4.460   0.983
 9787TIP3   OH253339   6.038   5.119   0.193
 9787TIP3    H153340   6.104   5.182   0.226
 9787TIP3    H253341   6.087   5.075   0.122
 9788TIP3   OH253342   5.869   4.388   0.108
 9788TIP3    H153343   5.870   4.485   0.126
 9788TIP3    H253344   5.780   4.372   0.075
 9789TIP3   OH253345   7.203   5.460   1.097
 9789TIP3    H153346   7.208   5.523   1.022
 9789TIP3    H253347   7.301   5.456   1.117
 9790TIP3   OH253348   5.951   3.866   0.982
 9790TIP3    H153349   5.933   3.868   0.885
 9790TIP3    H253350   5.910   3.781   1.006
 9791TIP3   OH253351   5.846   5.260   0.596
 9791TIP3    H153352   5.759   5.303   0.590
 9791TIP3    H253353   5.892   5.304   0.523
 9792TIP3   OH253354   5.765   5.524   1.723
 9792TIP3    H153355   5.827   5.505   1.797
 9792TIP3    H253356   5.727   5.436   1.705
 9793TIP3   OH253357   6.236   5.416   1.883
 9793TIP3    H153358   6.311   5.365   1.917
 9793TIP3    H253359   6.233   5.387   1.790
 9794TIP3   OH253360   6.655   5.377   0.051
 9794TIP3    H153361   6.585   5.313   0.068
 9794TIP3    H253362   6.725   5.327   0.008
 9795TIP3   OH253363   6.885   5.254   1.760
 9795TIP3    H153364   6.853   5.166   1.788
 9795TIP3    H253365   6.962   5.266   1.819
 9796TIP3   OH253366   7.127   5.335   0.099
 9796TIP3    H153367   7.139   5.239   0.097
 9796TIP3    H253368   7.159   5.365   0.012
 9797TIP3   OH253369   5.757   4.901   1.823
 9797TIP3    H153370   5.774   4.810   1.794
 9797TIP3    H253371   5.684   4.926   1.765
 9798TIP3   OH253372   6.178   4.918   0.026
 9798TIP3    H153373   6.209   4.851   0.089
 9798TIP3    H253374   6.256   4.925  -0.032
 9799TIP3   OH253375   6.430   4.900   1.761
 9799TIP3    H153376   6.396   4.932   1.675
 9799TIP3    H253377   6.436   4.802   1.750
 9800TIP3   OH253378   6.999   4.885   1.501
 9800TIP3    H153379   7.078   4.943   1.496
 9800TIP3    H253380   6.929   4.953   1.504
 9801TIP3   OH253381   5.849   4.623   1.761
 9801TIP3    H153382   5.893   4.538   1.753
 9801TIP3    H253383   5.828   4.625   1.856
 9802TIP3   OH253384   6.314   4.740   0.267
 9802TIP3    H153385   6.264   4.685   0.329
 9802TIP3    H253386   6.346   4.671   0.203
 9803TIP3   OH253387   6.240   4.517   1.496
 9803TIP3    H153388   6.180   4.590   1.521
 9803TIP3    H253389   6.280   4.555   1.416
 9804TIP3   OH253390   6.424   4.563   0.094
 9804TIP3    H153391   6.402   4.548  -0.000
 9804TIP3    H253392   6.521   4.569   0.096
 9805TIP3   OH253393   6.748   4.775   1.831
 9805TIP3    H153394   6.844   4.772   1.819
 9805TIP3    H253395   6.730   4.698   1.887
 9806TIP3   OH253396   7.356   4.788  11.012
 9806TIP3    H153397   7.332   4.753  10.927
 9806TIP3    H253398   7.359   4.884  10.993
 9807TIP3   OH253399   6.281   4.255   1.601
 9807TIP3    H153400   6.292   4.185   1.534
 9807TIP3    H253401   6.276   4.337   1.547
 9808TIP3   OH253402   6.321   4.094   1.358
 9808TIP3    H153403   6.372   4.140   1.287
 9808TIP3    H253404   6.232   4.086   1.318
 9809TIP3   OH253405   6.475   4.644   1.382
 9809TIP3    H153406   6.550   4.627   1.325
 9809TIP3    H253407   6.438   4.727   1.347
 9810TIP3   OH253408   6.914   4.417   1.877
 9810TIP3    H153409   6.939   4.324   1.868
 9810TIP3    H253410   7.000   4.462   1.881
 9811TIP3   OH253411   7.050   4.698   1.695
 9811TIP3    H153412   7.024   4.769   1.633
 9811TIP3    H253413   7.145   4.695   1.677
 9812TIP3   OH253414   6.127   4.381   1.794
 9812TIP3    H153415   6.050   4.323   1.778
 9812TIP3    H253416   6.192   4.344   1.731
 9813TIP3   OH253417   6.400   3.838   1.395
 9813TIP3    H153418   6.380   3.934   1.386
 9813TIP3    H253419   6.325   3.800   1.345
 9814TIP3   OH253420   6.527   4.270   1.760
 9814TIP3    H153421   6.495   4.247   1.849
 9814TIP3    H253422   6.449   4.250   1.705
 9815TIP3   OH253423   6.799   4.185   1.670
 9815TIP3    H153424   6.703   4.191   1.680
 9815TIP3    H253425   6.825   4.120   1.739
 9816TIP3   OH253426   6.959   4.047   1.858
 9816TIP3    H153427   6.953   3.949   1.861
 9816TIP3    H253428   6.933   4.076   1.947
 9817TIP3   OH253429   5.935   4.175   1.770
 9817TIP3    H153430   5.959   4.101   1.712
 9817TIP3    H253431   5.925   4.131   1.857
 9818TIP3   OH253432   6.421   3.778   1.666
 9818TIP3    H153433   6.489   3.707   1.665
 9818TIP3    H253434   6.410   3.790   1.570
 9819TIP3   OH253435   6.458   3.938   1.879
 9819TIP3    H153436   6.440   3.887   1.796
 9819TIP3    H253437   6.398   4.015   1.869
 9820TIP3   OH253438   6.404   5.634   0.199
 9820TIP3    H153439   6.502   5.640   0.203
 9820TIP3    H253440   6.384   5.695   0.127
 9821TIP3   OH253441   5.767   5.085   0.144
 9821TIP3    H153442   5.863   5.098   0.162
 9821TIP3    H253443   5.769   5.028   0.067
 9822TIP3   OH253444   5.638   5.625   0.639
 9822TIP3    H153445   5.565   5.576   0.593
 9822TIP3    H253446   5.665   5.560   0.706
 9823TIP3   OH253447   5.720   5.439   0.827
 9823TIP3    H153448   5.684   5.352   0.847
 9823TIP3    H253449   5.743   5.472   0.916
 9824TIP3   OH253450   7.463   5.525   1.121
 9824TIP3    H153451   7.481   5.533   1.216
 9824TIP3    H253452   7.542   5.571   1.088
 9825TIP3   OH253453   7.428   5.478   1.413
 9825TIP3    H153454   7.385   5.399   1.376
 9825TIP3    H253455   7.479   5.436   1.484
 9826TIP3   OH253456   7.276   5.051   1.882
 9826TIP3    H153457   7.185   5.048   1.918
 9826TIP3    H253458   7.313   5.130   1.924
 9827TIP3   OH253459   7.410   4.882   0.423
 9827TIP3    H153460   7.495   4.923   0.446
 9827TIP3    H253461   7.405   4.812   0.492
 9828TIP3   OH253462   7.440   4.691   0.612
 9828TIP3    H153463   7.366   4.641   0.652
 9828TIP3    H253464   7.501   4.702   0.688
 9829TIP3   OH253465   7.417   4.960   1.111
 9829TIP3    H153466   7.499   4.921   1.074
 9829TIP3    H253467   7.433   5.055   1.094
 9830TIP3   OH253468   7.274   5.253   1.336
 9830TIP3    H153469   7.207   5.282   1.399
 9830TIP3    H253470   7.221   5.208   1.267
 9831TIP3   OH253471   7.474   4.674   0.245
 9831TIP3    H153472   7.411   4.709   0.179
 9831TIP3    H253473   7.462   4.741   0.315
 9832TIP3   OH253474   7.318   4.400   0.100
 9832TIP3    H153475   7.307   4.466   0.032
 9832TIP3    H253476   7.287   4.317   0.060
 9833TIP3   OH253477   7.225   4.538   0.671
 9833TIP3    H153478   7.211   4.442   0.666
 9833TIP3    H253479   7.193   4.558   0.761
 9834TIP3   OH253480   5.725   4.746   1.077
 9834TIP3    H153481   5.742   4.738   0.981
 9834TIP3    H253482   5.815   4.729   1.111
 9835TIP3   OH253483   7.311   4.736   1.638
 9835TIP3    H153484   7.372   4.660   1.651
 9835TIP3    H253485   7.372   4.813   1.639
 9836TIP3   OH253486   7.461   4.523   1.702
 9836TIP3    H153487   7.374   4.480   1.689
 9836TIP3    H253488   7.524   4.448   1.700
 9837TIP3   OH253489   7.213   4.131   0.127
 9837TIP3    H153490   7.298   4.094   0.096
 9837TIP3    H253491   7.157   4.102   0.054
 9838TIP3   OH253492   7.189   4.297   0.515
 9838TIP3    H153493   7.219   4.203   0.526
 9838TIP3    H253494   7.269   4.336   0.477
 9839TIP3   OH253495   7.256   4.351   1.061
 9839TIP3    H153496   7.352   4.373   1.059
 9839TIP3    H253497   7.238   4.365   1.155
 9840TIP3   OH253498   7.262   4.423   1.338
 9840TIP3    H153499   7.173   4.452   1.368
 9840TIP3    H253500   7.306   4.508   1.316
 9841TIP3   OH253501   5.688   4.278   1.693
 9841TIP3    H153502   5.782   4.256   1.711
 9841TIP3    H253503   5.642   4.195   1.718
 9842TIP3   OH253504   7.493   3.830   1.874
 9842TIP3    H153505   7.525   3.763   1.812
 9842TIP3    H253506   7.499   3.911   1.818
 9843TIP3   OH253507   7.257   4.027   0.521
 9843TIP3    H153508   7.282   3.982   0.605
 9843TIP3    H253509   7.199   3.962   0.477
 9844TIP3   OH253510   5.807   4.107   0.978
 9844TIP3    H153511   5.853   4.023   1.001
 9844TIP3    H253512   5.865   4.175   1.015
 9845TIP3   OH253513   5.634   4.409   1.080
 9845TIP3    H153514   5.692   4.381   1.006
 9845TIP3    H253515   5.685   4.487   1.106
 9846TIP3   OH253516   7.432   4.024   1.715
 9846TIP3    H153517   7.346   4.067   1.699
 9846TIP3    H253518   7.446   3.986   1.627
 9847TIP3   OH253519   7.451   4.027   0.173
 9847TIP3    H153520   7.492   3.957   0.122
 9847TIP3    H253521   7.518   4.094   0.190
 9848TIP3   OH253522   5.667   4.028   0.487
 9848TIP3    H153523   5.576   4.055   0.470
 9848TIP3    H253524   5.715   4.080   0.420
 9849TIP3   OH253525   7.146   5.525   0.685
 9849TIP3    H153526   7.211   5.497   0.617
 9849TIP3    H253527   7.200   5.578   0.744
 9850TIP3   OH253528   5.667   3.898   1.317
 9850TIP3    H153529   5.600   3.878   1.385
 9850TIP3    H253530   5.621   3.965   1.262
 9851TIP3   OH253531   5.892   5.216   1.733
 9851TIP3    H153532   5.808   5.239   1.689
 9851TIP3    H253533   5.865   5.209   1.824
 9852TIP3   OH253534   6.181   5.318   1.362
 9852TIP3    H153535   6.150   5.406   1.334
 9852TIP3    H253536   6.274   5.326   1.331
 9853TIP3   OH253537   6.613   5.461   1.651
 9853TIP3    H153538   6.625   5.425   1.742
 9853TIP3    H253539   6.703   5.491   1.629
 9854TIP3   OH253540   6.843   5.589   1.579
 9854TIP3    H153541   6.916   5.528   1.561
 9854TIP3    H253542   6.877   5.632   1.662
 9855TIP3   OH253543   7.344   3.849   1.494
 9855TIP3    H153544   7.262   3.878   1.453
 9855TIP3    H253545   7.362   3.767   1.443
 9856TIP3   OH253546   5.924   5.641   1.359
 9856TIP3    H153547   5.851   5.692   1.320
 9856TIP3    H253548   5.894   5.623   1.449
 9857TIP3   OH253549   6.170   5.599   1.267
 9857TIP3    H153550   6.081   5.615   1.306
 9857TIP3    H253551   6.166   5.658   1.190
 9858TIP3   OH253552   6.647   5.592   1.181
 9858TIP3    H153553   6.593   5.646   1.120
 9858TIP3    H253554   6.652   5.653   1.258
 9859TIP3   OH253555   6.867   5.471   1.287
 9859TIP3    H153556   6.777   5.497   1.259
 9859TIP3    H253557   6.905   5.559   1.306
 9860TIP3   OH253558   7.114   5.629   1.299
 9860TIP3    H153559   7.127   5.727   1.290
 9860TIP3    H253560   7.171   5.596   1.227
 9861TIP3   OH253561   5.871   5.507   1.054
 9861TIP3    H153562   5.862   5.460   1.140
 9861TIP3    H253563   5.952   5.467   1.016
 9862TIP3   OH253564   6.078   5.377   0.920
 9862TIP3    H153565   6.062   5.284   0.944
 9862TIP3    H253566   6.163   5.394   0.964
 9863TIP3   OH253567   6.338   5.426   1.008
 9863TIP3    H153568   6.353   5.333   0.982
 9863TIP3    H253569   6.343   5.420   1.105
 9864TIP3   OH253570   6.682   3.991   0.919
 9864TIP3    H153571   6.615   3.927   0.950
 9864TIP3    H253572   6.738   3.936   0.863
 9865TIP3   OH253573   7.197   3.795   0.926
 9865TIP3    H153574   7.258   3.855   0.876
 9865TIP3    H253575   7.108   3.831   0.904
 9866TIP3   OH253576   7.363   3.921   0.754
 9866TIP3    H153577   7.432   3.863   0.713
 9866TIP3    H253578   7.415   4.004   0.766
 9867TIP3   OH253579   5.920   3.852   0.709
 9867TIP3    H153580   5.844   3.835   0.652
 9867TIP3    H253581   5.968   3.767   0.701
 9868TIP3   OH253582   5.798   3.829   0.286
 9868TIP3    H153583   5.844   3.893   0.227
 9868TIP3    H253584   5.743   3.888   0.339
 9869TIP3   OH253585   6.366   3.846   0.685
 9869TIP3    H153586   6.456   3.881   0.676
 9869TIP3    H253587   6.364   3.824   0.778
 9870TIP3   OH253588   6.940   3.848   0.847
 9870TIP3    H153589   6.933   3.860   0.751
 9870TIP3    H253590   6.901   3.758   0.860
 9871TIP3   OH253591   7.065   3.850   0.413
 9871TIP3    H153592   6.991   3.910   0.400
 9871TIP3    H253593   7.021   3.765   0.434
 9872TIP3   OH253594   5.790   5.425   0.376
 9872TIP3    H153595   5.717   5.426   0.311
 9872TIP3    H253596   5.791   5.519   0.397
 9873TIP3   OH253597   5.978   4.016   0.135
 9873TIP3    H153598   6.036   3.961   0.081
 9873TIP3    H253599   6.045   4.060   0.191
 9874TIP3   OH253600   6.487   4.047   0.365
 9874TIP3    H153601   6.508   3.990   0.441
 9874TIP3    H253602   6.491   4.133   0.414
 9875TIP3   OH253603   6.673   5.568   0.217
 9875TIP3    H153604   6.768   5.578   0.201
 9875TIP3    H253605   6.654   5.508   0.141
 9876TIP3   OH253606   7.344   5.507   0.485
 9876TIP3    H153607   7.324   5.427   0.430
 9876TIP3    H253608   7.337   5.580   0.419
 9877TIP3   OH253609   5.908   3.908   1.651
 9877TIP3    H153610   5.868   3.828   1.690
 9877TIP3    H253611   5.999   3.903   1.690
 9878TIP3   OH253612   6.108   3.847   1.817
 9878TIP3    H153613   6.197   3.813   1.795
 9878TIP3    H253614   6.071   3.766   1.856
 9879TIP3   OH253615   5.967   5.516   0.074
 9879TIP3    H153616   5.940   5.550   0.160
 9879TIP3    H253617   6.048   5.467   0.093
 9880TIP3   OH253618   6.948   3.774   1.831
 9880TIP3    H153619   6.959   3.728   1.916
 9880TIP3    H253620   7.039   3.772   1.796
 9881TIP3   OH253621   7.270   5.380   1.694
 9881TIP3    H153622   7.190   5.365   1.640
 9881TIP3    H253623   7.257   5.475   1.715
 9882TIP3   OH253624   7.832   4.663   1.198
 9882TIP3    H153625   7.844   4.591   1.264
 9882TIP3    H253626   7.911   4.714   1.218
 9883TIP3   OH253627   7.908   5.092   1.062
 9883TIP3    H153628   7.892   5.009   1.014
 9883TIP3    H253629   8.006   5.095   1.055
 9884TIP3   OH253630   7.588   4.460   0.595
 9884TIP3    H153631   7.547   4.548   0.589
 9884TIP3    H253632   7.530   4.407   0.539
 9885TIP3   OH253633   7.663   4.684   0.811
 9885TIP3    H153634   7.690   4.602   0.856
 9885TIP3    H253635   7.733   4.694   0.745
 9886TIP3   OH253636   7.724   4.427   0.916
 9886TIP3    H153637   7.794   4.377   0.961
 9886TIP3    H253638   7.742   4.399   0.824
 9887TIP3   OH253639   7.935   4.076   1.241
 9887TIP3    H153640   7.924   4.141   1.168
 9887TIP3    H253641   7.878   4.110   1.313
 9888TIP3   OH253642   7.901   4.250   1.039
 9888TIP3    H153643   7.955   4.323   1.081
 9888TIP3    H253644   7.960   4.221   0.968
 9889TIP3   OH253645   8.033   5.079   1.353
 9889TIP3    H153646   8.025   5.165   1.312
 9889TIP3    H253647   7.947   5.059   1.396
 9890TIP3   OH253648   7.665   5.004   0.430
 9890TIP3    H153649   7.638   5.037   0.342
 9890TIP3    H253650   7.665   5.086   0.483
 9891TIP3   OH253651   7.898   4.714   1.476
 9891TIP3    H153652   7.906   4.773   1.552
 9891TIP3    H253653   7.803   4.718   1.459
 9892TIP3   OH253654   8.038   5.298   1.640
 9892TIP3    H153655   8.033   5.284   1.545
 9892TIP3    H253656   7.944   5.285   1.665
 9893TIP3   OH253657   7.980   4.683   0.484
 9893TIP3    H153658   7.952   4.763   0.435
 9893TIP3    H253659   7.911   4.619   0.466
 9894TIP3   OH253660   7.589   4.923   1.380
 9894TIP3    H153661   7.548   4.915   1.293
 9894TIP3    H253662   7.603   4.829   1.401
 9895TIP3   OH253663   7.568   5.198   1.058
 9895TIP3    H153664   7.664   5.186   1.054
 9895TIP3    H253665   7.562   5.281   1.106
 9896TIP3   OH253666   7.883   5.475   0.675
 9896TIP3    H153667   7.900   5.436   0.763
 9896TIP3    H253668   7.797   5.434   0.654
 9897TIP3   OH253669   7.809   5.060   1.479
 9897TIP3    H153670   7.839   5.014   1.562
 9897TIP3    H253671   7.728   5.012   1.452
 9898TIP3   OH253672   7.860   4.427   1.362
 9898TIP3    H153673   7.864   4.464   1.451
 9898TIP3    H253674   7.822   4.340   1.382
 9899TIP3   OH253675   7.524   4.133   0.760
 9899TIP3    H153676   7.592   4.131   0.831
 9899TIP3    H253677   7.572   4.100   0.682
 9900TIP3   OH253678   7.650   4.208   0.289
 9900TIP3    H153679   7.706   4.272   0.243
 9900TIP3    H253680   7.582   4.268   0.328
 9901TIP3   OH253681   7.827   4.327   0.664
 9901TIP3    H153682   7.738   4.335   0.627
 9901TIP3    H253683   7.860   4.239   0.636
 9902TIP3   OH253684   7.877   4.915   1.691
 9902TIP3    H153685   7.946   4.924   1.755
 9902TIP3    H253686   7.798   4.911   1.750
 9903TIP3   OH253687   7.929   4.052   0.593
 9903TIP3    H153688   7.925   3.958   0.621
 9903TIP3    H253689   8.026   4.060   0.586
 9904TIP3   OH253690   7.907   4.837   0.953
 9904TIP3    H153691   7.984   4.832   0.894
 9904TIP3    H253692   7.917   4.756   1.006
 9905TIP3   OH253693   7.612   4.677   1.488
 9905TIP3    H153694   7.628   4.632   1.573
 9905TIP3    H253695   7.550   4.615   1.445
 9906TIP3   OH253696   7.728   4.668   0.153
 9906TIP3    H153697   7.783   4.732   0.202
 9906TIP3    H253698   7.638   4.696   0.184
 9907TIP3   OH253699   7.774   4.150   1.445
 9907TIP3    H153700   7.684   4.185   1.438
 9907TIP3    H253701   7.761   4.064   1.490
 9908TIP3   OH253702   7.744   5.329   1.281
 9908TIP3    H153703   7.760   5.234   1.288
 9908TIP3    H253704   7.761   5.360   1.371
 9909TIP3   OH253705   7.867   4.862   0.298
 9909TIP3    H153706   7.797   4.897   0.357
 9909TIP3    H253707   7.919   4.943   0.282
 9910TIP3   OH253708   7.919   5.119   0.194
 9910TIP3    H153709   7.982   5.185   0.226
 9910TIP3    H253710   7.974   5.082   0.123
 9911TIP3   OH253711   7.756   4.388   0.104
 9911TIP3    H153712   7.757   4.483   0.132
 9911TIP3    H253713   7.662   4.367   0.102
 9912TIP3   OH253714   7.834   3.867   0.982
 9912TIP3    H153715   7.823   3.870   0.885
 9912TIP3    H253716   7.797   3.781   1.007
 9913TIP3   OH253717   7.726   5.259   0.595
 9913TIP3    H153718   7.642   5.306   0.589
 9913TIP3    H253719   7.778   5.303   0.526
 9914TIP3   OH253720   7.650   5.524   1.721
 9914TIP3    H153721   7.710   5.505   1.796
 9914TIP3    H253722   7.611   5.437   1.705
 9915TIP3   OH253723   7.644   4.903   1.822
 9915TIP3    H153724   7.660   4.809   1.796
 9915TIP3    H253725   7.568   4.924   1.765
 9916TIP3   OH253726   7.736   4.654   1.762
 9916TIP3    H153727   7.765   4.562   1.740
 9916TIP3    H253728   7.714   4.631   1.854
 9917TIP3   OH253729   8.037   4.399   1.819
 9917TIP3    H153730   7.948   4.357   1.802
 9917TIP3    H253731   8.079   4.363   1.739
 9918TIP3   OH253732   7.887   4.112   1.778
 9918TIP3    H153733   7.838   4.076   1.701
 9918TIP3    H253734   7.815   4.129   1.842
 9919TIP3   OH253735   7.648   5.084   0.147
 9919TIP3    H153736   7.743   5.098   0.163
 9919TIP3    H253737   7.649   5.027   0.069
 9920TIP3   OH253738   7.522   5.624   0.639
 9920TIP3    H153739   7.449   5.575   0.594
 9920TIP3    H253740   7.552   5.561   0.706
 9921TIP3   OH253741   7.604   5.438   0.827
 9921TIP3    H153742   7.569   5.350   0.847
 9921TIP3    H253743   7.631   5.470   0.915
 9922TIP3   OH253744   7.613   4.753   1.075
 9922TIP3    H153745   7.634   4.737   0.980
 9922TIP3    H253746   7.701   4.729   1.113
 9923TIP3   OH253747   7.546   4.247   1.648
 9923TIP3    H153748   7.635   4.268   1.687
 9923TIP3    H253749   7.514   4.188   1.719
 9924TIP3   OH253750   7.690   4.105   0.977
 9924TIP3    H153751   7.741   4.024   0.997
 9924TIP3    H253752   7.751   4.174   1.010
 9925TIP3   OH253753   7.517   4.408   1.076
 9925TIP3    H153754   7.578   4.381   1.004
 9925TIP3    H253755   7.566   4.485   1.109
 9926TIP3   OH253756   7.556   4.030   0.485
 9926TIP3    H153757   7.462   4.050   0.472
 9926TIP3    H253758   7.597   4.083   0.415
 9927TIP3   OH253759   7.552   3.898   1.319
 9927TIP3    H153760   7.482   3.877   1.384
 9927TIP3    H253761   7.507   3.964   1.262
 9928TIP3   OH253762   7.774   5.219   1.733
 9928TIP3    H153763   7.691   5.239   1.688
 9928TIP3    H253764   7.745   5.207   1.824
 9929TIP3   OH253765   7.809   5.643   1.363
 9929TIP3    H153766   7.736   5.691   1.319
 9929TIP3    H253767   7.772   5.625   1.450
 9930TIP3   OH253768   8.034   5.565   1.237
 9930TIP3    H153769   7.969   5.602   1.301
 9930TIP3    H253770   8.057   5.648   1.193
 9931TIP3   OH253771   7.744   5.506   1.057
 9931TIP3    H153772   7.750   5.461   1.144
 9931TIP3    H253773   7.828   5.473   1.017
 9932TIP3   OH253774   7.944   5.377   0.937
 9932TIP3    H153775   7.938   5.280   0.949
 9932TIP3    H253776   8.034   5.390   0.970
 9933TIP3   OH253777   7.799   3.848   0.708
 9933TIP3    H153778   7.720   3.830   0.654
 9933TIP3    H253779   7.852   3.766   0.705
 9934TIP3   OH253780   7.684   3.828   0.283
 9934TIP3    H153781   7.730   3.894   0.228
 9934TIP3    H253782   7.628   3.884   0.340
 9935TIP3   OH253783   7.676   5.426   0.375
 9935TIP3    H153784   7.602   5.426   0.311
 9935TIP3    H253785   7.678   5.520   0.397
 9936TIP3   OH253786   7.865   4.014   0.134
 9936TIP3    H153787   7.924   3.961   0.079
 9936TIP3    H253788   7.929   4.058   0.192
 9937TIP3   OH253789   7.800   3.903   1.642
 9937TIP3    H153790   7.760   3.830   1.691
 9937TIP3    H253791   7.888   3.906   1.686
 9938TIP3   OH253792   7.994   3.838   1.815
 9938TIP3    H153793   8.082   3.809   1.790
 9938TIP3    H253794   7.956   3.759   1.858
 9939TIP3   OH253795   7.854   5.523   0.074
 9939TIP3    H153796   7.827   5.553   0.163
 9939TIP3    H253797   7.932   5.470   0.090
 9940TIP3   OH253798   1.174   6.654   0.688
 9940TIP3    H153799   1.170   6.752   0.688
 9940TIP3    H253800   1.099   6.630   0.632
 9941TIP3   OH253801   1.058   6.578   1.040
 9941TIP3    H153802   1.056   6.514   1.114
 9941TIP3    H253803   1.021   6.526   0.967
 9942TIP3   OH253804   0.307   6.537   1.187
 9942TIP3    H153805   0.299   6.477   1.265
 9942TIP3    H253806   0.368   6.605   1.221
 9943TIP3   OH253807   1.425   6.873   0.871
 9943TIP3    H153808   1.384   6.802   0.920
 9943TIP3    H253809   1.428   6.944   0.938
 9944TIP3   OH253810   0.383   6.991   1.043
 9944TIP3    H153811   0.353   6.902   1.017
 9944TIP3    H253812   0.478   6.974   1.049
 9945TIP3   OH253813   0.054   6.348   0.587
 9945TIP3    H153814   0.010   6.435   0.592
 9945TIP3    H253815  -0.011   6.293   0.545
 9946TIP3   OH253816   0.120   6.566   0.810
 9946TIP3    H153817   0.146   6.484   0.856
 9946TIP3    H253818   0.189   6.577   0.743
 9947TIP3   OH253819   1.137   7.389   0.894
 9947TIP3    H153820   1.203   7.321   0.866
 9947TIP3    H253821   1.115   7.355   0.980
 9948TIP3   OH253822   0.893   6.815   1.095
 9948TIP3    H153823   0.926   6.757   1.025
 9948TIP3    H253824   0.978   6.835   1.139
 9949TIP3   OH253825   1.754   5.985   1.160
 9949TIP3    H153826   1.772   6.043   1.237
 9949TIP3    H253827   1.812   6.026   1.095
 9950TIP3   OH253828   1.212   6.265   1.121
 9950TIP3    H153829   1.229   6.169   1.122
 9950TIP3    H253830   1.201   6.279   1.025
 9951TIP3   OH253831   0.523   6.075   0.842
 9951TIP3    H153832   0.533   6.159   0.793
 9951TIP3    H253833   0.485   6.017   0.772
 9952TIP3   OH253834   1.296   6.081   0.678
 9952TIP3    H153835   1.361   6.051   0.746
 9952TIP3    H253836   1.353   6.139   0.625
 9953TIP3   OH253837   0.196   6.316   0.914
 9953TIP3    H153838   0.258   6.256   0.960
 9953TIP3    H253839   0.198   6.282   0.823
 9954TIP3   OH253840   0.699   6.471   0.848
 9954TIP3    H153841   0.768   6.413   0.886
 9954TIP3    H253842   0.649   6.405   0.796
 9955TIP3   OH253843   1.798   6.124   1.389
 9955TIP3    H153844   1.738   6.202   1.377
 9955TIP3    H253845   1.801   6.118   1.485
 9956TIP3   OH253846   0.417   5.964   1.244
 9956TIP3    H153847   0.387   6.022   1.171
 9956TIP3    H253848   0.350   5.985   1.313
 9957TIP3   OH253849   1.141   6.911   0.601
 9957TIP3    H153850   1.114   6.884   0.512
 9957TIP3    H253851   1.111   7.004   0.605
 9958TIP3   OH253852   0.670   6.730   1.279
 9958TIP3    H153853   0.595   6.794   1.287
 9958TIP3    H253854   0.737   6.786   1.236
 9959TIP3   OH253855   1.479   6.017   0.878
 9959TIP3    H153856   1.456   5.940   0.931
 9959TIP3    H253857   1.545   6.060   0.934
 9960TIP3   OH253858   0.375   6.146   1.051
 9960TIP3    H153859   0.434   6.218   1.081
 9960TIP3    H253860   0.426   6.110   0.974
 9961TIP3   OH253861   0.512   6.929   1.354
 9961TIP3    H153862   0.505   7.019   1.316
 9961TIP3    H253863   0.421   6.922   1.391
 9962TIP3   OH253864   0.108   6.891   0.428
 9962TIP3    H153865   0.092   6.924   0.340
 9962TIP3    H253866   0.128   6.970   0.482
 9963TIP3   OH253867   1.479   7.058   1.107
 9963TIP3    H153868   1.382   7.069   1.118
 9963TIP3    H253869   1.506   7.149   1.086
 9964TIP3   OH253870   1.511   5.885   1.245
 9964TIP3    H153871   1.439   5.949   1.235
 9964TIP3    H253872   1.583   5.927   1.194
 9965TIP3   OH253873   0.807   5.698   0.992
 9965TIP3    H153874   0.791   5.602   0.984
 9965TIP3    H253875   0.719   5.729   1.023
 9966TIP3   OH253876   1.306   7.235   0.768
 9966TIP3    H153877   1.347   7.163   0.716
 9966TIP3    H253878   1.350   7.313   0.729
 9967TIP3   OH253879   1.426   7.027   0.619
 9967TIP3    H153880   1.398   6.959   0.556
 9967TIP3    H253881   1.429   6.977   0.703
 9968TIP3   OH253882   1.586   6.889   1.467
 9968TIP3    H153883   1.602   6.823   1.396
 9968TIP3    H253884   1.608   6.972   1.421
 9969TIP3   OH253885   1.037   6.573   0.441
 9969TIP3    H153886   0.970   6.635   0.407
 9969TIP3    H253887   1.109   6.586   0.377
 9970TIP3   OH253888   1.046   6.432   0.146
 9970TIP3    H153889   1.117   6.435   0.212
 9970TIP3    H253890   1.074   6.359   0.091
 9971TIP3   OH253891   1.776   6.520   1.271
 9971TIP3    H153892   1.711   6.592   1.274
 9971TIP3    H253893   1.827   6.543   1.191
 9972TIP3   OH253894   1.384   6.597   0.536
 9972TIP3    H153895   1.309   6.622   0.595
 9972TIP3    H253896   1.431   6.530   0.589
 9973TIP3   OH253897   1.376   6.414   1.448
 9973TIP3    H153898   1.376   6.497   1.500
 9973TIP3    H253899   1.313   6.443   1.379
 9974TIP3   OH253900   0.545   6.664   0.729
 9974TIP3    H153901   0.511   6.624   0.645
 9974TIP3    H253902   0.606   6.594   0.761
 9975TIP3   OH253903   0.674   7.001   0.995
 9975TIP3    H153904   0.675   6.950   0.913
 9975TIP3    H253905   0.753   6.966   1.040
 9976TIP3   OH253906   0.579   6.537   1.096
 9976TIP3    H153907   0.630   6.547   1.014
 9976TIP3    H253908   0.616   6.607   1.154
 9977TIP3   OH253909   1.218   7.096   1.164
 9977TIP3    H153910   1.190   7.160   1.230
 9977TIP3    H253911   1.192   7.011   1.206
 9978TIP3   OH253912   0.663   6.973   1.568
 9978TIP3    H153913   0.632   7.056   1.611
 9978TIP3    H253914   0.606   6.974   1.487
 9979TIP3   OH253915   1.269   6.518   0.302
 9979TIP3    H153916   1.324   6.537   0.382
 9979TIP3    H253917   1.315   6.569   0.231
 9980TIP3   OH253918   0.370   6.600   1.481
 9980TIP3    H153919   0.361   6.667   1.550
 9980TIP3    H253920   0.275   6.602   1.455
 9981TIP3   OH253921   1.039   7.189   0.650
 9981TIP3    H153922   1.086   7.222   0.728
 9981TIP3    H253923   0.985   7.264   0.624
 9982TIP3   OH253924   0.498   7.178   1.639
 9982TIP3    H153925   0.488   7.179   1.542
 9982TIP3    H253926   0.404   7.173   1.666
 9983TIP3   OH253927   1.645   5.690   0.292
 9983TIP3    H153928   1.550   5.699   0.313
 9983TIP3    H253929   1.662   5.774   0.246
 9984TIP3   OH253930   0.445   6.564   0.484
 9984TIP3    H153931   0.411   6.644   0.438
 9984TIP3    H253932   0.377   6.499   0.467
 9985TIP3   OH253933   1.757   7.124   0.129
 9985TIP3    H153934   1.770   7.219   0.146
 9985TIP3    H253935   1.849   7.092   0.124
 9986TIP3   OH253936   0.104   6.766   1.356
 9986TIP3    H153937   0.028   6.802   1.307
 9986TIP3    H253938   0.057   6.697   1.406
 9987TIP3   OH253939   0.050   7.105   1.040
 9987TIP3    H153940   0.140   7.074   1.059
 9987TIP3    H253941   0.031   7.163   1.115
 9988TIP3   OH253942   1.850   7.152   1.628
 9988TIP3    H153943   1.837   7.056   1.623
 9988TIP3    H253944   1.762   7.178   1.664
 9989TIP3   OH253945   0.945   7.105   1.513
 9989TIP3    H153946   0.952   7.191   1.561
 9989TIP3    H253947   0.856   7.075   1.535
 9990TIP3   OH253948   0.992   7.482   0.492
 9990TIP3    H153949   0.979   7.476   0.396
 9990TIP3    H253950   0.990   7.578   0.509
 9991TIP3   OH253951   0.359   7.365   0.671
 9991TIP3    H153952   0.367   7.330   0.762
 9991TIP3    H253953   0.272   7.328   0.648
 9992TIP3   OH253954   1.301   7.406   0.196
 9992TIP3    H153955   1.345   7.330   0.150
 9992TIP3    H253956   1.299   7.371   0.287
 9993TIP3   OH253957   1.261   7.389   0.464
 9993TIP3    H153958   1.167   7.403   0.489
 9993TIP3    H253959   1.288   7.321   0.528
 9994TIP3   OH253960   1.564   6.299   1.672
 9994TIP3    H153961   1.515   6.344   1.600
 9994TIP3    H253962   1.562   6.207   1.642
 9995TIP3   OH253963   0.282   6.943   1.476
 9995TIP3    H153964   0.290   6.905   1.565
 9995TIP3    H253965   0.198   6.903   1.446
 9996TIP3   OH253966   0.547   5.790   1.065
 9996TIP3    H153967   0.456   5.776   1.031
 9996TIP3    H253968   0.533   5.871   1.117
 9997TIP3   OH253969   1.011   5.754   1.403
 9997TIP3    H153970   1.050   5.711   1.482
 9997TIP3    H253971   0.914   5.744   1.418
 9998TIP3   OH253972   1.339   6.140   1.494
 9998TIP3    H153973   1.282   6.118   1.572
 9998TIP3    H253974   1.320   6.233   1.471
 9999TIP3   OH253975   1.426   6.603   0.088
 9999TIP3    H153976   1.405   6.618  -0.005
 9999TIP3    H253977   1.498   6.666   0.095
10000TIP3   OH253978   0.976   6.014   0.138
10000TIP3    H153979   0.940   6.006   0.228
10000TIP3    H253980   0.945   5.928   0.105
10001TIP3   OH253981   0.557   6.286   1.195
10001TIP3    H153982   0.482   6.285   1.256
10001TIP3    H253983   0.551   6.375   1.154
10002TIP3   OH253984   0.553   6.297   0.681
10002TIP3    H153985   0.459   6.274   0.667
10002TIP3    H253986   0.590   6.269   0.595
10003TIP3   OH253987   1.104   6.347   0.554
10003TIP3    H153988   1.066   6.431   0.519
10003TIP3    H253989   1.173   6.330   0.488
10004TIP3   OH253990   1.006   6.371   1.701
10004TIP3    H153991   0.958   6.289   1.730
10004TIP3    H253992   1.091   6.359   1.745
10005TIP3   OH253993   1.208   6.297   0.841
10005TIP3    H153994   1.179   6.353   0.768
10005TIP3    H253995   1.217   6.212   0.795
10006TIP3   OH253996   0.321   6.313   1.362
10006TIP3    H153997   0.320   6.352   1.450
10006TIP3    H253998   0.274   6.230   1.379
10007TIP3   OH253999   0.659   5.959   0.062
10007TIP3    H154000   0.619   5.982   0.147
10007TIP3    H254001   0.606   6.025   0.014
10008TIP3   OH254002   0.014   6.053   0.767
10008TIP3    H154003   0.065   6.017   0.843
10008TIP3    H254004   0.025   5.986   0.702
10009TIP3   OH254005   0.110   6.104   0.294
10009TIP3    H154006   0.165   6.160   0.236
10009TIP3    H254007   0.043   6.163   0.327
10010TIP3   OH254008   1.127   6.454   1.295
10010TIP3    H154009   1.166   6.385   1.237
10010TIP3    H254010   1.080   6.402   1.362
10011TIP3   OH254011   0.808   6.054   0.780
10011TIP3    H154012   0.715   6.053   0.808
10011TIP3    H254013   0.856   6.034   0.862
10012TIP3   OH254014   0.293   6.206   0.667
10012TIP3    H154015   0.204   6.225   0.630
10012TIP3    H254016   0.314   6.120   0.626
10013TIP3   OH254017   0.651   6.215   0.434
10013TIP3    H154018   0.748   6.223   0.447
10013TIP3    H254019   0.628   6.279   0.365
10014TIP3   OH254020   1.249   5.974   1.104
10014TIP3    H154021   1.181   5.980   1.174
10014TIP3    H254022   1.198   5.950   1.025
10015TIP3   OH254023   0.517   6.341   0.193
10015TIP3    H154024   0.472   6.291   0.123
10015TIP3    H254025   0.603   6.347   0.148
10016TIP3   OH254026   1.567   7.540   1.737
10016TIP3    H154027   1.593   7.577   1.651
10016TIP3    H254028   1.641   7.572   1.791
10017TIP3   OH254029   0.347   6.782   1.696
10017TIP3    H154030   0.409   6.813   1.764
10017TIP3    H254031   0.264   6.791   1.749
10018TIP3   OH254032   0.936   6.328   0.969
10018TIP3    H154033   0.996   6.276   0.916
10018TIP3    H254034   0.921   6.273   1.047
10019TIP3   OH254035   0.440   5.942   0.616
10019TIP3    H154036   0.404   5.852   0.613
10019TIP3    H254037   0.518   5.934   0.559
10020TIP3   OH254038   0.800   6.161   1.211
10020TIP3    H154039   0.717   6.213   1.219
10020TIP3    H254040   0.856   6.197   1.282
10021TIP3   OH254041   0.857   6.783   0.381
10021TIP3    H154042   0.779   6.733   0.348
10021TIP3    H254043   0.836   6.794   0.476
10022TIP3   OH254044   1.579   6.704   1.261
10022TIP3    H154045   1.634   6.753   1.197
10022TIP3    H254046   1.492   6.707   1.215
10023TIP3   OH254047   1.243   6.071   0.184
10023TIP3    H154048   1.146   6.075   0.187
10023TIP3    H254049   1.276   6.147   0.237
10024TIP3   OH254050   0.994   6.810   1.503
10024TIP3    H154051   0.981   6.768   1.588
10024TIP3    H254052   0.988   6.905   1.518
10025TIP3   OH254053   1.310   6.257   0.366
10025TIP3    H154054   1.400   6.241   0.402
10025TIP3    H254055   1.322   6.338   0.314
10026TIP3   OH254056   0.370   6.724   0.961
10026TIP3    H154057   0.436   6.716   0.890
10026TIP3    H254058   0.376   6.638   1.005
10027TIP3   OH254059   1.066   6.931   0.282
10027TIP3    H154060   1.033   7.015   0.319
10027TIP3    H254061   0.996   6.867   0.306
10028TIP3   OH254062   0.081   6.545   1.483
10028TIP3    H154063   0.086   6.513   1.574
10028TIP3    H254064   0.003   6.502   1.446
10029TIP3   OH254065   0.770   6.529   1.695
10029TIP3    H154066   0.739   6.479   1.619
10029TIP3    H254067   0.859   6.486   1.706
10030TIP3   OH254068   1.238   7.051   1.501
10030TIP3    H154069   1.146   7.071   1.477
10030TIP3    H254070   1.235   7.083   1.594
10031TIP3   OH254071   1.811   6.271   0.333
10031TIP3    H154072   1.734   6.239   0.280
10031TIP3    H254073   1.803   6.368   0.326
10032TIP3   OH254074   1.804   6.857   1.618
10032TIP3    H154075   1.715   6.879   1.582
10032TIP3    H254076   1.858   6.851   1.537
10033TIP3   OH254077   1.638   7.152   0.379
10033TIP3    H154078   1.597   7.070   0.410
10033TIP3    H254079   1.662   7.136   0.286
10034TIP3   OH254080   1.355   6.635   1.089
10034TIP3    H154081   1.261   6.614   1.077
10034TIP3    H254082   1.399   6.560   1.044
10035TIP3   OH254083   0.609   7.067   0.694
10035TIP3    H154084   0.657   7.150   0.681
10035TIP3    H254085   0.519   7.092   0.669
10036TIP3   OH254086   0.178   6.553   0.153
10036TIP3    H154087   0.242   6.613   0.196
10036TIP3    H254088   0.094   6.587   0.185
10037TIP3   OH254089   0.749   6.835   0.651
10037TIP3    H154090   0.716   6.927   0.658
10037TIP3    H254091   0.677   6.785   0.694
10038TIP3   OH254092   0.794   7.255   1.292
10038TIP3    H154093   0.840   7.334   1.262
10038TIP3    H254094   0.859   7.221   1.356
10039TIP3   OH254095   0.616   7.332   0.601
10039TIP3    H154096   0.520   7.347   0.619
10039TIP3    H254097   0.653   7.416   0.635
10040TIP3   OH254098   1.145   6.852   1.251
10040TIP3    H154099   1.115   6.834   1.343
10040TIP3    H254100   1.209   6.781   1.235
10041TIP3   OH254101   1.374   6.957   0.162
10041TIP3    H154102   1.410   6.914   0.242
10041TIP3    H254103   1.280   6.940   0.178
10042TIP3   OH254104   1.428   7.311   1.501
10042TIP3    H154105   1.358   7.262   1.454
10042TIP3    H254106   1.446   7.381   1.435
10043TIP3   OH254107   1.825   7.394   0.186
10043TIP3    H154108   1.899   7.454   0.167
10043TIP3    H254109   1.756   7.457   0.215
10044TIP3   OH254110   0.234   6.035   1.439
10044TIP3    H154111   0.144   6.071   1.444
10044TIP3    H254112   0.220   5.951   1.485
10045TIP3   OH254113   1.456   6.824   0.392
10045TIP3    H154114   1.433   6.743   0.442
10045TIP3    H254115   1.552   6.826   0.404
10046TIP3   OH254116   0.197   7.213   1.280
10046TIP3    H154117   0.227   7.121   1.285
10046TIP3    H254118   0.218   7.244   1.368
10047TIP3   OH254119   0.670   7.023   0.266
10047TIP3    H154120   0.705   6.964   0.336
10047TIP3    H254121   0.688   7.111   0.307
10048TIP3   OH254122   0.319   6.747   0.302
10048TIP3    H154123   0.251   6.782   0.363
10048TIP3    H254124   0.372   6.824   0.280
10049TIP3   OH254125   1.107   6.014   1.339
10049TIP3    H154126   1.179   6.020   1.403
10049TIP3    H254127   1.069   5.926   1.360
10050TIP3   OH254128   1.180   5.970   0.448
10050TIP3    H154129   1.206   6.017   0.368
10050TIP3    H254130   1.236   6.015   0.514
10051TIP3   OH254131   0.941   7.183   0.318
10051TIP3    H154132   0.871   7.245   0.344
10051TIP3    H254133   1.006   7.239   0.272
10052TIP3   OH254134   0.904   6.146   0.529
10052TIP3    H154135   0.982   6.205   0.532
10052TIP3    H254136   0.878   6.133   0.622
10053TIP3   OH254137   0.961   6.248   1.448
10053TIP3    H154138   0.969   6.302   1.529
10053TIP3    H254139   1.027   6.178   1.456
10054TIP3   OH254140   0.991   5.849   0.616
10054TIP3    H154141   0.957   5.914   0.680
10054TIP3    H254142   1.059   5.905   0.571
10055TIP3   OH254143   0.680   7.291   0.328
10055TIP3    H154144   0.704   7.376   0.282
10055TIP3    H254145   0.662   7.325   0.420
10056TIP3   OH254146   0.552   5.962   0.303
10056TIP3    H154147   0.551   6.056   0.326
10056TIP3    H254148   0.646   5.938   0.314
10057TIP3   OH254149   1.577   6.035   1.532
10057TIP3    H154150   1.484   6.067   1.519
10057TIP3    H254151   1.607   6.033   1.440
10058TIP3   OH254152   1.440   6.413   0.931
10058TIP3    H154153   1.357   6.369   0.905
10058TIP3    H254154   1.487   6.345   0.984
10059TIP3   OH254155   0.381   7.014   0.184
10059TIP3    H154156   0.442   7.061   0.241
10059TIP3    H254157   0.430   6.951   0.127
10060TIP3   OH254158   0.212   6.275   0.105
10060TIP3    H154159   0.210   6.371   0.126
10060TIP3    H254160   0.125   6.253   0.071
10061TIP3   OH254161   1.547   7.342   1.100
10061TIP3    H154162   1.537   7.409   1.029
10061TIP3    H254163   1.643   7.347   1.116
10062TIP3   OH254164   0.291   5.756   0.976
10062TIP3    H154165   0.272   5.751   0.880
10062TIP3    H254166   0.256   5.669   1.005
10063TIP3   OH254167   0.187   7.139   0.592
10063TIP3    H154168   0.107   7.191   0.593
10063TIP3    H254169   0.238   7.190   0.528
10064TIP3   OH254170   0.112   7.407   1.723
10064TIP3    H154171   0.172   7.382   1.796
10064TIP3    H254172   0.067   7.323   1.701
10065TIP3   OH254173   0.579   7.303   1.884
10065TIP3    H154174   0.654   7.253   1.918
10065TIP3    H254175   0.577   7.275   1.790
10066TIP3   OH254176   0.997   7.264   0.050
10066TIP3    H154177   0.932   7.196   0.069
10066TIP3    H254178   1.070   7.216   0.009
10067TIP3   OH254179   1.228   7.140   1.760
10067TIP3    H154180   1.196   7.051   1.787
10067TIP3    H254181   1.305   7.152   1.818
10068TIP3   OH254182   1.473   7.222   0.100
10068TIP3    H154183   1.481   7.125   0.097
10068TIP3    H254184   1.503   7.249   0.012
10069TIP3   OH254185   0.108   6.791   1.821
10069TIP3    H154186   0.116   6.697   1.795
10069TIP3    H254187   0.034   6.816   1.766
10070TIP3   OH254188   0.523   6.809   0.031
10070TIP3    H154189   0.550   6.734   0.087
10070TIP3    H254190   0.597   6.806  -0.033
10071TIP3   OH254191   0.774   6.786   1.775
10071TIP3    H154192   0.776   6.831   1.691
10071TIP3    H254193   0.791   6.689   1.759
10072TIP3   OH254194   1.342   6.771   1.501
10072TIP3    H154195   1.421   6.828   1.496
10072TIP3    H254196   1.273   6.839   1.504
10073TIP3   OH254197   0.182   6.509   1.762
10073TIP3    H154198   0.234   6.427   1.754
10073TIP3    H254199   0.164   6.509   1.857
10074TIP3   OH254200   0.657   6.627   0.266
10074TIP3    H154201   0.609   6.570   0.329
10074TIP3    H254202   0.690   6.557   0.204
10075TIP3   OH254203   0.588   6.410   1.501
10075TIP3    H154204   0.515   6.472   1.518
10075TIP3    H254205   0.621   6.438   1.414
10076TIP3   OH254206   0.766   6.448   0.094
10076TIP3    H154207   0.746   6.433  -0.000
10076TIP3    H254208   0.863   6.454   0.097
10077TIP3   OH254209   1.089   6.661   1.829
10077TIP3    H154210   1.185   6.659   1.817
10077TIP3    H254211   1.074   6.584   1.887
10078TIP3   OH254212   1.698   6.673  11.013
10078TIP3    H154213   1.677   6.640  10.926
10078TIP3    H254214   1.701   6.770  10.994
10079TIP3   OH254215   0.628   6.140   1.601
10079TIP3    H154216   0.636   6.069   1.535
10079TIP3    H254217   0.617   6.220   1.546
10080TIP3   OH254218   0.665   5.980   1.358
10080TIP3    H154219   0.715   6.026   1.287
10080TIP3    H254220   0.575   5.972   1.318
10081TIP3   OH254221   0.819   6.534   1.383
10081TIP3    H154222   0.893   6.511   1.326
10081TIP3    H254223   0.783   6.613   1.341
10082TIP3   OH254224   1.257   6.303   1.877
10082TIP3    H154225   1.281   6.210   1.869
10082TIP3    H254226   1.344   6.348   1.881
10083TIP3   OH254227   1.392   6.583   1.695
10083TIP3    H154228   1.367   6.655   1.633
10083TIP3    H254229   1.488   6.580   1.676
10084TIP3   OH254230   0.469   6.269   1.791
10084TIP3    H154231   0.393   6.209   1.779
10084TIP3    H254232   0.535   6.228   1.732
10085TIP3   OH254233   0.743   5.723   1.395
10085TIP3    H154234   0.725   5.820   1.387
10085TIP3    H254235   0.669   5.686   1.345
10086TIP3   OH254236   0.871   6.156   1.760
10086TIP3    H154237   0.838   6.132   1.849
10086TIP3    H254238   0.793   6.136   1.705
10087TIP3   OH254239   1.142   6.071   1.670
10087TIP3    H154240   1.046   6.076   1.680
10087TIP3    H254241   1.168   6.006   1.739
10088TIP3   OH254242   1.299   5.932   1.857
10088TIP3    H154243   1.296   5.835   1.861
10088TIP3    H254244   1.276   5.962   1.948
10089TIP3   OH254245   0.284   6.060   1.772
10089TIP3    H154246   0.306   5.987   1.711
10089TIP3    H254247   0.272   6.013   1.857
10090TIP3   OH254248   0.765   5.663   1.666
10090TIP3    H154249   0.832   5.593   1.665
10090TIP3    H254250   0.753   5.676   1.570
10091TIP3   OH254251   0.801   5.824   1.879
10091TIP3    H154252   0.783   5.773   1.796
10091TIP3    H254253   0.741   5.900   1.869
10092TIP3   OH254254   0.747   7.513   0.194
10092TIP3    H154255   0.843   7.529   0.205
10092TIP3    H254256   0.726   7.581   0.128
10093TIP3   OH254257   0.112   6.972   0.142
10093TIP3    H154258   0.208   6.985   0.159
10093TIP3    H254259   0.113   6.910   0.068
10094TIP3   OH254260  -0.004   7.518   0.626
10094TIP3    H154261  -0.086   7.474   0.599
10094TIP3    H254262   0.015   7.459   0.701
10095TIP3   OH254263   0.084   7.327   0.820
10095TIP3    H154264   0.036   7.244   0.836
10095TIP3    H254265   0.096   7.363   0.910
10096TIP3   OH254266   1.821   7.399   1.120
10096TIP3    H154267   1.819   7.422   1.214
10096TIP3    H254268   1.883   7.465   1.088
10097TIP3   OH254269   1.774   7.362   1.417
10097TIP3    H154270   1.728   7.286   1.377
10097TIP3    H254271   1.823   7.316   1.488
10098TIP3   OH254272   1.619   6.935   1.882
10098TIP3    H154273   1.528   6.933   1.918
10098TIP3    H254274   1.656   7.016   1.922
10099TIP3   OH254275   1.754   6.764   0.420
10099TIP3    H154276   1.836   6.809   0.445
10099TIP3    H254277   1.748   6.699   0.494
10100TIP3   OH254278   1.787   6.574   0.612
10100TIP3    H154279   1.710   6.529   0.654
10100TIP3    H254280   1.846   6.590   0.688
10101TIP3   OH254281   1.762   6.846   1.112
10101TIP3    H154282   1.843   6.808   1.073
10101TIP3    H254283   1.777   6.941   1.094
10102TIP3   OH254284   1.617   7.136   1.338
10102TIP3    H154285   1.549   7.171   1.396
10102TIP3    H254286   1.563   7.097   1.266
10103TIP3   OH254287   1.813   6.553   0.245
10103TIP3    H154288   1.754   6.598   0.179
10103TIP3    H254289   1.806   6.623   0.315
10104TIP3   OH254290   1.658   6.286   0.096
10104TIP3    H154291   1.634   6.352   0.030
10104TIP3    H254292   1.623   6.202   0.060
10105TIP3   OH254293   1.569   6.424   0.671
10105TIP3    H154294   1.554   6.328   0.666
10105TIP3    H254295   1.536   6.444   0.760
10106TIP3   OH254296   0.069   6.630   1.076
10106TIP3    H154297   0.088   6.623   0.981
10106TIP3    H254298   0.158   6.617   1.114
10107TIP3   OH254299   1.655   6.621   1.640
10107TIP3    H154300   1.716   6.545   1.652
10107TIP3    H254301   1.716   6.698   1.639
10108TIP3   OH254302   1.805   6.408   1.704
10108TIP3    H154303   1.716   6.368   1.689
10108TIP3    H254304   1.862   6.329   1.697
10109TIP3   OH254305   1.558   6.019   0.126
10109TIP3    H154306   1.641   5.978   0.094
10109TIP3    H254307   1.499   5.987   0.057
10110TIP3   OH254308   1.533   6.182   0.512
10110TIP3    H154309   1.562   6.090   0.527
10110TIP3    H254310   1.614   6.222   0.480
10111TIP3   OH254311   1.599   6.237   1.061
10111TIP3    H154312   1.695   6.259   1.059
10111TIP3    H254313   1.581   6.250   1.155
10112TIP3   OH254314   1.606   6.308   1.339
10112TIP3    H154315   1.517   6.337   1.369
10112TIP3    H254316   1.649   6.394   1.316
10113TIP3   OH254317   0.051   6.122   1.655
10113TIP3    H154318   0.134   6.134   1.706
10113TIP3    H254319  -0.008   6.079   1.718
10114TIP3   OH254320   1.834   5.716   1.872
10114TIP3    H154321   1.869   5.650   1.810
10114TIP3    H254322   1.843   5.797   1.817
10115TIP3   OH254323   1.603   5.911   0.521
10115TIP3    H154324   1.625   5.867   0.606
10115TIP3    H254325   1.542   5.848   0.477
10116TIP3   OH254326   0.151   5.991   0.982
10116TIP3    H154327   0.200   5.909   1.003
10116TIP3    H254328   0.206   6.060   1.021
10117TIP3   OH254329   0.001   6.300   1.089
10117TIP3    H154330   0.047   6.276   1.006
10117TIP3    H254331   0.035   6.388   1.106
10118TIP3   OH254332   1.785   5.925   1.707
10118TIP3    H154333   1.691   5.953   1.703
10118TIP3    H254334   1.787   5.870   1.628
10119TIP3   OH254335   1.794   5.914   0.173
10119TIP3    H154336   1.833   5.842   0.122
10119TIP3    H254337   1.866   5.977   0.189
10120TIP3   OH254338   0.037   5.899   0.441
10120TIP3    H154339  -0.057   5.923   0.453
10120TIP3    H254340   0.073   5.979   0.397
10121TIP3   OH254341   1.488   7.409   0.676
10121TIP3    H154342   1.561   7.380   0.620
10121TIP3    H254343   1.535   7.460   0.747
10122TIP3   OH254344   0.028   5.796   1.331
10122TIP3    H154345  -0.046   5.768   1.386
10122TIP3    H254346  -0.026   5.858   1.275
10123TIP3   OH254347   0.236   7.106   1.735
10123TIP3    H154348   0.153   7.126   1.690
10123TIP3    H254349   0.207   7.098   1.827
10124TIP3   OH254350   0.525   7.203   1.363
10124TIP3    H154351   0.490   7.289   1.334
10124TIP3    H254352   0.616   7.214   1.329
10125TIP3   OH254353   0.957   7.344   1.650
10125TIP3    H154354   0.970   7.310   1.742
10125TIP3    H254355   1.047   7.377   1.627
10126TIP3   OH254356   1.184   7.472   1.582
10126TIP3    H154357   1.258   7.416   1.558
10126TIP3    H254358   1.221   7.517   1.662
10127TIP3   OH254359   1.688   5.733   1.493
10127TIP3    H154360   1.605   5.764   1.452
10127TIP3    H254361   1.704   5.651   1.442
10128TIP3   OH254362   0.263   7.522   1.361
10128TIP3    H154363   0.191   7.578   1.324
10128TIP3    H254364   0.232   7.511   1.452
10129TIP3   OH254365   0.516   7.483   1.269
10129TIP3    H154366   0.427   7.501   1.308
10129TIP3    H254367   0.510   7.541   1.191
10130TIP3   OH254368   0.985   7.476   1.185
10130TIP3    H154369   0.939   7.531   1.120
10130TIP3    H254370   0.998   7.540   1.259
10131TIP3   OH254371   1.213   7.356   1.289
10131TIP3    H154372   1.128   7.385   1.250
10131TIP3    H254373   1.263   7.439   1.279
10132TIP3   OH254374   1.466   7.512   1.307
10132TIP3    H154375   1.464   7.609   1.290
10132TIP3    H254376   1.494   7.477   1.220
10133TIP3   OH254377   0.216   7.396   1.051
10133TIP3    H154378   0.202   7.350   1.137
10133TIP3    H254379   0.296   7.353   1.014
10134TIP3   OH254380   0.420   7.262   0.919
10134TIP3    H154381   0.405   7.168   0.944
10134TIP3    H254382   0.506   7.279   0.965
10135TIP3   OH254383   0.679   7.310   1.009
10135TIP3    H154384   0.696   7.218   0.983
10135TIP3    H254385   0.687   7.306   1.106
10136TIP3   OH254386   1.025   5.877   0.919
10136TIP3    H154387   0.959   5.813   0.950
10136TIP3    H254388   1.082   5.822   0.863
10137TIP3   OH254389   1.541   5.677   0.924
10137TIP3    H154390   1.601   5.740   0.876
10137TIP3    H254391   1.452   5.716   0.905
10138TIP3   OH254392   1.706   5.807   0.753
10138TIP3    H154393   1.774   5.747   0.713
10138TIP3    H254394   1.758   5.889   0.766
10139TIP3   OH254395   0.268   5.738   0.706
10139TIP3    H154396   0.187   5.719   0.653
10139TIP3    H254397   0.312   5.651   0.699
10140TIP3   OH254398   0.144   5.711   0.283
10140TIP3    H154399   0.187   5.778   0.226
10140TIP3    H254400   0.089   5.770   0.339
10141TIP3   OH254401   0.709   5.731   0.685
10141TIP3    H154402   0.799   5.767   0.676
10141TIP3    H254403   0.706   5.709   0.778
10142TIP3   OH254404   1.283   5.733   0.847
10142TIP3    H154405   1.276   5.745   0.751
10142TIP3    H254406   1.244   5.643   0.860
10143TIP3   OH254407   1.408   5.736   0.413
10143TIP3    H154408   1.334   5.796   0.401
10143TIP3    H254409   1.364   5.650   0.434
10144TIP3   OH254410   0.132   7.314   0.377
10144TIP3    H154411   0.067   7.316   0.307
10144TIP3    H254412   0.134   7.409   0.397
10145TIP3   OH254413   0.323   5.905   0.132
10145TIP3    H154414   0.379   5.847   0.079
10145TIP3    H254415   0.392   5.944   0.189
10146TIP3   OH254416   0.830   5.933   0.365
10146TIP3    H154417   0.851   5.876   0.441
10146TIP3    H254418   0.834   6.018   0.414
10147TIP3   OH254419   1.017   7.453   0.218
10147TIP3    H154420   1.111   7.464   0.200
10147TIP3    H254421   0.999   7.395   0.140
10148TIP3   OH254422   1.685   7.393   0.485
10148TIP3    H154423   1.669   7.311   0.432
10148TIP3    H254424   1.687   7.464   0.418
10149TIP3   OH254425   0.249   5.798   1.659
10149TIP3    H154426   0.211   5.713   1.689
10149TIP3    H254427   0.342   5.788   1.690
10150TIP3   OH254428   0.455   5.731   1.816
10150TIP3    H154429   0.543   5.696   1.795
10150TIP3    H254430   0.413   5.652   1.855
10151TIP3   OH254431   0.309   7.396   0.076
10151TIP3    H154432   0.284   7.439   0.159
10151TIP3    H254433   0.395   7.359   0.095
10152TIP3   OH254434   1.292   5.660   1.831
10152TIP3    H154435   1.301   5.613   1.916
10152TIP3    H254436   1.383   5.656   1.797
10153TIP3   OH254437   1.613   7.266   1.693
10153TIP3    H154438   1.533   7.252   1.638
10153TIP3    H254439   1.601   7.360   1.715
10154TIP3   OH254440   3.060   6.654   0.690
10154TIP3    H154441   3.054   6.752   0.687
10154TIP3    H254442   2.985   6.629   0.633
10155TIP3   OH254443   2.943   6.578   1.041
10155TIP3    H154444   2.942   6.514   1.114
10155TIP3    H254445   2.907   6.527   0.967
10156TIP3   OH254446   2.178   6.547   1.197
10156TIP3    H154447   2.186   6.477   1.265
10156TIP3    H254448   2.253   6.603   1.219
10157TIP3   OH254449   3.311   6.873   0.871
10157TIP3    H154450   3.270   6.801   0.920
10157TIP3    H254451   3.314   6.944   0.938
10158TIP3   OH254452   2.270   6.991   1.046
10158TIP3    H154453   2.240   6.904   1.015
10158TIP3    H254454   2.366   6.974   1.050
10159TIP3   OH254455   1.937   6.346   0.590
10159TIP3    H154456   1.893   6.433   0.592
10159TIP3    H254457   1.873   6.291   0.543
10160TIP3   OH254458   2.007   6.569   0.811
10160TIP3    H154459   2.035   6.487   0.856
10160TIP3    H254460   2.075   6.580   0.744
10161TIP3   OH254461   3.023   7.390   0.895
10161TIP3    H154462   3.088   7.321   0.865
10161TIP3    H254463   3.001   7.354   0.981
10162TIP3   OH254464   2.780   6.817   1.091
10162TIP3    H154465   2.814   6.756   1.024
10162TIP3    H254466   2.862   6.834   1.141
10163TIP3   OH254467   3.639   5.985   1.160
10163TIP3    H154468   3.658   6.043   1.238
10163TIP3    H254469   3.697   6.026   1.095
10164TIP3   OH254470   3.097   6.265   1.121
10164TIP3    H154471   3.114   6.169   1.122
10164TIP3    H254472   3.087   6.279   1.025
10165TIP3   OH254473   2.408   6.075   0.841
10165TIP3    H154474   2.421   6.158   0.790
10165TIP3    H254475   2.369   6.017   0.772
10166TIP3   OH254476   3.182   6.081   0.678
10166TIP3    H154477   3.247   6.051   0.747
10166TIP3    H254478   3.239   6.139   0.625
10167TIP3   OH254479   2.070   6.316   0.915
10167TIP3    H154480   2.137   6.262   0.961
10167TIP3    H254481   2.082   6.284   0.825
10168TIP3   OH254482   2.583   6.470   0.855
10168TIP3    H154483   2.656   6.412   0.884
10168TIP3    H254484   2.536   6.408   0.795
10169TIP3   OH254485   3.683   6.124   1.389
10169TIP3    H154486   3.624   6.202   1.377
10169TIP3    H254487   3.687   6.118   1.485
10170TIP3   OH254488   2.300   5.964   1.246
10170TIP3    H154489   2.272   6.022   1.171
10170TIP3    H254490   2.233   5.988   1.314
10171TIP3   OH254491   3.028   6.913   0.602
10171TIP3    H154492   3.000   6.883   0.514
10171TIP3    H254493   2.997   7.007   0.604
10172TIP3   OH254494   2.550   6.728   1.269
10172TIP3    H154495   2.480   6.793   1.292
10172TIP3    H254496   2.621   6.788   1.240
10173TIP3   OH254497   3.364   6.017   0.878
10173TIP3    H154498   3.341   5.940   0.931
10173TIP3    H254499   3.431   6.060   0.934
10174TIP3   OH254500   2.257   6.149   1.050
10174TIP3    H154501   2.320   6.219   1.080
10174TIP3    H254502   2.308   6.109   0.975
10175TIP3   OH254503   2.396   6.930   1.351
10175TIP3    H154504   2.391   7.021   1.318
10175TIP3    H254505   2.308   6.921   1.396
10176TIP3   OH254506   2.002   6.888   0.429
10176TIP3    H154507   1.981   6.923   0.340
10176TIP3    H254508   2.010   6.970   0.482
10177TIP3   OH254509   3.364   7.057   1.107
10177TIP3    H154510   3.267   7.069   1.119
10177TIP3    H254511   3.391   7.149   1.086
10178TIP3   OH254512   3.396   5.885   1.245
10178TIP3    H154513   3.324   5.949   1.235
10178TIP3    H254514   3.468   5.927   1.194
10179TIP3   OH254515   2.692   5.698   0.992
10179TIP3    H154516   2.678   5.602   0.984
10179TIP3    H254517   2.604   5.728   1.023
10180TIP3   OH254518   3.191   7.235   0.769
10180TIP3    H154519   3.232   7.163   0.716
10180TIP3    H254520   3.236   7.313   0.729
10181TIP3   OH254521   3.312   7.028   0.619
10181TIP3    H154522   3.283   6.960   0.556
10181TIP3    H254523   3.315   6.977   0.702
10182TIP3   OH254524   3.472   6.889   1.467
10182TIP3    H154525   3.487   6.823   1.396
10182TIP3    H254526   3.494   6.972   1.421
10183TIP3   OH254527   2.932   6.583   0.446
10183TIP3    H154528   2.850   6.624   0.411
10183TIP3    H254529   2.993   6.587   0.372
10184TIP3   OH254530   2.934   6.432   0.141
10184TIP3    H154531   2.999   6.436   0.213
10184TIP3    H254532   2.964   6.357   0.092
10185TIP3   OH254533   3.662   6.520   1.270
10185TIP3    H154534   3.597   6.592   1.274
10185TIP3    H254535   3.712   6.543   1.191
10186TIP3   OH254536   3.269   6.598   0.537
10186TIP3    H154537   3.193   6.622   0.596
10186TIP3    H254538   3.316   6.531   0.589
10187TIP3   OH254539   3.261   6.414   1.448
10187TIP3    H154540   3.261   6.497   1.500
10187TIP3    H254541   3.198   6.443   1.379
10188TIP3   OH254542   2.427   6.663   0.729
10188TIP3    H154543   2.400   6.626   0.641
10188TIP3    H254544   2.492   6.595   0.758
10189TIP3   OH254545   2.560   7.001   0.995
10189TIP3    H154546   2.561   6.950   0.913
10189TIP3    H254547   2.639   6.966   1.040
10190TIP3   OH254548   2.461   6.539   1.094
10190TIP3    H154549   2.515   6.547   1.012
10190TIP3    H254550   2.502   6.605   1.153
10191TIP3   OH254551   3.105   7.096   1.165
10191TIP3    H154552   3.076   7.160   1.231
10191TIP3    H254553   3.079   7.011   1.206
10192TIP3   OH254554   2.557   6.982   1.563
10192TIP3    H154555   2.515   7.055   1.612
10192TIP3    H254556   2.490   6.961   1.493
10193TIP3   OH254557   3.158   6.514   0.299
10193TIP3    H154558   3.207   6.537   0.382
10193TIP3    H254559   3.202   6.570   0.231
10194TIP3   OH254560   2.252   6.598   1.477
10194TIP3    H154561   2.258   6.664   1.548
10194TIP3    H254562   2.157   6.605   1.457
10195TIP3   OH254563   2.928   7.191   0.645
10195TIP3    H154564   2.969   7.220   0.727
10195TIP3    H254565   2.871   7.265   0.623
10196TIP3   OH254566   2.382   7.184   1.637
10196TIP3    H154567   2.375   7.175   1.541
10196TIP3    H254568   2.289   7.171   1.664
10197TIP3   OH254569   3.531   5.691   0.291
10197TIP3    H154570   3.435   5.700   0.312
10197TIP3    H254571   3.548   5.775   0.246
10198TIP3   OH254572   2.309   6.572   0.503
10198TIP3    H154573   2.298   6.642   0.436
10198TIP3    H254574   2.266   6.497   0.463
10199TIP3   OH254575   3.643   7.125   0.128
10199TIP3    H154576   3.655   7.219   0.146
10199TIP3    H254577   3.734   7.093   0.125
10200TIP3   OH254578   1.934   6.809   1.380
10200TIP3    H154579   1.891   6.801   1.293
10200TIP3    H254580   1.944   6.714   1.401
10201TIP3   OH254581   1.911   7.083   1.055
10201TIP3    H154582   2.006   7.071   1.054
10201TIP3    H254583   1.903   7.165   1.106
10202TIP3   OH254584   3.734   7.151   1.624
10202TIP3    H154585   3.721   7.055   1.623
10202TIP3    H254586   3.648   7.178   1.664
10203TIP3   OH254587   2.830   7.107   1.511
10203TIP3    H154588   2.836   7.191   1.562
10203TIP3    H254589   2.742   7.072   1.535
10204TIP3   OH254590   2.875   7.482   0.492
10204TIP3    H154591   2.866   7.476   0.396
10204TIP3    H254592   2.877   7.578   0.508
10205TIP3   OH254593   2.239   7.369   0.672
10205TIP3    H154594   2.254   7.329   0.761
10205TIP3    H254595   2.154   7.328   0.650
10206TIP3   OH254596   3.174   7.397   0.196
10206TIP3    H154597   3.230   7.328   0.152
10206TIP3    H254598   3.186   7.372   0.289
10207TIP3   OH254599   3.148   7.396   0.468
10207TIP3    H154600   3.053   7.404   0.486
10207TIP3    H254601   3.173   7.322   0.525
10208TIP3   OH254602   3.450   6.299   1.672
10208TIP3    H154603   3.401   6.344   1.600
10208TIP3    H254604   3.447   6.207   1.642
10209TIP3   OH254605   2.164   6.940   1.473
10209TIP3    H154606   2.186   6.904   1.562
10209TIP3    H254607   2.077   6.901   1.452
10210TIP3   OH254608   2.432   5.789   1.067
10210TIP3    H154609   2.342   5.775   1.031
10210TIP3    H254610   2.418   5.871   1.117
10211TIP3   OH254611   2.897   5.754   1.403
10211TIP3    H154612   2.936   5.712   1.482
10211TIP3    H254613   2.799   5.744   1.418
10212TIP3   OH254614   3.225   6.140   1.494
10212TIP3    H154615   3.168   6.118   1.571
10212TIP3    H254616   3.206   6.233   1.471
10213TIP3   OH254617   3.309   6.605   0.089
10213TIP3    H154618   3.293   6.616  -0.005
10213TIP3    H254619   3.386   6.663   0.096
10214TIP3   OH254620   2.863   6.014   0.131
10214TIP3    H154621   2.827   6.011   0.224
10214TIP3    H254622   2.830   5.926   0.108
10215TIP3   OH254623   2.443   6.286   1.195
10215TIP3    H154624   2.368   6.286   1.257
10215TIP3    H254625   2.437   6.376   1.156
10216TIP3   OH254626   2.437   6.291   0.683
10216TIP3    H154627   2.343   6.271   0.665
10216TIP3    H254628   2.477   6.276   0.596
10217TIP3   OH254629   2.993   6.348   0.556
10217TIP3    H154630   2.948   6.429   0.520
10217TIP3    H254631   3.057   6.332   0.486
10218TIP3   OH254632   2.895   6.369   1.699
10218TIP3    H154633   2.843   6.290   1.730
10218TIP3    H254634   2.979   6.357   1.747
10219TIP3   OH254635   3.093   6.298   0.841
10219TIP3    H154636   3.063   6.353   0.766
10219TIP3    H254637   3.103   6.212   0.794
10220TIP3   OH254638   2.204   6.309   1.360
10220TIP3    H154639   2.214   6.350   1.447
10220TIP3    H254640   2.160   6.225   1.382
10221TIP3   OH254641   2.546   5.962   0.063
10221TIP3    H154642   2.504   5.983   0.148
10221TIP3    H254643   2.489   6.025   0.015
10222TIP3   OH254644   1.870   6.020   0.760
10222TIP3    H154645   1.939   6.016   0.830
10222TIP3    H254646   1.915   5.984   0.682
10223TIP3   OH254647   1.991   6.091   0.285
10223TIP3    H154648   2.055   6.154   0.245
10223TIP3    H254649   1.932   6.151   0.335
10224TIP3   OH254650   3.012   6.454   1.295
10224TIP3    H154651   3.051   6.385   1.238
10224TIP3    H254652   2.965   6.402   1.362
10225TIP3   OH254653   2.694   6.050   0.781
10225TIP3    H154654   2.601   6.054   0.808
10225TIP3    H254655   2.741   6.033   0.864
10226TIP3   OH254656   2.170   6.203   0.673
10226TIP3    H154657   2.085   6.223   0.629
10226TIP3    H254658   2.203   6.125   0.625
10227TIP3   OH254659   2.539   6.202   0.421
10227TIP3    H154660   2.629   6.228   0.449
10227TIP3    H254661   2.514   6.283   0.372
10228TIP3   OH254662   3.134   5.977   1.103
10228TIP3    H154663   3.066   5.980   1.174
10228TIP3    H254664   3.083   5.950   1.026
10229TIP3   OH254665   2.394   6.341   0.189
10229TIP3    H154666   2.359   6.287   0.118
10229TIP3    H254667   2.485   6.350   0.154
10230TIP3   OH254668   3.452   7.539   1.737
10230TIP3    H154669   3.479   7.577   1.651
10230TIP3    H254670   3.525   7.571   1.792
10231TIP3   OH254671   2.221   6.788   1.694
10231TIP3    H154672   2.294   6.812   1.754
10231TIP3    H254673   2.144   6.794   1.755
10232TIP3   OH254674   2.823   6.329   0.971
10232TIP3    H154675   2.881   6.276   0.916
10232TIP3    H254676   2.807   6.272   1.048
10233TIP3   OH254677   2.322   5.942   0.615
10233TIP3    H154678   2.291   5.850   0.613
10233TIP3    H254679   2.400   5.935   0.558
10234TIP3   OH254680   2.685   6.160   1.212
10234TIP3    H154681   2.603   6.213   1.219
10234TIP3    H254682   2.741   6.197   1.283
10235TIP3   OH254683   2.742   6.792   0.378
10235TIP3    H154684   2.670   6.731   0.351
10235TIP3    H254685   2.724   6.791   0.474
10236TIP3   OH254686   3.464   6.704   1.261
10236TIP3    H154687   3.519   6.753   1.197
10236TIP3    H254688   3.378   6.707   1.215
10237TIP3   OH254689   3.125   6.086   0.166
10237TIP3    H154690   3.033   6.073   0.195
10237TIP3    H254691   3.164   6.144   0.237
10238TIP3   OH254692   2.894   6.811   1.505
10238TIP3    H154693   2.859   6.767   1.583
10238TIP3    H254694   2.867   6.903   1.517
10239TIP3   OH254695   3.199   6.254   0.361
10239TIP3    H154696   3.288   6.240   0.401
10239TIP3    H254697   3.213   6.340   0.317
10240TIP3   OH254698   2.257   6.723   0.960
10240TIP3    H154699   2.323   6.713   0.889
10240TIP3    H254700   2.262   6.638   1.007
10241TIP3   OH254701   2.955   6.930   0.284
10241TIP3    H154702   2.919   7.015   0.317
10241TIP3    H254703   2.881   6.868   0.305
10242TIP3   OH254704   1.954   6.563   1.486
10242TIP3    H154705   1.970   6.518   1.572
10242TIP3    H254706   1.892   6.502   1.442
10243TIP3   OH254707   2.656   6.519   1.704
10243TIP3    H154708   2.623   6.487   1.618
10243TIP3    H254709   2.747   6.486   1.703
10244TIP3   OH254710   3.125   7.053   1.500
10244TIP3    H154711   3.032   7.070   1.477
10244TIP3    H254712   3.121   7.082   1.594
10245TIP3   OH254713   3.692   6.269   0.339
10245TIP3    H154714   3.632   6.241   0.267
10245TIP3    H254715   3.697   6.364   0.314
10246TIP3   OH254716   3.690   6.857   1.618
10246TIP3    H154717   3.600   6.879   1.582
10246TIP3    H254718   3.744   6.851   1.537
10247TIP3   OH254719   3.524   7.151   0.379
10247TIP3    H154720   3.483   7.070   0.410
10247TIP3    H254721   3.548   7.134   0.286
10248TIP3   OH254722   3.241   6.635   1.089
10248TIP3    H154723   3.147   6.615   1.077
10248TIP3    H254724   3.284   6.560   1.044
10249TIP3   OH254725   2.493   7.069   0.699
10249TIP3    H154726   2.542   7.149   0.679
10249TIP3    H254727   2.405   7.092   0.666
10250TIP3   OH254728   2.065   6.550   0.153
10250TIP3    H154729   2.130   6.610   0.197
10250TIP3    H254730   1.982   6.590   0.184
10251TIP3   OH254731   2.637   6.837   0.656
10251TIP3    H154732   2.599   6.927   0.658
10251TIP3    H254733   2.564   6.783   0.693
10252TIP3   OH254734   2.679   7.254   1.293
10252TIP3    H154735   2.726   7.333   1.264
10252TIP3    H254736   2.741   7.218   1.359
10253TIP3   OH254737   2.501   7.333   0.605
10253TIP3    H154738   2.405   7.348   0.618
10253TIP3    H254739   2.538   7.418   0.637
10254TIP3   OH254740   3.029   6.852   1.253
10254TIP3    H154741   2.999   6.833   1.344
10254TIP3    H254742   3.095   6.781   1.236
10255TIP3   OH254743   3.259   6.957   0.163
10255TIP3    H154744   3.296   6.914   0.242
10255TIP3    H254745   3.165   6.940   0.178
10256TIP3   OH254746   3.314   7.311   1.501
10256TIP3    H154747   3.244   7.262   1.455
10256TIP3    H254748   3.331   7.381   1.435
10257TIP3   OH254749   3.710   7.394   0.186
10257TIP3    H154750   3.782   7.457   0.169
10257TIP3    H254751   3.639   7.457   0.214
10258TIP3   OH254752   2.119   6.036   1.441
10258TIP3    H154753   2.029   6.072   1.440
10258TIP3    H254754   2.108   5.952   1.488
10259TIP3   OH254755   3.342   6.824   0.392
10259TIP3    H154756   3.319   6.743   0.442
10259TIP3    H254757   3.438   6.826   0.404
10260TIP3   OH254758   2.080   7.214   1.284
10260TIP3    H154759   2.113   7.123   1.284
10260TIP3    H254760   2.107   7.244   1.371
10261TIP3   OH254761   2.552   7.025   0.258
10261TIP3    H154762   2.587   6.969   0.329
10261TIP3    H254763   2.565   7.116   0.292
10262TIP3   OH254764   2.199   6.745   0.297
10262TIP3    H154765   2.138   6.786   0.362
10262TIP3    H254766   2.263   6.817   0.280
10263TIP3   OH254767   2.993   6.014   1.339
10263TIP3    H154768   3.065   6.020   1.403
10263TIP3    H254769   2.954   5.926   1.360
10264TIP3   OH254770   3.066   5.971   0.446
10264TIP3    H154771   3.094   6.018   0.369
10264TIP3    H254772   3.122   6.012   0.513
10265TIP3   OH254773   2.832   7.185   0.325
10265TIP3    H154774   2.754   7.241   0.340
10265TIP3    H254775   2.890   7.240   0.269
10266TIP3   OH254776   2.794   6.140   0.530
10266TIP3    H154777   2.866   6.207   0.532
10266TIP3    H254778   2.761   6.138   0.621
10267TIP3   OH254779   2.846   6.248   1.448
10267TIP3    H154780   2.853   6.304   1.529
10267TIP3    H254781   2.912   6.179   1.457
10268TIP3   OH254782   2.875   5.850   0.615
10268TIP3    H154783   2.841   5.914   0.680
10268TIP3    H254784   2.944   5.906   0.571
10269TIP3   OH254785   2.573   7.292   0.333
10269TIP3    H154786   2.589   7.374   0.280
10269TIP3    H254787   2.546   7.327   0.420
10270TIP3   OH254788   2.436   5.961   0.303
10270TIP3    H154789   2.437   6.056   0.327
10270TIP3    H254790   2.531   5.939   0.314
10271TIP3   OH254791   3.462   6.035   1.532
10271TIP3    H154792   3.370   6.067   1.519
10271TIP3    H254793   3.493   6.033   1.440
10272TIP3   OH254794   3.325   6.414   0.932
10272TIP3    H154795   3.242   6.369   0.905
10272TIP3    H254796   3.373   6.345   0.983
10273TIP3   OH254797   2.268   7.005   0.193
10273TIP3    H154798   2.334   7.068   0.226
10273TIP3    H254799   2.316   6.960   0.123
10274TIP3   OH254800   2.099   6.274   0.119
10274TIP3    H154801   2.107   6.372   0.122
10274TIP3    H254802   2.033   6.246   0.056
10275TIP3   OH254803   3.432   7.338   1.099
10275TIP3    H154804   3.422   7.408   1.031
10275TIP3    H254805   3.528   7.345   1.117
10276TIP3   OH254806   2.180   5.751   0.982
10276TIP3    H154807   2.161   5.753   0.885
10276TIP3    H254808   2.138   5.666   1.006
10277TIP3   OH254809   2.073   7.146   0.596
10277TIP3    H154810   1.988   7.190   0.589
10277TIP3    H254811   2.121   7.189   0.524
10278TIP3   OH254812   1.995   7.409   1.722
10278TIP3    H154813   2.056   7.390   1.797
10278TIP3    H254814   1.956   7.322   1.705
10279TIP3   OH254815   2.466   7.302   1.882
10279TIP3    H154816   2.540   7.251   1.917
10279TIP3    H254817   2.462   7.273   1.789
10280TIP3   OH254818   2.884   7.263   0.051
10280TIP3    H154819   2.813   7.199   0.069
10280TIP3    H254820   2.954   7.212   0.010
10281TIP3   OH254821   3.113   7.140   1.760
10281TIP3    H154822   3.082   7.051   1.787
10281TIP3    H254823   3.191   7.152   1.818
10282TIP3   OH254824   3.356   7.221   0.100
10282TIP3    H154825   3.368   7.125   0.097
10282TIP3    H254826   3.389   7.251   0.013
10283TIP3   OH254827   1.985   6.786   1.823
10283TIP3    H154828   2.002   6.695   1.794
10283TIP3    H254829   1.912   6.812   1.765
10284TIP3   OH254830   2.406   6.806   0.023
10284TIP3    H154831   2.436   6.739   0.090
10284TIP3    H254832   2.487   6.810  -0.031
10285TIP3   OH254833   2.658   6.786   1.761
10285TIP3    H154834   2.625   6.818   1.675
10285TIP3    H254835   2.664   6.688   1.750
10286TIP3   OH254836   3.227   6.771   1.501
10286TIP3    H154837   3.307   6.828   1.496
10286TIP3    H254838   3.158   6.839   1.504
10287TIP3   OH254839   2.079   6.509   1.761
10287TIP3    H154840   2.122   6.423   1.753
10287TIP3    H254841   2.056   6.510   1.856
10288TIP3   OH254842   2.504   6.637   0.212
10288TIP3    H154843   2.485   6.601   0.301
10288TIP3    H254844   2.571   6.566   0.194
10289TIP3   OH254845   2.468   6.403   1.496
10289TIP3    H154846   2.409   6.475   1.521
10289TIP3    H254847   2.509   6.440   1.416
10290TIP3   OH254848   2.653   6.443   0.090
10290TIP3    H154849   2.631   6.436  -0.004
10290TIP3    H254850   2.749   6.458   0.098
10291TIP3   OH254851   2.977   6.661   1.831
10291TIP3    H154852   3.072   6.658   1.816
10291TIP3    H254853   2.959   6.584   1.887
10292TIP3   OH254854   3.580   6.674  11.013
10292TIP3    H154855   3.565   6.637  10.926
10292TIP3    H254856   3.587   6.769  10.992
10293TIP3   OH254857   2.510   6.141   1.601
10293TIP3    H154858   2.521   6.070   1.535
10293TIP3    H254859   2.505   6.222   1.547
10294TIP3   OH254860   2.550   5.979   1.358
10294TIP3    H154861   2.601   6.026   1.287
10294TIP3    H254862   2.461   5.972   1.318
10295TIP3   OH254863   2.703   6.530   1.382
10295TIP3    H154864   2.779   6.513   1.325
10295TIP3    H254865   2.666   6.613   1.347
10296TIP3   OH254866   3.143   6.303   1.877
10296TIP3    H154867   3.167   6.210   1.868
10296TIP3    H254868   3.229   6.348   1.881
10297TIP3   OH254869   3.278   6.583   1.695
10297TIP3    H154870   3.252   6.655   1.633
10297TIP3    H254871   3.374   6.580   1.676
10298TIP3   OH254872   2.356   6.266   1.794
10298TIP3    H154873   2.279   6.208   1.778
10298TIP3    H254874   2.421   6.229   1.731
10299TIP3   OH254875   2.629   5.723   1.395
10299TIP3    H154876   2.609   5.819   1.386
10299TIP3    H254877   2.554   5.686   1.345
10300TIP3   OH254878   2.756   6.156   1.760
10300TIP3    H154879   2.723   6.132   1.849
10300TIP3    H254880   2.678   6.135   1.705
10301TIP3   OH254881   3.028   6.071   1.670
10301TIP3    H154882   2.932   6.076   1.680
10301TIP3    H254883   3.054   6.006   1.739
10302TIP3   OH254884   3.185   5.932   1.857
10302TIP3    H154885   3.182   5.834   1.861
10302TIP3    H254886   3.162   5.961   1.948
10303TIP3   OH254887   2.163   6.061   1.770
10303TIP3    H154888   2.187   5.987   1.712
10303TIP3    H254889   2.153   6.016   1.857
10304TIP3   OH254890   2.650   5.664   1.666
10304TIP3    H154891   2.718   5.593   1.665
10304TIP3    H254892   2.638   5.676   1.570
10305TIP3   OH254893   2.686   5.824   1.879
10305TIP3    H154894   2.669   5.773   1.796
10305TIP3    H254895   2.627   5.900   1.869
10306TIP3   OH254896   2.633   7.518   0.198
10306TIP3    H154897   2.730   7.527   0.204
10306TIP3    H254898   2.612   7.580   0.126
10307TIP3   OH254899   1.996   6.971   0.143
10307TIP3    H154900   2.091   6.984   0.162
10307TIP3    H254901   1.999   6.912   0.068
10308TIP3   OH254902   1.870   7.508   0.633
10308TIP3    H154903   1.795   7.459   0.594
10308TIP3    H254904   1.893   7.448   0.707
10309TIP3   OH254905   1.952   7.322   0.826
10309TIP3    H154906   1.914   7.236   0.847
10309TIP3    H254907   1.969   7.359   0.915
10310TIP3   OH254908   3.703   7.405   1.120
10310TIP3    H154909   3.706   7.422   1.215
10310TIP3    H254910   3.773   7.463   1.089
10311TIP3   OH254911   3.661   7.363   1.415
10311TIP3    H154912   3.613   7.287   1.376
10311TIP3    H254913   3.709   7.317   1.486
10312TIP3   OH254914   3.504   6.935   1.882
10312TIP3    H154915   3.414   6.933   1.918
10312TIP3    H254916   3.541   7.016   1.922
10313TIP3   OH254917   3.638   6.767   0.423
10313TIP3    H154918   3.724   6.808   0.445
10313TIP3    H254919   3.634   6.698   0.492
10314TIP3   OH254920   3.671   6.577   0.613
10314TIP3    H154921   3.596   6.527   0.652
10314TIP3    H254922   3.731   6.589   0.690
10315TIP3   OH254923   3.647   6.846   1.112
10315TIP3    H154924   3.728   6.808   1.073
10315TIP3    H254925   3.662   6.941   1.094
10316TIP3   OH254926   3.504   7.138   1.338
10316TIP3    H154927   3.435   7.171   1.397
10316TIP3    H254928   3.449   7.097   1.267
10317TIP3   OH254929   3.702   6.560   0.246
10317TIP3    H154930   3.640   6.594   0.178
10317TIP3    H254931   3.690   6.628   0.316
10318TIP3   OH254932   3.540   6.286   0.103
10318TIP3    H154933   3.539   6.351   0.032
10318TIP3    H254934   3.521   6.201   0.060
10319TIP3   OH254935   3.454   6.424   0.670
10319TIP3    H154936   3.439   6.328   0.665
10319TIP3    H254937   3.421   6.445   0.759
10320TIP3   OH254938   1.955   6.633   1.076
10320TIP3    H154939   1.973   6.624   0.979
10320TIP3    H254940   2.044   6.614   1.111
10321TIP3   OH254941   3.541   6.621   1.640
10321TIP3    H154942   3.602   6.545   1.652
10321TIP3    H254943   3.601   6.698   1.639
10322TIP3   OH254944   3.691   6.408   1.704
10322TIP3    H154945   3.602   6.368   1.689
10322TIP3    H254946   3.747   6.329   1.697
10323TIP3   OH254947   3.441   6.015   0.126
10323TIP3    H154948   3.528   5.982   0.096
10323TIP3    H254949   3.388   5.983   0.052
10324TIP3   OH254950   3.418   6.182   0.515
10324TIP3    H154951   3.449   6.089   0.526
10324TIP3    H254952   3.498   6.222   0.478
10325TIP3   OH254953   3.485   6.237   1.061
10325TIP3    H154954   3.581   6.259   1.059
10325TIP3    H254955   3.467   6.250   1.155
10326TIP3   OH254956   3.492   6.308   1.339
10326TIP3    H154957   3.403   6.337   1.369
10326TIP3    H254958   3.535   6.394   1.316
10327TIP3   OH254959   1.917   6.163   1.693
10327TIP3    H154960   2.011   6.141   1.711
10327TIP3    H254961   1.871   6.080   1.718
10328TIP3   OH254962   3.719   5.716   1.872
10328TIP3    H154963   3.754   5.650   1.810
10328TIP3    H254964   3.728   5.797   1.817
10329TIP3   OH254965   3.488   5.911   0.521
10329TIP3    H154966   3.511   5.867   0.606
10329TIP3    H254967   3.428   5.847   0.477
10330TIP3   OH254968   2.037   5.992   0.977
10330TIP3    H154969   2.082   5.909   1.001
10330TIP3    H254970   2.093   6.060   1.015
10331TIP3   OH254971   1.864   6.293   1.080
10331TIP3    H154972   1.921   6.266   1.004
10331TIP3    H254973   1.912   6.372   1.107
10332TIP3   OH254974   3.671   5.925   1.707
10332TIP3    H154975   3.577   5.953   1.702
10332TIP3    H254976   3.673   5.870   1.628
10333TIP3   OH254977   3.679   5.912   0.175
10333TIP3    H154978   3.720   5.844   0.120
10333TIP3    H254979   3.746   5.980   0.187
10334TIP3   OH254980   1.899   5.920   0.489
10334TIP3    H154981   1.805   5.934   0.473
10334TIP3    H254982   1.942   5.966   0.416
10335TIP3   OH254983   3.374   7.410   0.683
10335TIP3    H154984   3.442   7.382   0.619
10335TIP3    H254985   3.426   7.462   0.747
10336TIP3   OH254986   1.896   5.783   1.317
10336TIP3    H154987   1.829   5.763   1.385
10336TIP3    H254988   1.850   5.850   1.263
10337TIP3   OH254989   2.121   7.102   1.732
10337TIP3    H154990   2.037   7.125   1.688
10337TIP3    H254991   2.094   7.095   1.824
10338TIP3   OH254992   2.410   7.204   1.361
10338TIP3    H154993   2.378   7.291   1.334
10338TIP3    H254994   2.503   7.211   1.331
10339TIP3   OH254995   2.842   7.346   1.650
10339TIP3    H154996   2.855   7.311   1.741
10339TIP3    H254997   2.932   7.378   1.627
10340TIP3   OH254998   3.070   7.473   1.582
10340TIP3    H154999   3.144   7.416   1.558
10340TIP3    H255000   3.106   7.518   1.662
10341TIP3   OH255001   3.573   5.734   1.494
10341TIP3    H155002   3.490   5.764   1.452
10341TIP3    H255003   3.589   5.651   1.443
10342TIP3   OH255004   2.149   7.522   1.359
10342TIP3    H155005   2.080   7.579   1.321
10342TIP3    H255006   2.119   7.510   1.451
10343TIP3   OH255007   2.398   7.482   1.268
10343TIP3    H155008   2.310   7.503   1.307
10343TIP3    H255009   2.396   7.542   1.191
10344TIP3   OH255010   2.871   7.476   1.185
10344TIP3    H155011   2.825   7.531   1.120
10344TIP3    H255012   2.884   7.540   1.259
10345TIP3   OH255013   3.097   7.355   1.289
10345TIP3    H155014   3.014   7.385   1.250
10345TIP3    H255015   3.148   7.438   1.279
10346TIP3   OH255016   3.354   7.512   1.308
10346TIP3    H155017   3.350   7.608   1.287
10346TIP3    H255018   3.378   7.475   1.221
10347TIP3   OH255019   2.098   7.391   1.053
10347TIP3    H155020   2.089   7.347   1.141
10347TIP3    H255021   2.180   7.353   1.016
10348TIP3   OH255022   2.306   7.263   0.920
10348TIP3    H155023   2.290   7.170   0.944
10348TIP3    H255024   2.392   7.279   0.965
10349TIP3   OH255025   2.568   7.312   1.008
10349TIP3    H155026   2.582   7.219   0.982
10349TIP3    H255027   2.571   7.306   1.105
10350TIP3   OH255028   2.911   5.876   0.919
10350TIP3    H155029   2.844   5.813   0.950
10350TIP3    H255030   2.967   5.822   0.863
10351TIP3   OH255031   3.425   5.681   0.926
10351TIP3    H155032   3.486   5.740   0.876
10351TIP3    H255033   3.337   5.717   0.904
10352TIP3   OH255034   3.592   5.807   0.754
10352TIP3    H155035   3.660   5.749   0.713
10352TIP3    H255036   3.643   5.890   0.766
10353TIP3   OH255037   2.149   5.739   0.707
10353TIP3    H155038   2.069   5.721   0.654
10353TIP3    H255039   2.194   5.653   0.700
10354TIP3   OH255040   2.029   5.713   0.284
10354TIP3    H155041   2.074   5.778   0.227
10354TIP3    H255042   1.972   5.769   0.340
10355TIP3   OH255043   2.595   5.731   0.685
10355TIP3    H155044   2.685   5.767   0.676
10355TIP3    H255045   2.592   5.710   0.778
10356TIP3   OH255046   3.168   5.733   0.847
10356TIP3    H155047   3.162   5.745   0.751
10356TIP3    H255048   3.129   5.644   0.860
10357TIP3   OH255049   3.294   5.736   0.413
10357TIP3    H155050   3.219   5.796   0.400
10357TIP3    H255051   3.250   5.650   0.434
10358TIP3   OH255052   2.018   7.311   0.376
10358TIP3    H155053   1.945   7.311   0.312
10358TIP3    H255054   2.019   7.406   0.398
10359TIP3   OH255055   2.206   5.906   0.134
10359TIP3    H155056   2.262   5.848   0.081
10359TIP3    H255057   2.275   5.944   0.192
10360TIP3   OH255058   2.720   5.932   0.362
10360TIP3    H155059   2.737   5.876   0.440
10360TIP3    H255060   2.717   6.018   0.412
10361TIP3   OH255061   2.901   7.454   0.217
10361TIP3    H155062   2.997   7.464   0.201
10361TIP3    H255063   2.883   7.394   0.141
10362TIP3   OH255064   3.574   7.393   0.484
10362TIP3    H155065   3.553   7.313   0.429
10362TIP3    H255066   3.566   7.466   0.419
10363TIP3   OH255067   2.137   5.794   1.651
10363TIP3    H155068   2.097   5.714   1.690
10363TIP3    H255069   2.227   5.789   1.690
10364TIP3   OH255070   2.337   5.732   1.817
10364TIP3    H155071   2.426   5.699   1.795
10364TIP3    H255072   2.300   5.651   1.856
10365TIP3   OH255073   2.196   7.402   0.074
10365TIP3    H155074   2.168   7.435   0.160
10365TIP3    H255075   2.276   7.353   0.093
10366TIP3   OH255076   3.177   5.660   1.831
10366TIP3    H155077   3.187   5.613   1.916
10366TIP3    H255078   3.269   5.656   1.797
10367TIP3   OH255079   3.499   7.266   1.693
10367TIP3    H155080   3.418   7.252   1.638
10367TIP3    H255081   3.486   7.360   1.715
10368TIP3   OH255082   4.944   6.653   0.689
10368TIP3    H155083   4.941   6.752   0.688
10368TIP3    H255084   4.869   6.630   0.631
10369TIP3   OH255085   4.829   6.578   1.041
10369TIP3    H155086   4.827   6.514   1.113
10369TIP3    H255087   4.792   6.526   0.967
10370TIP3   OH255088   4.064   6.547   1.197
10370TIP3    H155089   4.072   6.477   1.265
10370TIP3    H255090   4.139   6.603   1.220
10371TIP3   OH255091   5.196   6.873   0.871
10371TIP3    H155092   5.156   6.802   0.920
10371TIP3    H255093   5.200   6.944   0.938
10372TIP3   OH255094   4.156   6.992   1.046
10372TIP3    H155095   4.125   6.904   1.015
10372TIP3    H255096   4.252   6.974   1.050
10373TIP3   OH255097   3.820   6.346   0.597
10373TIP3    H155098   3.776   6.433   0.590
10373TIP3    H255099   3.764   6.292   0.539
10374TIP3   OH255100   3.892   6.569   0.812
10374TIP3    H155101   3.920   6.486   0.856
10374TIP3    H255102   3.960   6.581   0.744
10375TIP3   OH255103   4.909   7.390   0.895
10375TIP3    H155104   4.974   7.321   0.865
10375TIP3    H255105   4.886   7.354   0.981
10376TIP3   OH255106   4.666   6.818   1.091
10376TIP3    H155107   4.699   6.756   1.024
10376TIP3    H255108   4.748   6.834   1.141
10377TIP3   OH255109   5.524   5.985   1.160
10377TIP3    H155110   5.543   6.043   1.237
10377TIP3    H255111   5.583   6.026   1.095
10378TIP3   OH255112   4.983   6.264   1.124
10378TIP3    H155113   5.000   6.169   1.121
10378TIP3    H255114   4.972   6.280   1.028
10379TIP3   OH255115   4.294   6.074   0.842
10379TIP3    H155116   4.305   6.157   0.792
10379TIP3    H255117   4.254   6.017   0.772
10380TIP3   OH255118   5.068   6.081   0.678
10380TIP3    H155119   5.132   6.051   0.746
10380TIP3    H255120   5.125   6.139   0.625
10381TIP3   OH255121   3.956   6.316   0.915
10381TIP3    H155122   4.023   6.262   0.961
10381TIP3    H255123   3.968   6.284   0.824
10382TIP3   OH255124   4.472   6.471   0.849
10382TIP3    H155125   4.540   6.413   0.886
10382TIP3    H255126   4.421   6.406   0.796
10383TIP3   OH255127   5.569   6.124   1.389
10383TIP3    H155128   5.511   6.202   1.376
10383TIP3    H255129   5.572   6.118   1.485
10384TIP3   OH255130   4.186   5.964   1.245
10384TIP3    H155131   4.157   6.022   1.171
10384TIP3    H255132   4.118   5.987   1.314
10385TIP3   OH255133   4.912   6.912   0.601
10385TIP3    H155134   4.886   6.884   0.513
10385TIP3    H255135   4.884   7.006   0.604
10386TIP3   OH255136   4.436   6.728   1.269
10386TIP3    H155137   4.366   6.793   1.292
10386TIP3    H255138   4.507   6.788   1.240
10387TIP3   OH255139   5.249   6.018   0.879
10387TIP3    H155140   5.227   5.940   0.931
10387TIP3    H255141   5.318   6.060   0.932
10388TIP3   OH255142   4.143   6.149   1.050
10388TIP3    H155143   4.205   6.219   1.081
10388TIP3    H255144   4.194   6.110   0.975
10389TIP3   OH255145   4.282   6.929   1.352
10389TIP3    H155146   4.276   7.021   1.318
10389TIP3    H255147   4.193   6.921   1.396
10390TIP3   OH255148   3.888   6.888   0.429
10390TIP3    H155149   3.866   6.923   0.340
10390TIP3    H255150   3.896   6.970   0.482
10391TIP3   OH255151   5.250   7.057   1.107
10391TIP3    H155152   5.153   7.069   1.119
10391TIP3    H255153   5.276   7.149   1.086
10392TIP3   OH255154   5.282   5.885   1.245
10392TIP3    H155155   5.210   5.947   1.233
10392TIP3    H255156   5.354   5.927   1.194
10393TIP3   OH255157   4.578   5.698   0.992
10393TIP3    H155158   4.563   5.602   0.984
10393TIP3    H255159   4.490   5.729   1.023
10394TIP3   OH255160   5.077   7.235   0.769
10394TIP3    H155161   5.118   7.163   0.716
10394TIP3    H255162   5.121   7.313   0.729
10395TIP3   OH255163   5.198   7.028   0.619
10395TIP3    H155164   5.169   6.960   0.556
10395TIP3    H255165   5.200   6.977   0.702
10396TIP3   OH255166   5.357   6.889   1.467
10396TIP3    H155167   5.373   6.823   1.396
10396TIP3    H255168   5.380   6.972   1.421
10397TIP3   OH255169   4.808   6.573   0.441
10397TIP3    H155170   4.741   6.635   0.407
10397TIP3    H255171   4.880   6.586   0.377
10398TIP3   OH255172   4.817   6.432   0.146
10398TIP3    H155173   4.888   6.435   0.212
10398TIP3    H255174   4.846   6.359   0.091
10399TIP3   OH255175   5.547   6.520   1.269
10399TIP3    H155176   5.482   6.592   1.274
10399TIP3    H255177   5.598   6.544   1.190
10400TIP3   OH255178   5.155   6.598   0.537
10400TIP3    H155179   5.080   6.622   0.596
10400TIP3    H255180   5.202   6.530   0.589
10401TIP3   OH255181   5.137   6.411   1.458
10401TIP3    H155182   5.150   6.500   1.497
10401TIP3    H255183   5.087   6.442   1.379
10402TIP3   OH255184   4.314   6.663   0.727
10402TIP3    H155185   4.283   6.624   0.642
10402TIP3    H255186   4.376   6.594   0.760
10403TIP3   OH255187   4.446   7.001   0.995
10403TIP3    H155188   4.446   6.950   0.913
10403TIP3    H255189   4.525   6.966   1.040
10404TIP3   OH255190   4.347   6.538   1.094
10404TIP3    H155191   4.401   6.547   1.013
10404TIP3    H255192   4.387   6.605   1.154
10405TIP3   OH255193   4.991   7.096   1.165
10405TIP3    H155194   4.962   7.160   1.231
10405TIP3    H255195   4.965   7.011   1.206
10406TIP3   OH255196   4.443   6.982   1.563
10406TIP3    H155197   4.400   7.055   1.612
10406TIP3    H255198   4.376   6.961   1.493
10407TIP3   OH255199   5.040   6.518   0.302
10407TIP3    H155200   5.095   6.537   0.382
10407TIP3    H255201   5.086   6.569   0.231
10408TIP3   OH255202   4.138   6.597   1.477
10408TIP3    H155203   4.143   6.664   1.548
10408TIP3    H255204   4.043   6.605   1.458
10409TIP3   OH255205   4.814   7.192   0.646
10409TIP3    H155206   4.855   7.221   0.728
10409TIP3    H255207   4.756   7.265   0.623
10410TIP3   OH255208   4.268   7.184   1.637
10410TIP3    H155209   4.261   7.176   1.541
10410TIP3    H255210   4.175   7.171   1.665
10411TIP3   OH255211   5.416   5.691   0.290
10411TIP3    H155212   5.321   5.700   0.312
10411TIP3    H255213   5.433   5.776   0.246
10412TIP3   OH255214   4.212   6.565   0.486
10412TIP3    H155215   4.182   6.644   0.438
10412TIP3    H255216   4.146   6.499   0.465
10413TIP3   OH255217   5.528   7.125   0.128
10413TIP3    H155218   5.541   7.219   0.146
10413TIP3    H255219   5.620   7.093   0.125
10414TIP3   OH255220   3.820   6.809   1.380
10414TIP3    H155221   3.776   6.801   1.293
10414TIP3    H255222   3.830   6.714   1.401
10415TIP3   OH255223   3.796   7.082   1.056
10415TIP3    H155224   3.892   7.071   1.054
10415TIP3    H255225   3.788   7.165   1.106
10416TIP3   OH255226   5.621   7.153   1.626
10416TIP3    H155227   5.608   7.057   1.622
10416TIP3    H255228   5.533   7.178   1.664
10417TIP3   OH255229   4.716   7.107   1.511
10417TIP3    H155230   4.722   7.191   1.562
10417TIP3    H255231   4.629   7.070   1.536
10418TIP3   OH255232   4.761   7.482   0.492
10418TIP3    H155233   4.751   7.476   0.396
10418TIP3    H255234   4.763   7.578   0.508
10419TIP3   OH255235   4.124   7.369   0.672
10419TIP3    H155236   4.139   7.329   0.761
10419TIP3    H255237   4.039   7.328   0.649
10420TIP3   OH255238   5.060   7.397   0.196
10420TIP3    H155239   5.115   7.328   0.152
10420TIP3    H255240   5.072   7.372   0.289
10421TIP3   OH255241   5.034   7.396   0.468
10421TIP3    H155242   4.938   7.403   0.486
10421TIP3    H255243   5.059   7.322   0.525
10422TIP3   OH255244   5.323   6.297   1.677
10422TIP3    H155245   5.295   6.347   1.598
10422TIP3    H255246   5.338   6.208   1.642
10423TIP3   OH255247   4.050   6.940   1.473
10423TIP3    H155248   4.071   6.904   1.561
10423TIP3    H255249   3.962   6.901   1.452
10424TIP3   OH255250   4.318   5.789   1.067
10424TIP3    H155251   4.228   5.775   1.031
10424TIP3    H255252   4.303   5.871   1.117
10425TIP3   OH255253   4.783   5.755   1.404
10425TIP3    H155254   4.821   5.711   1.482
10425TIP3    H255255   4.685   5.744   1.418
10426TIP3   OH255256   5.114   6.139   1.492
10426TIP3    H155257   5.055   6.104   1.563
10426TIP3    H255258   5.093   6.230   1.462
10427TIP3   OH255259   5.194   6.604   0.089
10427TIP3    H155260   5.178   6.616  -0.006
10427TIP3    H255261   5.271   6.663   0.096
10428TIP3   OH255262   4.747   6.012   0.137
10428TIP3    H155263   4.711   6.006   0.228
10428TIP3    H255264   4.715   5.926   0.105
10429TIP3   OH255265   4.328   6.287   1.195
10429TIP3    H155266   4.253   6.285   1.258
10429TIP3    H255267   4.320   6.376   1.155
10430TIP3   OH255268   4.323   6.296   0.681
10430TIP3    H155269   4.229   6.272   0.666
10430TIP3    H255270   4.361   6.269   0.595
10431TIP3   OH255271   4.875   6.347   0.554
10431TIP3    H155272   4.837   6.431   0.519
10431TIP3    H255273   4.945   6.330   0.488
10432TIP3   OH255274   4.790   6.361   1.694
10432TIP3    H155275   4.725   6.295   1.730
10432TIP3    H255276   4.853   6.369   1.768
10433TIP3   OH255277   4.980   6.297   0.842
10433TIP3    H155278   4.950   6.353   0.768
10433TIP3    H255279   4.988   6.212   0.795
10434TIP3   OH255280   4.089   6.309   1.360
10434TIP3    H155281   4.099   6.350   1.447
10434TIP3    H255282   4.046   6.225   1.382
10435TIP3   OH255283   4.432   5.963   0.062
10435TIP3    H155284   4.390   5.979   0.147
10435TIP3    H255285   4.377   6.027   0.015
10436TIP3   OH255286   3.756   6.020   0.761
10436TIP3    H155287   3.825   6.016   0.830
10436TIP3    H255288   3.800   5.984   0.682
10437TIP3   OH255289   3.882   6.092   0.294
10437TIP3    H155290   3.933   6.154   0.239
10437TIP3    H255291   3.814   6.154   0.329
10438TIP3   OH255292   4.904   6.454   1.299
10438TIP3    H155293   4.936   6.386   1.235
10438TIP3    H255294   4.847   6.402   1.358
10439TIP3   OH255295   4.580   6.054   0.780
10439TIP3    H155296   4.486   6.053   0.808
10439TIP3    H255297   4.627   6.034   0.862
10440TIP3   OH255298   4.059   6.207   0.667
10440TIP3    H155299   3.971   6.224   0.627
10440TIP3    H255300   4.088   6.124   0.626
10441TIP3   OH255301   4.423   6.215   0.434
10441TIP3    H155302   4.519   6.223   0.447
10441TIP3    H255303   4.399   6.279   0.365
10442TIP3   OH255304   5.020   5.977   1.103
10442TIP3    H155305   4.951   5.979   1.172
10442TIP3    H255306   4.969   5.950   1.025
10443TIP3   OH255307   4.288   6.341   0.193
10443TIP3    H155308   4.243   6.291   0.123
10443TIP3    H255309   4.374   6.348   0.147
10444TIP3   OH255310   5.338   7.539   1.737
10444TIP3    H155311   5.365   7.577   1.651
10444TIP3    H255312   5.412   7.571   1.791
10445TIP3   OH255313   4.107   6.786   1.694
10445TIP3    H155314   4.179   6.812   1.754
10445TIP3    H255315   4.030   6.793   1.754
10446TIP3   OH255316   4.707   6.329   0.969
10446TIP3    H155317   4.767   6.276   0.916
10446TIP3    H255318   4.692   6.273   1.047
10447TIP3   OH255319   4.207   5.943   0.617
10447TIP3    H155320   4.176   5.851   0.614
10447TIP3    H255321   4.285   5.936   0.559
10448TIP3   OH255322   4.570   6.160   1.210
10448TIP3    H155323   4.488   6.213   1.218
10448TIP3    H255324   4.626   6.196   1.281
10449TIP3   OH255325   4.630   6.780   0.382
10449TIP3    H155326   4.550   6.736   0.347
10449TIP3    H255327   4.605   6.796   0.475
10450TIP3   OH255328   5.350   6.704   1.261
10450TIP3    H155329   5.405   6.753   1.197
10450TIP3    H255330   5.263   6.707   1.215
10451TIP3   OH255331   5.014   6.071   0.184
10451TIP3    H155332   4.917   6.075   0.187
10451TIP3    H255333   5.047   6.147   0.237
10452TIP3   OH255334   4.780   6.810   1.506
10452TIP3    H155335   4.742   6.769   1.584
10452TIP3    H255336   4.753   6.903   1.515
10453TIP3   OH255337   5.084   6.257   0.365
10453TIP3    H155338   5.174   6.241   0.400
10453TIP3    H255339   5.096   6.338   0.313
10454TIP3   OH255340   4.141   6.724   0.961
10454TIP3    H155341   4.208   6.714   0.891
10454TIP3    H255342   4.147   6.638   1.006
10455TIP3   OH255343   4.840   6.930   0.285
10455TIP3    H155344   4.804   7.015   0.317
10455TIP3    H255345   4.766   6.868   0.305
10456TIP3   OH255346   3.840   6.563   1.486
10456TIP3    H155347   3.856   6.518   1.572
10456TIP3    H255348   3.777   6.502   1.442
10457TIP3   OH255349   4.541   6.518   1.704
10457TIP3    H155350   4.506   6.488   1.618
10457TIP3    H255351   4.633   6.488   1.701
10458TIP3   OH255352   5.011   7.053   1.500
10458TIP3    H155353   4.918   7.070   1.477
10458TIP3    H255354   5.007   7.082   1.594
10459TIP3   OH255355   5.577   6.269   0.339
10459TIP3    H155356   5.518   6.240   0.267
10459TIP3    H255357   5.583   6.364   0.314
10460TIP3   OH255358   5.575   6.856   1.618
10460TIP3    H155359   5.486   6.879   1.582
10460TIP3    H255360   5.630   6.851   1.537
10461TIP3   OH255361   5.410   7.151   0.379
10461TIP3    H155362   5.369   7.070   0.410
10461TIP3    H255363   5.434   7.134   0.286
10462TIP3   OH255364   5.126   6.635   1.089
10462TIP3    H155365   5.032   6.614   1.077
10462TIP3    H255366   5.170   6.560   1.044
10463TIP3   OH255367   4.378   7.068   0.699
10463TIP3    H155368   4.428   7.149   0.679
10463TIP3    H255369   4.291   7.091   0.666
10464TIP3   OH255370   3.953   6.554   0.149
10464TIP3    H155371   4.012   6.613   0.199
10464TIP3    H255372   3.866   6.583   0.183
10465TIP3   OH255373   4.519   6.835   0.651
10465TIP3    H155374   4.487   6.926   0.659
10465TIP3    H255375   4.448   6.785   0.695
10466TIP3   OH255376   4.564   7.254   1.293
10466TIP3    H155377   4.611   7.333   1.263
10466TIP3    H255378   4.626   7.219   1.359
10467TIP3   OH255379   4.387   7.333   0.605
10467TIP3    H155380   4.290   7.348   0.617
10467TIP3    H255381   4.424   7.417   0.636
10468TIP3   OH255382   4.915   6.852   1.252
10468TIP3    H155383   4.885   6.833   1.344
10468TIP3    H255384   4.980   6.782   1.236
10469TIP3   OH255385   5.145   6.957   0.163
10469TIP3    H155386   5.181   6.914   0.242
10469TIP3    H255387   5.051   6.940   0.178
10470TIP3   OH255388   5.200   7.311   1.501
10470TIP3    H155389   5.130   7.262   1.455
10470TIP3    H255390   5.217   7.381   1.435
10471TIP3   OH255391   5.596   7.394   0.186
10471TIP3    H155392   5.667   7.457   0.169
10471TIP3    H255393   5.525   7.457   0.214
10472TIP3   OH255394   4.005   6.036   1.441
10472TIP3    H155395   3.914   6.072   1.440
10472TIP3    H255396   3.994   5.952   1.488
10473TIP3   OH255397   5.228   6.824   0.392
10473TIP3    H155398   5.204   6.744   0.442
10473TIP3    H255399   5.325   6.826   0.404
10474TIP3   OH255400   3.966   7.214   1.284
10474TIP3    H155401   3.998   7.122   1.284
10474TIP3    H255402   3.992   7.243   1.371
10475TIP3   OH255403   4.438   7.022   0.258
10475TIP3    H155404   4.472   6.970   0.332
10475TIP3    H255405   4.450   7.115   0.290
10476TIP3   OH255406   4.092   6.745   0.303
10476TIP3    H155407   4.023   6.785   0.360
10476TIP3    H255408   4.147   6.822   0.280
10477TIP3   OH255409   4.876   6.016   1.343
10477TIP3    H155410   4.954   6.014   1.398
10477TIP3    H255411   4.839   5.927   1.357
10478TIP3   OH255412   4.953   5.971   0.449
10478TIP3    H155413   4.977   6.016   0.368
10478TIP3    H255414   5.010   6.016   0.513
10479TIP3   OH255415   4.718   7.184   0.324
10479TIP3    H155416   4.639   7.241   0.340
10479TIP3    H255417   4.775   7.240   0.269
10480TIP3   OH255418   4.675   6.147   0.530
10480TIP3    H155419   4.754   6.205   0.533
10480TIP3    H255420   4.650   6.135   0.624
10481TIP3   OH255421   4.734   6.250   1.445
10481TIP3    H155422   4.733   6.302   1.528
10481TIP3    H255423   4.793   6.174   1.455
10482TIP3   OH255424   4.760   5.850   0.614
10482TIP3    H155425   4.726   5.916   0.677
10482TIP3    H255426   4.830   5.905   0.571
10483TIP3   OH255427   4.459   7.292   0.333
10483TIP3    H155428   4.475   7.374   0.280
10483TIP3    H255429   4.432   7.327   0.421
10484TIP3   OH255430   4.322   5.962   0.303
10484TIP3    H155431   4.323   6.056   0.327
10484TIP3    H255432   4.416   5.935   0.312
10485TIP3   OH255433   5.348   6.034   1.533
10485TIP3    H155434   5.257   6.065   1.517
10485TIP3    H255435   5.381   6.031   1.441
10486TIP3   OH255436   5.210   6.414   0.932
10486TIP3    H155437   5.128   6.369   0.905
10486TIP3    H255438   5.259   6.345   0.983
10487TIP3   OH255439   4.153   7.005   0.193
10487TIP3    H155440   4.218   7.068   0.226
10487TIP3    H255441   4.202   6.961   0.122
10488TIP3   OH255442   3.983   6.274   0.108
10488TIP3    H155443   3.984   6.370   0.126
10488TIP3    H255444   3.895   6.257   0.075
10489TIP3   OH255445   5.317   7.338   1.099
10489TIP3    H155446   5.307   7.408   1.031
10489TIP3    H255447   5.413   7.345   1.117
10490TIP3   OH255448   4.065   5.752   0.982
10490TIP3    H155449   4.047   5.753   0.885
10490TIP3    H255450   4.025   5.666   1.006
10491TIP3   OH255451   3.960   7.146   0.596
10491TIP3    H155452   3.874   7.189   0.590
10491TIP3    H255453   4.007   7.189   0.524
10492TIP3   OH255454   3.882   7.410   1.723
10492TIP3    H155455   3.941   7.388   1.798
10492TIP3    H255456   3.840   7.324   1.705
10493TIP3   OH255457   4.351   7.301   1.883
10493TIP3    H155458   4.426   7.250   1.917
10493TIP3    H255459   4.347   7.273   1.790
10494TIP3   OH255460   4.769   7.263   0.052
10494TIP3    H155461   4.699   7.198   0.068
10494TIP3    H255462   4.839   7.213   0.009
10495TIP3   OH255463   4.999   7.140   1.760
10495TIP3    H155464   4.968   7.051   1.787
10495TIP3    H255465   5.076   7.152   1.818
10496TIP3   OH255466   5.242   7.221   0.100
10496TIP3    H155467   5.253   7.125   0.097
10496TIP3    H255468   5.274   7.251   0.013
10497TIP3   OH255469   3.871   6.786   1.823
10497TIP3    H155470   3.888   6.695   1.794
10497TIP3    H255471   3.798   6.812   1.765
10498TIP3   OH255472   4.293   6.804   0.026
10498TIP3    H155473   4.324   6.737   0.089
10498TIP3    H255474   4.370   6.810  -0.032
10499TIP3   OH255475   4.544   6.786   1.761
10499TIP3    H155476   4.511   6.818   1.675
10499TIP3    H255477   4.550   6.688   1.750
10500TIP3   OH255478   5.112   6.770   1.501
10500TIP3    H155479   5.192   6.827   1.496
10500TIP3    H255480   5.044   6.839   1.503
10501TIP3   OH255481   3.965   6.509   1.761
10501TIP3    H155482   4.007   6.423   1.753
10501TIP3    H255483   3.942   6.510   1.856
10502TIP3   OH255484   4.428   6.626   0.266
10502TIP3    H155485   4.379   6.570   0.329
10502TIP3    H255486   4.461   6.557   0.203
10503TIP3   OH255487   4.354   6.403   1.496
10503TIP3    H155488   4.294   6.475   1.521
10503TIP3    H255489   4.395   6.440   1.415
10504TIP3   OH255490   4.538   6.448   0.094
10504TIP3    H155491   4.516   6.433  -0.000
10504TIP3    H255492   4.635   6.454   0.096
10505TIP3   OH255493   4.864   6.655   1.825
10505TIP3    H155494   4.960   6.662   1.823
10505TIP3    H255495   4.847   6.585   1.890
10506TIP3   OH255496   5.466   6.675  11.013
10506TIP3    H155497   5.451   6.637  10.927
10506TIP3    H255498   5.473   6.770  10.992
10507TIP3   OH255499   4.396   6.141   1.601
10507TIP3    H155500   4.407   6.071   1.535
10507TIP3    H255501   4.390   6.222   1.547
10508TIP3   OH255502   4.435   5.979   1.357
10508TIP3    H155503   4.486   6.026   1.287
10508TIP3    H255504   4.346   5.972   1.317
10509TIP3   OH255505   4.592   6.530   1.384
10509TIP3    H155506   4.664   6.513   1.322
10509TIP3    H255507   4.552   6.611   1.349
10510TIP3   OH255508   5.033   6.299   1.864
10510TIP3    H155509   5.057   6.207   1.887
10510TIP3    H255510   5.114   6.348   1.888
10511TIP3   OH255511   5.163   6.581   1.694
10511TIP3    H155512   5.139   6.656   1.635
10511TIP3    H255513   5.260   6.582   1.678
10512TIP3   OH255514   4.242   6.267   1.793
10512TIP3    H155515   4.165   6.209   1.778
10512TIP3    H255516   4.306   6.229   1.731
10513TIP3   OH255517   4.515   5.723   1.395
10513TIP3    H155518   4.495   5.819   1.386
10513TIP3    H255519   4.440   5.686   1.345
10514TIP3   OH255520   4.642   6.156   1.760
10514TIP3    H155521   4.608   6.132   1.849
10514TIP3    H255522   4.563   6.135   1.706
10515TIP3   OH255523   4.911   6.067   1.671
10515TIP3    H155524   4.813   6.066   1.681
10515TIP3    H255525   4.937   6.000   1.738
10516TIP3   OH255526   5.067   5.934   1.855
10516TIP3    H155527   5.068   5.835   1.860
10516TIP3    H255528   5.049   5.960   1.948
10517TIP3   OH255529   4.049   6.061   1.770
10517TIP3    H155530   4.073   5.987   1.712
10517TIP3    H255531   4.039   6.016   1.857
10518TIP3   OH255532   4.536   5.664   1.666
10518TIP3    H155533   4.603   5.593   1.665
10518TIP3    H255534   4.524   5.676   1.570
10519TIP3   OH255535   4.572   5.824   1.879
10519TIP3    H155536   4.554   5.773   1.796
10519TIP3    H255537   4.512   5.900   1.869
10520TIP3   OH255538   4.518   7.518   0.198
10520TIP3    H155539   4.615   7.527   0.204
10520TIP3    H255540   4.498   7.580   0.127
10521TIP3   OH255541   3.881   6.971   0.144
10521TIP3    H155542   3.977   6.983   0.162
10521TIP3    H255543   3.883   6.914   0.067
10522TIP3   OH255544   3.755   7.509   0.636
10522TIP3    H155545   3.680   7.461   0.592
10522TIP3    H255546   3.780   7.445   0.706
10523TIP3   OH255547   3.834   7.325   0.827
10523TIP3    H155548   3.799   7.237   0.847
10523TIP3    H255549   3.857   7.358   0.916
10524TIP3   OH255550   5.588   7.405   1.119
10524TIP3    H155551   5.591   7.421   1.215
10524TIP3    H255552   5.659   7.463   1.089
10525TIP3   OH255553   5.546   7.363   1.415
10525TIP3    H155554   5.498   7.287   1.376
10525TIP3    H255555   5.594   7.317   1.486
10526TIP3   OH255556   5.390   6.935   1.882
10526TIP3    H155557   5.299   6.933   1.918
10526TIP3    H255558   5.427   7.016   1.922
10527TIP3   OH255559   5.524   6.767   0.423
10527TIP3    H155560   5.609   6.808   0.445
10527TIP3    H255561   5.520   6.698   0.492
10528TIP3   OH255562   5.557   6.577   0.613
10528TIP3    H155563   5.482   6.527   0.652
10528TIP3    H255564   5.617   6.589   0.690
10529TIP3   OH255565   5.533   6.846   1.112
10529TIP3    H155566   5.614   6.808   1.073
10529TIP3    H255567   5.548   6.941   1.095
10530TIP3   OH255568   5.389   7.137   1.338
10530TIP3    H155569   5.320   7.171   1.396
10530TIP3    H255570   5.334   7.097   1.267
10531TIP3   OH255571   5.587   6.560   0.246
10531TIP3    H155572   5.526   6.594   0.178
10531TIP3    H255573   5.575   6.628   0.316
10532TIP3   OH255574   5.425   6.286   0.102
10532TIP3    H155575   5.425   6.351   0.032
10532TIP3    H255576   5.404   6.201   0.059
10533TIP3   OH255577   5.340   6.424   0.670
10533TIP3    H155578   5.325   6.328   0.665
10533TIP3    H255579   5.308   6.444   0.760
10534TIP3   OH255580   3.841   6.633   1.077
10534TIP3    H155581   3.858   6.624   0.980
10534TIP3    H255582   3.930   6.614   1.111
10535TIP3   OH255583   5.425   6.619   1.640
10535TIP3    H155584   5.489   6.545   1.652
10535TIP3    H255585   5.485   6.697   1.639
10536TIP3   OH255586   5.575   6.407   1.704
10536TIP3    H155587   5.488   6.368   1.689
10536TIP3    H255588   5.633   6.329   1.697
10537TIP3   OH255589   5.328   6.015   0.128
10537TIP3    H155590   5.414   5.982   0.094
10537TIP3    H255591   5.272   5.988   0.055
10538TIP3   OH255592   5.304   6.182   0.515
10538TIP3    H155593   5.334   6.089   0.526
10538TIP3    H255594   5.384   6.222   0.477
10539TIP3   OH255595   5.370   6.237   1.060
10539TIP3    H155596   5.467   6.259   1.058
10539TIP3    H255597   5.352   6.250   1.155
10540TIP3   OH255598   5.376   6.309   1.343
10540TIP3    H155599   5.287   6.338   1.368
10540TIP3    H255600   5.421   6.393   1.315
10541TIP3   OH255601   3.803   6.163   1.693
10541TIP3    H155602   3.896   6.141   1.711
10541TIP3    H255603   3.756   6.080   1.718
10542TIP3   OH255604   5.605   5.716   1.872
10542TIP3    H155605   5.640   5.649   1.810
10542TIP3    H255606   5.614   5.796   1.817
10543TIP3   OH255607   5.374   5.911   0.521
10543TIP3    H155608   5.397   5.867   0.606
10543TIP3    H255609   5.314   5.848   0.477
10544TIP3   OH255610   3.922   5.992   0.977
10544TIP3    H155611   3.968   5.909   1.001
10544TIP3    H255612   3.979   6.061   1.015
10545TIP3   OH255613   3.750   6.292   1.080
10545TIP3    H155614   3.807   6.266   1.004
10545TIP3    H255615   3.798   6.372   1.107
10546TIP3   OH255616   5.557   5.925   1.707
10546TIP3    H155617   5.464   5.952   1.703
10546TIP3    H255618   5.559   5.870   1.627
10547TIP3   OH255619   5.566   5.911   0.176
10547TIP3    H155620   5.606   5.844   0.119
10547TIP3    H255621   5.632   5.980   0.186
10548TIP3   OH255622   3.785   5.918   0.488
10548TIP3    H155623   3.691   5.936   0.473
10548TIP3    H255624   3.828   5.968   0.417
10549TIP3   OH255625   5.261   7.411   0.682
10549TIP3    H155626   5.328   7.382   0.618
10549TIP3    H255627   5.312   7.462   0.747
10550TIP3   OH255628   3.781   5.782   1.316
10550TIP3    H155629   3.715   5.763   1.385
10550TIP3    H255630   3.736   5.850   1.263
10551TIP3   OH255631   4.006   7.102   1.733
10551TIP3    H155632   3.923   7.125   1.688
10551TIP3    H255633   3.979   7.096   1.824
10552TIP3   OH255634   4.295   7.204   1.362
10552TIP3    H155635   4.264   7.292   1.334
10552TIP3    H255636   4.388   7.212   1.331
10553TIP3   OH255637   4.728   7.346   1.650
10553TIP3    H155638   4.741   7.311   1.741
10553TIP3    H255639   4.818   7.378   1.627
10554TIP3   OH255640   4.956   7.473   1.582
10554TIP3    H155641   5.030   7.416   1.558
10554TIP3    H255642   4.992   7.518   1.662
10555TIP3   OH255643   5.458   5.734   1.494
10555TIP3    H155644   5.376   5.764   1.452
10555TIP3    H255645   5.475   5.651   1.443
10556TIP3   OH255646   4.038   7.530   1.364
10556TIP3    H155647   3.964   7.573   1.319
10556TIP3    H255648   4.003   7.506   1.451
10557TIP3   OH255649   4.285   7.485   1.270
10557TIP3    H155650   4.195   7.502   1.306
10557TIP3    H255651   4.281   7.541   1.190
10558TIP3   OH255652   4.757   7.476   1.185
10558TIP3    H155653   4.711   7.531   1.120
10558TIP3    H255654   4.770   7.540   1.259
10559TIP3   OH255655   4.983   7.355   1.289
10559TIP3    H155656   4.899   7.385   1.250
10559TIP3    H255657   5.034   7.438   1.279
10560TIP3   OH255658   5.240   7.512   1.308
10560TIP3    H155659   5.235   7.608   1.287
10560TIP3    H255660   5.264   7.475   1.221
10561TIP3   OH255661   3.984   7.392   1.055
10561TIP3    H155662   3.976   7.346   1.142
10561TIP3    H255663   4.066   7.353   1.016
10562TIP3   OH255664   4.192   7.263   0.920
10562TIP3    H155665   4.176   7.170   0.944
10562TIP3    H255666   4.278   7.279   0.964
10563TIP3   OH255667   4.453   7.312   1.008
10563TIP3    H155668   4.468   7.219   0.982
10563TIP3    H255669   4.457   7.306   1.105
10564TIP3   OH255670   4.797   5.876   0.919
10564TIP3    H155671   4.730   5.813   0.950
10564TIP3    H255672   4.853   5.822   0.863
10565TIP3   OH255673   5.311   5.680   0.926
10565TIP3    H155674   5.372   5.740   0.876
10565TIP3    H255675   5.223   5.717   0.904
10566TIP3   OH255676   5.477   5.807   0.754
10566TIP3    H155677   5.546   5.749   0.713
10566TIP3    H255678   5.529   5.890   0.766
10567TIP3   OH255679   4.035   5.738   0.708
10567TIP3    H155680   3.955   5.721   0.654
10567TIP3    H255681   4.080   5.652   0.699
10568TIP3   OH255682   3.914   5.714   0.284
10568TIP3    H155683   3.959   5.780   0.227
10568TIP3    H255684   3.857   5.771   0.339
10569TIP3   OH255685   4.480   5.731   0.685
10569TIP3    H155686   4.570   5.767   0.676
10569TIP3    H255687   4.478   5.709   0.778
10570TIP3   OH255688   5.054   5.733   0.847
10570TIP3    H155689   5.047   5.745   0.751
10570TIP3    H255690   5.015   5.644   0.860
10571TIP3   OH255691   5.179   5.736   0.413
10571TIP3    H155692   5.105   5.796   0.401
10571TIP3    H255693   5.135   5.650   0.434
10572TIP3   OH255694   3.905   7.311   0.376
10572TIP3    H155695   3.832   7.311   0.311
10572TIP3    H255696   3.906   7.405   0.397
10573TIP3   OH255697   4.093   5.902   0.134
10573TIP3    H155698   4.150   5.846   0.081
10573TIP3    H255699   4.159   5.945   0.191
10574TIP3   OH255700   4.602   5.935   0.365
10574TIP3    H155701   4.622   5.875   0.440
10574TIP3    H255702   4.605   6.019   0.415
10575TIP3   OH255703   4.787   7.454   0.217
10575TIP3    H155704   4.883   7.464   0.200
10575TIP3    H255705   4.769   7.394   0.141
10576TIP3   OH255706   5.460   7.393   0.484
10576TIP3    H155707   5.439   7.313   0.429
10576TIP3    H255708   5.452   7.466   0.419
10577TIP3   OH255709   4.023   5.794   1.651
10577TIP3    H155710   3.982   5.714   1.690
10577TIP3    H255711   4.113   5.789   1.690
10578TIP3   OH255712   4.222   5.733   1.817
10578TIP3    H155713   4.312   5.699   1.795
10578TIP3    H255714   4.185   5.651   1.856
10579TIP3   OH255715   4.081   7.402   0.074
10579TIP3    H155716   4.054   7.436   0.160
10579TIP3    H255717   4.162   7.353   0.093
10580TIP3   OH255718   5.064   5.661   1.832
10580TIP3    H155719   5.073   5.612   1.916
10580TIP3    H255720   5.155   5.657   1.797
10581TIP3   OH255721   5.384   7.266   1.693
10581TIP3    H155722   5.304   7.252   1.638
10581TIP3    H255723   5.372   7.360   1.715
10582TIP3   OH255724   6.830   6.654   0.689
10582TIP3    H155725   6.826   6.752   0.688
10582TIP3    H255726   6.755   6.630   0.631
10583TIP3   OH255727   6.715   6.578   1.041
10583TIP3    H155728   6.713   6.514   1.113
10583TIP3    H255729   6.678   6.526   0.967
10584TIP3   OH255730   5.949   6.547   1.197
10584TIP3    H155731   5.958   6.477   1.265
10584TIP3    H255732   6.024   6.603   1.219
10585TIP3   OH255733   7.082   6.873   0.871
10585TIP3    H155734   7.041   6.801   0.920
10585TIP3    H255735   7.085   6.944   0.938
10586TIP3   OH255736   6.042   6.992   1.046
10586TIP3    H155737   6.011   6.904   1.015
10586TIP3    H255738   6.137   6.974   1.050
10587TIP3   OH255739   5.705   6.346   0.596
10587TIP3    H155740   5.662   6.433   0.590
10587TIP3    H255741   5.650   6.292   0.539
10588TIP3   OH255742   5.777   6.569   0.812
10588TIP3    H155743   5.805   6.486   0.856
10588TIP3    H255744   5.845   6.581   0.744
10589TIP3   OH255745   6.794   7.390   0.895
10589TIP3    H155746   6.860   7.321   0.865
10589TIP3    H255747   6.772   7.354   0.981
10590TIP3   OH255748   6.552   6.817   1.091
10590TIP3    H155749   6.585   6.756   1.023
10590TIP3    H255750   6.633   6.834   1.140
10591TIP3   OH255751   7.411   5.986   1.161
10591TIP3    H155752   7.429   6.043   1.238
10591TIP3    H255753   7.470   6.026   1.095
10592TIP3   OH255754   6.868   6.265   1.121
10592TIP3    H155755   6.886   6.169   1.122
10592TIP3    H255756   6.858   6.279   1.025
10593TIP3   OH255757   6.179   6.074   0.842
10593TIP3    H155758   6.191   6.157   0.792
10593TIP3    H255759   6.140   6.017   0.772
10594TIP3   OH255760   6.953   6.081   0.678
10594TIP3    H155761   7.018   6.050   0.746
10594TIP3    H255762   7.010   6.139   0.624
10595TIP3   OH255763   5.841   6.316   0.915
10595TIP3    H155764   5.908   6.262   0.961
10595TIP3    H255765   5.853   6.284   0.824
10596TIP3   OH255766   6.357   6.471   0.849
10596TIP3    H155767   6.425   6.413   0.886
10596TIP3    H255768   6.307   6.406   0.796
10597TIP3   OH255769   7.456   6.125   1.389
10597TIP3    H155770   7.395   6.202   1.377
10597TIP3    H255771   7.459   6.118   1.485
10598TIP3   OH255772   6.071   5.964   1.245
10598TIP3    H155773   6.043   6.022   1.171
10598TIP3    H255774   6.004   5.987   1.314
10599TIP3   OH255775   6.798   6.912   0.601
10599TIP3    H155776   6.771   6.884   0.513
10599TIP3    H255777   6.769   7.006   0.604
10600TIP3   OH255778   6.321   6.728   1.269
10600TIP3    H155779   6.252   6.793   1.292
10600TIP3    H255780   6.392   6.788   1.240
10601TIP3   OH255781   7.135   6.016   0.878
10601TIP3    H155782   7.113   5.941   0.933
10601TIP3    H255783   7.202   6.061   0.932
10602TIP3   OH255784   6.029   6.149   1.050
10602TIP3    H155785   6.091   6.219   1.081
10602TIP3    H255786   6.079   6.110   0.975
10603TIP3   OH255787   6.167   6.930   1.351
10603TIP3    H155788   6.162   7.021   1.318
10603TIP3    H255789   6.079   6.921   1.396
10604TIP3   OH255790   5.773   6.888   0.429
10604TIP3    H155791   5.752   6.923   0.340
10604TIP3    H255792   5.781   6.970   0.482
10605TIP3   OH255793   7.135   7.057   1.107
10605TIP3    H155794   7.038   7.069   1.119
10605TIP3    H255795   7.162   7.149   1.086
10606TIP3   OH255796   7.167   5.883   1.243
10606TIP3    H155797   7.097   5.950   1.237
10606TIP3    H255798   7.240   5.928   1.195
10607TIP3   OH255799   6.466   5.697   0.994
10607TIP3    H155800   6.446   5.602   0.983
10607TIP3    H255801   6.378   5.729   1.023
10608TIP3   OH255802   6.963   7.235   0.769
10608TIP3    H155803   7.003   7.163   0.716
10608TIP3    H255804   7.007   7.313   0.729
10609TIP3   OH255805   7.085   7.027   0.619
10609TIP3    H155806   7.055   6.960   0.556
10609TIP3    H255807   7.086   6.977   0.702
10610TIP3   OH255808   7.244   6.889   1.467
10610TIP3    H155809   7.258   6.822   1.396
10610TIP3    H255810   7.266   6.972   1.421
10611TIP3   OH255811   6.694   6.573   0.441
10611TIP3    H155812   6.627   6.636   0.407
10611TIP3    H255813   6.766   6.586   0.377
10612TIP3   OH255814   6.702   6.432   0.146
10612TIP3    H155815   6.774   6.435   0.212
10612TIP3    H255816   6.731   6.359   0.091
10613TIP3   OH255817   7.433   6.520   1.271
10613TIP3    H155818   7.367   6.592   1.274
10613TIP3    H255819   7.482   6.545   1.190
10614TIP3   OH255820   7.041   6.598   0.537
10614TIP3    H155821   6.965   6.622   0.596
10614TIP3    H255822   7.087   6.530   0.589
10615TIP3   OH255823   7.033   6.414   1.448
10615TIP3    H155824   7.033   6.497   1.500
10615TIP3    H255825   6.970   6.443   1.379
10616TIP3   OH255826   6.200   6.663   0.727
10616TIP3    H155827   6.169   6.624   0.642
10616TIP3    H255828   6.262   6.594   0.760
10617TIP3   OH255829   6.331   7.001   0.995
10617TIP3    H155830   6.332   6.950   0.913
10617TIP3    H255831   6.410   6.966   1.040
10618TIP3   OH255832   6.232   6.538   1.094
10618TIP3    H155833   6.287   6.547   1.013
10618TIP3    H255834   6.273   6.605   1.154
10619TIP3   OH255835   6.876   7.096   1.165
10619TIP3    H155836   6.847   7.160   1.231
10619TIP3    H255837   6.850   7.011   1.206
10620TIP3   OH255838   6.329   6.982   1.563
10620TIP3    H155839   6.286   7.055   1.612
10620TIP3    H255840   6.262   6.961   1.493
10621TIP3   OH255841   6.926   6.518   0.302
10621TIP3    H155842   6.981   6.537   0.382
10621TIP3    H255843   6.971   6.569   0.231
10622TIP3   OH255844   6.023   6.597   1.477
10622TIP3    H155845   6.029   6.664   1.548
10622TIP3    H255846   5.929   6.605   1.457
10623TIP3   OH255847   6.700   7.192   0.646
10623TIP3    H155848   6.740   7.221   0.728
10623TIP3    H255849   6.642   7.265   0.623
10624TIP3   OH255850   6.154   7.184   1.637
10624TIP3    H155851   6.147   7.175   1.541
10624TIP3    H255852   6.061   7.171   1.665
10625TIP3   OH255853   7.302   5.690   0.291
10625TIP3    H155854   7.206   5.699   0.312
10625TIP3    H255855   7.319   5.775   0.246
10626TIP3   OH255856   6.098   6.565   0.486
10626TIP3    H155857   6.067   6.644   0.438
10626TIP3    H255858   6.031   6.499   0.465
10627TIP3   OH255859   7.414   7.124   0.132
10627TIP3    H155860   7.424   7.221   0.143
10627TIP3    H255861   7.505   7.095   0.121
10628TIP3   OH255862   5.706   6.809   1.380
10628TIP3    H155863   5.662   6.801   1.293
10628TIP3    H255864   5.715   6.714   1.401
10629TIP3   OH255865   5.682   7.083   1.056
10629TIP3    H155866   5.778   7.071   1.054
10629TIP3    H255867   5.674   7.165   1.106
10630TIP3   OH255868   7.506   7.153   1.626
10630TIP3    H155869   7.494   7.057   1.622
10630TIP3    H255870   7.419   7.178   1.664
10631TIP3   OH255871   6.601   7.107   1.511
10631TIP3    H155872   6.607   7.191   1.562
10631TIP3    H255873   6.513   7.072   1.535
10632TIP3   OH255874   6.646   7.482   0.492
10632TIP3    H155875   6.637   7.476   0.396
10632TIP3    H255876   6.648   7.578   0.508
10633TIP3   OH255877   6.010   7.369   0.672
10633TIP3    H155878   6.025   7.329   0.761
10633TIP3    H255879   5.925   7.328   0.649
10634TIP3   OH255880   6.945   7.397   0.196
10634TIP3    H155881   7.001   7.328   0.152
10634TIP3    H255882   6.958   7.372   0.289
10635TIP3   OH255883   6.920   7.396   0.468
10635TIP3    H155884   6.824   7.403   0.486
10635TIP3    H255885   6.944   7.322   0.525
10636TIP3   OH255886   7.221   6.299   1.671
10636TIP3    H155887   7.172   6.344   1.600
10636TIP3    H255888   7.219   6.207   1.641
10637TIP3   OH255889   5.935   6.940   1.473
10637TIP3    H155890   5.957   6.904   1.562
10637TIP3    H255891   5.848   6.901   1.452
10638TIP3   OH255892   6.203   5.789   1.067
10638TIP3    H155893   6.113   5.775   1.031
10638TIP3    H255894   6.189   5.871   1.117
10639TIP3   OH255895   6.669   5.749   1.401
10639TIP3    H155896   6.705   5.713   1.484
10639TIP3    H255897   6.571   5.745   1.418
10640TIP3   OH255898   6.996   6.140   1.494
10640TIP3    H155899   6.939   6.118   1.571
10640TIP3    H255900   6.977   6.233   1.471
10641TIP3   OH255901   7.079   6.604   0.089
10641TIP3    H155902   7.064   6.616  -0.006
10641TIP3    H255903   7.156   6.663   0.096
10642TIP3   OH255904   6.632   6.014   0.138
10642TIP3    H155905   6.597   6.006   0.228
10642TIP3    H255906   6.602   5.928   0.105
10643TIP3   OH255907   6.214   6.286   1.195
10643TIP3    H155908   6.139   6.286   1.258
10643TIP3    H255909   6.208   6.376   1.156
10644TIP3   OH255910   6.209   6.296   0.681
10644TIP3    H155911   6.115   6.272   0.667
10644TIP3    H255912   6.246   6.269   0.596
10645TIP3   OH255913   6.761   6.346   0.554
10645TIP3    H155914   6.723   6.430   0.519
10645TIP3    H255915   6.831   6.330   0.489
10646TIP3   OH255916   6.666   6.368   1.699
10646TIP3    H155917   6.614   6.290   1.731
10646TIP3    H255918   6.750   6.357   1.747
10647TIP3   OH255919   6.865   6.297   0.841
10647TIP3    H155920   6.836   6.353   0.768
10647TIP3    H255921   6.874   6.212   0.794
10648TIP3   OH255922   5.975   6.309   1.360
10648TIP3    H155923   5.985   6.350   1.447
10648TIP3    H255924   5.931   6.225   1.382
10649TIP3   OH255925   6.316   5.959   0.062
10649TIP3    H155926   6.276   5.982   0.147
10649TIP3    H255927   6.262   6.025   0.014
10650TIP3   OH255928   5.641   6.020   0.761
10650TIP3    H155929   5.710   6.016   0.831
10650TIP3    H255930   5.686   5.984   0.682
10651TIP3   OH255931   5.768   6.093   0.294
10651TIP3    H155932   5.819   6.155   0.239
10651TIP3    H255933   5.699   6.154   0.329
10652TIP3   OH255934   6.784   6.454   1.295
10652TIP3    H155935   6.823   6.385   1.237
10652TIP3    H255936   6.737   6.402   1.362
10653TIP3   OH255937   6.466   6.053   0.780
10653TIP3    H155938   6.372   6.053   0.808
10653TIP3    H255939   6.513   6.034   0.862
10654TIP3   OH255940   5.945   6.207   0.667
10654TIP3    H155941   5.857   6.224   0.627
10654TIP3    H255942   5.973   6.124   0.625
10655TIP3   OH255943   6.308   6.214   0.434
10655TIP3    H155944   6.404   6.223   0.447
10655TIP3    H255945   6.285   6.279   0.365
10656TIP3   OH255946   6.905   5.970   1.104
10656TIP3    H155947   6.837   5.982   1.175
10656TIP3    H255948   6.852   5.953   1.025
10657TIP3   OH255949   6.174   6.341   0.193
10657TIP3    H155950   6.128   6.291   0.123
10657TIP3    H255951   6.259   6.348   0.147
10658TIP3   OH255952   7.224   7.539   1.737
10658TIP3    H155953   7.251   7.577   1.651
10658TIP3    H255954   7.298   7.571   1.791
10659TIP3   OH255955   5.992   6.787   1.694
10659TIP3    H155956   6.065   6.812   1.754
10659TIP3    H255957   5.915   6.794   1.755
10660TIP3   OH255958   6.592   6.328   0.969
10660TIP3    H155959   6.653   6.276   0.916
10660TIP3    H255960   6.578   6.273   1.047
10661TIP3   OH255961   6.094   5.942   0.616
10661TIP3    H155962   6.062   5.850   0.613
10661TIP3    H255963   6.171   5.935   0.558
10662TIP3   OH255964   6.457   6.160   1.211
10662TIP3    H155965   6.374   6.213   1.219
10662TIP3    H255966   6.512   6.196   1.282
10663TIP3   OH255967   6.516   6.780   0.382
10663TIP3    H155968   6.435   6.736   0.347
10663TIP3    H255969   6.491   6.796   0.475
10664TIP3   OH255970   7.235   6.704   1.261
10664TIP3    H155971   7.290   6.753   1.196
10664TIP3    H255972   7.149   6.707   1.215
10665TIP3   OH255973   6.900   6.071   0.184
10665TIP3    H155974   6.803   6.075   0.187
10665TIP3    H255975   6.933   6.147   0.237
10666TIP3   OH255976   6.665   6.811   1.505
10666TIP3    H155977   6.630   6.767   1.583
10666TIP3    H255978   6.638   6.903   1.517
10667TIP3   OH255979   6.969   6.257   0.365
10667TIP3    H155980   7.060   6.241   0.400
10667TIP3    H255981   6.982   6.338   0.313
10668TIP3   OH255982   6.027   6.724   0.961
10668TIP3    H155983   6.094   6.714   0.891
10668TIP3    H255984   6.032   6.638   1.006
10669TIP3   OH255985   6.726   6.930   0.285
10669TIP3    H155986   6.690   7.015   0.317
10669TIP3    H255987   6.651   6.868   0.305
10670TIP3   OH255988   5.723   6.563   1.487
10670TIP3    H155989   5.742   6.518   1.572
10670TIP3    H255990   5.662   6.501   1.442
10671TIP3   OH255991   6.427   6.519   1.703
10671TIP3    H155992   6.394   6.487   1.618
10671TIP3    H255993   6.519   6.486   1.703
10672TIP3   OH255994   6.896   7.053   1.500
10672TIP3    H155995   6.804   7.070   1.477
10672TIP3    H255996   6.892   7.082   1.594
10673TIP3   OH255997   7.461   6.269   0.340
10673TIP3    H155998   7.403   6.240   0.266
10673TIP3    H255999   7.469   6.363   0.314
10674TIP3   OH256000   7.461   6.857   1.618
10674TIP3    H156001   7.371   6.879   1.582
10674TIP3    H256002   7.515   6.851   1.537
10675TIP3   OH256003   7.303   7.147   0.381
10675TIP3    H156004   7.251   7.071   0.410
10675TIP3    H256005   7.316   7.134   0.285
10676TIP3   OH256006   7.013   6.635   1.089
10676TIP3    H156007   6.919   6.615   1.077
10676TIP3    H256008   7.056   6.559   1.044
10677TIP3   OH256009   6.264   7.068   0.699
10677TIP3    H156010   6.313   7.149   0.679
10677TIP3    H256011   6.176   7.091   0.666
10678TIP3   OH256012   5.838   6.554   0.149
10678TIP3    H156013   5.898   6.613   0.199
10678TIP3    H256014   5.751   6.583   0.183
10679TIP3   OH256015   6.405   6.835   0.651
10679TIP3    H156016   6.372   6.926   0.659
10679TIP3    H256017   6.334   6.785   0.695
10680TIP3   OH256018   6.450   7.254   1.293
10680TIP3    H156019   6.497   7.333   1.264
10680TIP3    H256020   6.512   7.219   1.359
10681TIP3   OH256021   6.272   7.333   0.605
10681TIP3    H156022   6.176   7.348   0.617
10681TIP3    H256023   6.309   7.417   0.636
10682TIP3   OH256024   6.801   6.852   1.253
10682TIP3    H156025   6.770   6.833   1.344
10682TIP3    H256026   6.866   6.781   1.236
10683TIP3   OH256027   7.030   6.957   0.163
10683TIP3    H156028   7.067   6.914   0.242
10683TIP3    H256029   6.936   6.940   0.178
10684TIP3   OH256030   7.085   7.311   1.502
10684TIP3    H156031   7.015   7.262   1.455
10684TIP3    H256032   7.103   7.381   1.435
10685TIP3   OH256033   7.485   7.394   0.190
10685TIP3    H156034   7.552   7.460   0.167
10685TIP3    H256035   7.411   7.455   0.213
10686TIP3   OH256036   5.891   6.036   1.441
10686TIP3    H156037   5.801   6.071   1.439
10686TIP3    H256038   5.880   5.952   1.488
10687TIP3   OH256039   7.114   6.824   0.392
10687TIP3    H156040   7.089   6.743   0.442
10687TIP3    H256041   7.210   6.826   0.404
10688TIP3   OH256042   5.851   7.214   1.284
10688TIP3    H156043   5.884   7.122   1.285
10688TIP3    H256044   5.878   7.244   1.371
10689TIP3   OH256045   6.324   7.022   0.258
10689TIP3    H156046   6.358   6.970   0.332
10689TIP3    H256047   6.336   7.115   0.290
10690TIP3   OH256048   5.977   6.745   0.303
10690TIP3    H156049   5.908   6.785   0.360
10690TIP3    H256050   6.033   6.822   0.280
10691TIP3   OH256051   6.767   6.012   1.336
10691TIP3    H156052   6.835   6.022   1.404
10691TIP3    H256053   6.725   5.928   1.360
10692TIP3   OH256054   6.837   5.971   0.448
10692TIP3    H156055   6.864   6.017   0.368
10692TIP3    H256056   6.894   6.014   0.513
10693TIP3   OH256057   6.604   7.184   0.324
10693TIP3    H156058   6.525   7.241   0.340
10693TIP3    H256059   6.661   7.240   0.269
10694TIP3   OH256060   6.561   6.145   0.529
10694TIP3    H156061   6.638   6.205   0.532
10694TIP3    H256062   6.535   6.134   0.623
10695TIP3   OH256063   6.617   6.248   1.448
10695TIP3    H156064   6.624   6.304   1.528
10695TIP3    H256065   6.683   6.179   1.458
10696TIP3   OH256066   6.647   5.850   0.615
10696TIP3    H156067   6.613   5.915   0.679
10696TIP3    H256068   6.715   5.905   0.571
10697TIP3   OH256069   6.344   7.292   0.333
10697TIP3    H156070   6.360   7.374   0.280
10697TIP3    H256071   6.318   7.327   0.421
10698TIP3   OH256072   6.208   5.962   0.304
10698TIP3    H156073   6.208   6.056   0.327
10698TIP3    H256074   6.302   5.938   0.314
10699TIP3   OH256075   7.234   6.035   1.533
10699TIP3    H156076   7.141   6.067   1.519
10699TIP3    H256077   7.264   6.033   1.440
10700TIP3   OH256078   7.096   6.414   0.932
10700TIP3    H156079   7.013   6.369   0.905
10700TIP3    H256080   7.145   6.345   0.983
10701TIP3   OH256081   6.038   7.005   0.193
10701TIP3    H156082   6.104   7.068   0.226
10701TIP3    H256083   6.087   6.961   0.122
10702TIP3   OH256084   5.869   6.274   0.108
10702TIP3    H156085   5.870   6.370   0.126
10702TIP3    H256086   5.781   6.257   0.075
10703TIP3   OH256087   7.202   7.337   1.099
10703TIP3    H156088   7.193   7.407   1.031
10703TIP3    H256089   7.299   7.345   1.117
10704TIP3   OH256090   5.951   5.752   0.982
10704TIP3    H156091   5.933   5.753   0.885
10704TIP3    H256092   5.910   5.666   1.006
10705TIP3   OH256093   5.845   7.146   0.596
10705TIP3    H156094   5.759   7.189   0.590
10705TIP3    H256095   5.892   7.189   0.524
10706TIP3   OH256096   5.766   7.409   1.722
10706TIP3    H156097   5.827   7.390   1.797
10706TIP3    H256098   5.727   7.322   1.705
10707TIP3   OH256099   6.237   7.302   1.882
10707TIP3    H156100   6.311   7.251   1.917
10707TIP3    H256101   6.233   7.273   1.789
10708TIP3   OH256102   6.655   7.263   0.052
10708TIP3    H156103   6.585   7.198   0.068
10708TIP3    H256104   6.725   7.213   0.009
10709TIP3   OH256105   6.885   7.140   1.760
10709TIP3    H156106   6.853   7.051   1.787
10709TIP3    H256107   6.962   7.152   1.818
10710TIP3   OH256108   7.128   7.221   0.100
10710TIP3    H156109   7.139   7.125   0.096
10710TIP3    H256110   7.159   7.251   0.012
10711TIP3   OH256111   5.757   6.786   1.823
10711TIP3    H156112   5.773   6.695   1.794
10711TIP3    H256113   5.683   6.812   1.765
10712TIP3   OH256114   6.178   6.804   0.026
10712TIP3    H156115   6.209   6.737   0.089
10712TIP3    H256116   6.256   6.810  -0.032
10713TIP3   OH256117   6.429   6.786   1.761
10713TIP3    H156118   6.396   6.818   1.675
10713TIP3    H256119   6.436   6.688   1.750
10714TIP3   OH256120   6.999   6.771   1.501
10714TIP3    H156121   7.078   6.828   1.496
10714TIP3    H256122   6.929   6.839   1.504
10715TIP3   OH256123   5.847   6.508   1.760
10715TIP3    H156124   5.892   6.424   1.752
10715TIP3    H256125   5.828   6.510   1.855
10716TIP3   OH256126   6.314   6.626   0.267
10716TIP3    H156127   6.264   6.570   0.329
10716TIP3    H256128   6.346   6.557   0.203
10717TIP3   OH256129   6.240   6.403   1.496
10717TIP3    H156130   6.180   6.475   1.521
10717TIP3    H256131   6.280   6.440   1.416
10718TIP3   OH256132   6.424   6.448   0.094
10718TIP3    H156133   6.402   6.433  -0.000
10718TIP3    H256134   6.521   6.454   0.096
10719TIP3   OH256135   6.748   6.661   1.831
10719TIP3    H156136   6.843   6.658   1.816
10719TIP3    H256137   6.731   6.584   1.887
10720TIP3   OH256138   7.352   6.675  11.013
10720TIP3    H156139   7.336   6.637  10.927
10720TIP3    H256140   7.359   6.770  10.992
10721TIP3   OH256141   6.281   6.141   1.601
10721TIP3    H156142   6.293   6.071   1.534
10721TIP3    H256143   6.276   6.222   1.547
10722TIP3   OH256144   6.321   5.979   1.357
10722TIP3    H156145   6.372   6.026   1.287
10722TIP3    H256146   6.232   5.972   1.318
10723TIP3   OH256147   6.475   6.530   1.382
10723TIP3    H156148   6.550   6.513   1.325
10723TIP3    H256149   6.438   6.613   1.347
10724TIP3   OH256150   6.914   6.303   1.877
10724TIP3    H156151   6.938   6.210   1.869
10724TIP3    H256152   7.000   6.348   1.881
10725TIP3   OH256153   7.049   6.583   1.695
10725TIP3    H156154   7.024   6.655   1.633
10725TIP3    H256155   7.145   6.580   1.676
10726TIP3   OH256156   6.127   6.266   1.794
10726TIP3    H156157   6.050   6.209   1.777
10726TIP3    H256158   6.192   6.229   1.731
10727TIP3   OH256159   6.400   5.723   1.395
10727TIP3    H156160   6.380   5.819   1.386
10727TIP3    H256161   6.325   5.686   1.346
10728TIP3   OH256162   6.527   6.156   1.760
10728TIP3    H156163   6.494   6.132   1.849
10728TIP3    H256164   6.449   6.135   1.705
10729TIP3   OH256165   6.799   6.070   1.669
10729TIP3    H156166   6.703   6.076   1.680
10729TIP3    H256167   6.825   6.006   1.739
10730TIP3   OH256168   6.956   5.932   1.857
10730TIP3    H156169   6.953   5.834   1.861
10730TIP3    H256170   6.933   5.961   1.948
10731TIP3   OH256171   5.934   6.061   1.771
10731TIP3    H156172   5.958   5.987   1.712
10731TIP3    H256173   5.924   6.016   1.857
10732TIP3   OH256174   6.421   5.664   1.666
10732TIP3    H156175   6.488   5.591   1.666
10732TIP3    H256176   6.410   5.676   1.570
10733TIP3   OH256177   6.458   5.824   1.879
10733TIP3    H156178   6.440   5.773   1.796
10733TIP3    H256179   6.398   5.900   1.869
10734TIP3   OH256180   6.404   7.518   0.198
10734TIP3    H156181   6.501   7.527   0.204
10734TIP3    H256182   6.384   7.580   0.127
10735TIP3   OH256183   5.767   6.971   0.144
10735TIP3    H156184   5.863   6.983   0.162
10735TIP3    H256185   5.769   6.914   0.067
10736TIP3   OH256186   5.640   7.509   0.636
10736TIP3    H156187   5.566   7.461   0.592
10736TIP3    H256188   5.666   7.445   0.706
10737TIP3   OH256189   5.720   7.325   0.827
10737TIP3    H156190   5.685   7.238   0.847
10737TIP3    H256191   5.743   7.358   0.915
10738TIP3   OH256192   7.467   7.406   1.119
10738TIP3    H156193   7.476   7.420   1.214
10738TIP3    H256194   7.543   7.459   1.088
10739TIP3   OH256195   7.434   7.363   1.414
10739TIP3    H156196   7.384   7.287   1.376
10739TIP3    H256197   7.481   7.317   1.486
10740TIP3   OH256198   7.276   6.935   1.882
10740TIP3    H156199   7.185   6.933   1.918
10740TIP3    H256200   7.313   7.016   1.922
10741TIP3   OH256201   7.412   6.768   0.423
10741TIP3    H156202   7.496   6.806   0.448
10741TIP3    H256203   7.403   6.698   0.491
10742TIP3   OH256204   7.440   6.577   0.612
10742TIP3    H156205   7.366   6.527   0.652
10742TIP3    H256206   7.501   6.588   0.688
10743TIP3   OH256207   7.418   6.845   1.111
10743TIP3    H156208   7.499   6.807   1.073
10743TIP3    H256209   7.432   6.940   1.095
10744TIP3   OH256210   7.274   7.137   1.338
10744TIP3    H156211   7.206   7.171   1.396
10744TIP3    H256212   7.220   7.097   1.266
10745TIP3   OH256213   7.473   6.559   0.245
10745TIP3    H156214   7.411   6.595   0.178
10745TIP3    H256215   7.459   6.625   0.316
10746TIP3   OH256216   7.311   6.286   0.102
10746TIP3    H156217   7.311   6.351   0.032
10746TIP3    H256218   7.290   6.201   0.059
10747TIP3   OH256219   7.226   6.424   0.671
10747TIP3    H156220   7.210   6.328   0.666
10747TIP3    H256221   7.193   6.444   0.761
10748TIP3   OH256222   5.726   6.633   1.077
10748TIP3    H156223   5.743   6.624   0.980
10748TIP3    H256224   5.816   6.614   1.111
10749TIP3   OH256225   7.312   6.620   1.640
10749TIP3    H156226   7.373   6.544   1.652
10749TIP3    H256227   7.372   6.697   1.639
10750TIP3   OH256228   7.462   6.408   1.704
10750TIP3    H156229   7.374   6.368   1.689
10750TIP3    H256230   7.520   6.330   1.697
10751TIP3   OH256231   7.213   6.015   0.128
10751TIP3    H156232   7.299   5.981   0.094
10751TIP3    H256233   7.158   5.987   0.055
10752TIP3   OH256234   7.189   6.183   0.515
10752TIP3    H156235   7.220   6.089   0.526
10752TIP3    H256236   7.269   6.222   0.477
10753TIP3   OH256237   7.256   6.236   1.061
10753TIP3    H156238   7.352   6.259   1.059
10753TIP3    H256239   7.238   6.251   1.155
10754TIP3   OH256240   7.262   6.307   1.338
10754TIP3    H156241   7.174   6.337   1.369
10754TIP3    H256242   7.306   6.393   1.316
10755TIP3   OH256243   5.688   6.164   1.693
10755TIP3    H156244   5.782   6.141   1.711
10755TIP3    H256245   5.642   6.081   1.717
10756TIP3   OH256246   7.491   5.716   1.872
10756TIP3    H156247   7.526   5.650   1.810
10756TIP3    H256248   7.500   5.797   1.818
10757TIP3   OH256249   7.257   5.912   0.521
10757TIP3    H156250   7.282   5.868   0.605
10757TIP3    H256251   7.199   5.848   0.477
10758TIP3   OH256252   5.808   5.992   0.977
10758TIP3    H156253   5.854   5.909   1.001
10758TIP3    H256254   5.864   6.061   1.015
10759TIP3   OH256255   5.636   6.292   1.080
10759TIP3    H156256   5.692   6.266   1.004
10759TIP3    H256257   5.684   6.372   1.107
10760TIP3   OH256258   7.441   5.925   1.707
10760TIP3    H156259   7.348   5.953   1.702
10760TIP3    H256260   7.444   5.870   1.628
10761TIP3   OH256261   7.451   5.911   0.175
10761TIP3    H156262   7.492   5.844   0.120
10761TIP3    H256263   7.517   5.981   0.187
10762TIP3   OH256264   5.671   5.918   0.489
10762TIP3    H156265   5.577   5.936   0.473
10762TIP3    H256266   5.714   5.968   0.417
10763TIP3   OH256267   7.146   7.410   0.682
10763TIP3    H156268   7.214   7.381   0.619
10763TIP3    H256269   7.197   7.461   0.747
10764TIP3   OH256270   5.667   5.783   1.316
10764TIP3    H156271   5.600   5.763   1.385
10764TIP3    H256272   5.621   5.850   1.263
10765TIP3   OH256273   5.892   7.101   1.733
10765TIP3    H156274   5.808   7.125   1.689
10765TIP3    H256275   5.865   7.095   1.824
10766TIP3   OH256276   6.181   7.204   1.361
10766TIP3    H156277   6.150   7.291   1.334
10766TIP3    H256278   6.274   7.211   1.331
10767TIP3   OH256279   6.613   7.346   1.650
10767TIP3    H156280   6.626   7.311   1.741
10767TIP3    H256281   6.704   7.378   1.627
10768TIP3   OH256282   6.841   7.473   1.582
10768TIP3    H156283   6.916   7.416   1.558
10768TIP3    H256284   6.878   7.518   1.662
10769TIP3   OH256285   7.343   5.734   1.494
10769TIP3    H156286   7.262   5.766   1.453
10769TIP3    H256287   7.362   5.651   1.443
10770TIP3   OH256288   5.921   7.522   1.360
10770TIP3    H156289   5.852   7.578   1.322
10770TIP3    H256290   5.891   7.510   1.451
10771TIP3   OH256291   6.170   7.482   1.268
10771TIP3    H156292   6.082   7.503   1.307
10771TIP3    H256293   6.167   7.542   1.191
10772TIP3   OH256294   6.642   7.476   1.185
10772TIP3    H156295   6.596   7.531   1.120
10772TIP3    H256296   6.655   7.540   1.259
10773TIP3   OH256297   6.869   7.355   1.289
10773TIP3    H156298   6.785   7.385   1.250
10773TIP3    H256299   6.919   7.438   1.279
10774TIP3   OH256300   7.125   7.512   1.308
10774TIP3    H156301   7.121   7.608   1.287
10774TIP3    H256302   7.150   7.475   1.221
10775TIP3   OH256303   5.870   7.392   1.054
10775TIP3    H156304   5.861   7.346   1.141
10775TIP3    H256305   5.952   7.353   1.016
10776TIP3   OH256306   6.078   7.263   0.920
10776TIP3    H156307   6.062   7.170   0.944
10776TIP3    H256308   6.163   7.279   0.965
10777TIP3   OH256309   6.339   7.312   1.008
10777TIP3    H156310   6.353   7.219   0.982
10777TIP3    H256311   6.343   7.306   1.105
10778TIP3   OH256312   6.686   5.875   0.925
10778TIP3    H156313   6.614   5.814   0.949
10778TIP3    H256314   6.736   5.823   0.861
10779TIP3   OH256315   7.193   5.681   0.930
10779TIP3    H156316   7.258   5.737   0.879
10779TIP3    H256317   7.108   5.721   0.900
10780TIP3   OH256318   7.363   5.804   0.756
10780TIP3    H156319   7.432   5.748   0.713
10780TIP3    H256320   7.414   5.889   0.766
10781TIP3   OH256321   5.920   5.738   0.708
10781TIP3    H156322   5.841   5.721   0.653
10781TIP3    H256323   5.966   5.653   0.700
10782TIP3   OH256324   5.799   5.714   0.284
10782TIP3    H156325   5.844   5.780   0.227
10782TIP3    H256326   5.743   5.771   0.339
10783TIP3   OH256327   6.366   5.731   0.685
10783TIP3    H156328   6.456   5.767   0.676
10783TIP3    H256329   6.364   5.709   0.778
10784TIP3   OH256330   6.943   5.730   0.849
10784TIP3    H156331   6.935   5.749   0.754
10784TIP3    H256332   6.896   5.643   0.855
10785TIP3   OH256333   7.065   5.736   0.413
10785TIP3    H156334   6.991   5.796   0.400
10785TIP3    H256335   7.021   5.650   0.434
10786TIP3   OH256336   5.790   7.311   0.376
10786TIP3    H156337   5.717   7.311   0.311
10786TIP3    H256338   5.791   7.405   0.397
10787TIP3   OH256339   5.978   5.902   0.134
10787TIP3    H156340   6.036   5.847   0.081
10787TIP3    H256341   6.045   5.945   0.191
10788TIP3   OH256342   6.487   5.933   0.365
10788TIP3    H156343   6.508   5.875   0.441
10788TIP3    H256344   6.491   6.018   0.414
10789TIP3   OH256345   6.673   7.454   0.217
10789TIP3    H156346   6.768   7.464   0.200
10789TIP3    H256347   6.655   7.394   0.141
10790TIP3   OH256348   7.349   7.392   0.483
10790TIP3    H156349   7.323   7.313   0.428
10790TIP3    H256350   7.336   7.467   0.420
10791TIP3   OH256351   5.908   5.794   1.651
10791TIP3    H156352   5.868   5.714   1.690
10791TIP3    H256353   5.999   5.789   1.690
10792TIP3   OH256354   6.108   5.733   1.817
10792TIP3    H156355   6.197   5.699   1.795
10792TIP3    H256356   6.071   5.651   1.857
10793TIP3   OH256357   5.967   7.402   0.074
10793TIP3    H156358   5.940   7.436   0.160
10793TIP3    H256359   6.048   7.353   0.093
10794TIP3   OH256360   6.948   5.660   1.831
10794TIP3    H156361   6.958   5.613   1.916
10794TIP3    H256362   7.040   5.656   1.797
10795TIP3   OH256363   7.270   7.266   1.693
10795TIP3    H156364   7.190   7.252   1.638
10795TIP3    H256365   7.257   7.360   1.715
10796TIP3   OH256366   7.832   6.548   1.199
10796TIP3    H156367   7.846   6.476   1.264
10796TIP3    H256368   7.911   6.600   1.217
10797TIP3   OH256369   7.908   6.978   1.062
10797TIP3    H156370   7.892   6.894   1.014
10797TIP3    H256371   8.006   6.981   1.054
10798TIP3   OH256372   7.588   6.345   0.595
10798TIP3    H156373   7.547   6.434   0.589
10798TIP3    H256374   7.530   6.292   0.538
10799TIP3   OH256375   7.663   6.570   0.811
10799TIP3    H156376   7.690   6.488   0.855
10799TIP3    H256377   7.733   6.580   0.745
10800TIP3   OH256378   7.723   6.313   0.916
10800TIP3    H156379   7.794   6.263   0.961
10800TIP3    H256380   7.742   6.284   0.824
10801TIP3   OH256381   7.935   5.962   1.243
10801TIP3    H156382   7.924   6.026   1.169
10801TIP3    H256383   7.876   5.996   1.313
10802TIP3   OH256384   7.901   6.135   1.039
10802TIP3    H156385   7.955   6.208   1.081
10802TIP3    H256386   7.960   6.107   0.968
10803TIP3   OH256387   8.033   6.965   1.352
10803TIP3    H156388   8.025   7.050   1.311
10803TIP3    H256389   7.947   6.946   1.395
10804TIP3   OH256390   7.676   6.897   0.427
10804TIP3    H156391   7.624   6.914   0.346
10804TIP3    H256392   7.651   6.966   0.492
10805TIP3   OH256393   7.898   6.596   1.480
10805TIP3    H156394   7.907   6.661   1.552
10805TIP3    H256395   7.805   6.606   1.458
10806TIP3   OH256396   8.037   7.184   1.640
10806TIP3    H156397   8.033   7.170   1.545
10806TIP3    H256398   7.943   7.171   1.664
10807TIP3   OH256399   7.979   6.571   0.484
10807TIP3    H156400   7.952   6.648   0.434
10807TIP3    H256401   7.911   6.505   0.466
10808TIP3   OH256402   7.590   6.809   1.380
10808TIP3    H156403   7.547   6.800   1.293
10808TIP3    H256404   7.602   6.714   1.401
10809TIP3   OH256405   7.568   7.084   1.057
10809TIP3    H156406   7.664   7.072   1.054
10809TIP3    H256407   7.562   7.167   1.106
10810TIP3   OH256408   7.885   7.353   0.672
10810TIP3    H156409   7.902   7.324   0.764
10810TIP3    H256410   7.793   7.325   0.660
10811TIP3   OH256411   7.809   6.945   1.479
10811TIP3    H156412   7.839   6.900   1.561
10811TIP3    H256413   7.728   6.897   1.452
10812TIP3   OH256414   7.860   6.313   1.364
10812TIP3    H156415   7.864   6.351   1.452
10812TIP3    H256416   7.822   6.225   1.380
10813TIP3   OH256417   7.524   6.019   0.761
10813TIP3    H156418   7.592   6.016   0.831
10813TIP3    H256419   7.572   5.985   0.682
10814TIP3   OH256420   7.652   6.094   0.294
10814TIP3    H156421   7.703   6.157   0.240
10814TIP3    H256422   7.581   6.154   0.328
10815TIP3   OH256423   7.827   6.212   0.665
10815TIP3    H156424   7.738   6.221   0.627
10815TIP3    H256425   7.860   6.125   0.636
10816TIP3   OH256426   7.877   6.794   1.691
10816TIP3    H156427   7.946   6.813   1.754
10816TIP3    H256428   7.798   6.797   1.751
10817TIP3   OH256429   7.929   5.938   0.594
10817TIP3    H156430   7.925   5.844   0.621
10817TIP3    H256431   8.026   5.945   0.586
10818TIP3   OH256432   7.907   6.723   0.952
10818TIP3    H156433   7.984   6.718   0.893
10818TIP3    H256434   7.917   6.642   1.006
10819TIP3   OH256435   7.612   6.563   1.488
10819TIP3    H156436   7.627   6.517   1.572
10819TIP3    H256437   7.549   6.503   1.442
10820TIP3   OH256438   7.728   6.556   0.151
10820TIP3    H156439   7.783   6.617   0.203
10820TIP3    H256440   7.637   6.579   0.182
10821TIP3   OH256441   7.774   6.037   1.446
10821TIP3    H156442   7.684   6.070   1.435
10821TIP3    H256443   7.761   5.950   1.488
10822TIP3   OH256444   7.746   7.215   1.282
10822TIP3    H156445   7.760   7.120   1.288
10822TIP3    H256446   7.762   7.245   1.372
10823TIP3   OH256447   7.866   6.747   0.295
10823TIP3    H156448   7.797   6.780   0.358
10823TIP3    H256449   7.923   6.824   0.283
10824TIP3   OH256450   7.920   7.010   0.197
10824TIP3    H156451   7.994   7.068   0.223
10824TIP3    H256452   7.969   6.966   0.125
10825TIP3   OH256453   7.756   6.271   0.116
10825TIP3    H156454   7.755   6.368   0.122
10825TIP3    H256455   7.671   6.252   0.075
10826TIP3   OH256456   7.834   5.753   0.983
10826TIP3    H156457   7.823   5.756   0.885
10826TIP3    H256458   7.797   5.666   1.007
10827TIP3   OH256459   7.719   7.136   0.573
10827TIP3    H156460   7.644   7.193   0.596
10827TIP3    H256461   7.784   7.202   0.544
10828TIP3   OH256462   7.650   7.410   1.721
10828TIP3    H156463   7.710   7.391   1.796
10828TIP3    H256464   7.611   7.323   1.705
10829TIP3   OH256465   7.644   6.786   1.822
10829TIP3    H156466   7.658   6.694   1.794
10829TIP3    H256467   7.569   6.812   1.766
10830TIP3   OH256468   7.737   6.510   1.762
10830TIP3    H156469   7.777   6.424   1.750
10830TIP3    H256470   7.716   6.510   1.856
10831TIP3   OH256471   7.999   6.283   1.806
10831TIP3    H156472   7.929   6.217   1.787
10831TIP3    H256473   8.068   6.251   1.746
10832TIP3   OH256474   7.820   6.059   1.769
10832TIP3    H156475   7.843   5.984   1.711
10832TIP3    H256476   7.814   6.017   1.857
10833TIP3   OH256477   7.654   6.971   0.153
10833TIP3    H156478   7.750   6.978   0.154
10833TIP3    H256479   7.644   6.917   0.073
10834TIP3   OH256480   7.528   7.507   0.634
10834TIP3    H156481   7.450   7.462   0.594
10834TIP3    H256482   7.551   7.447   0.708
10835TIP3   OH256483   7.608   7.320   0.824
10835TIP3    H156484   7.567   7.236   0.850
10835TIP3    H256485   7.631   7.356   0.912
10836TIP3   OH256486   7.613   6.638   1.075
10836TIP3    H156487   7.634   6.622   0.980
10836TIP3    H256488   7.701   6.615   1.113
10837TIP3   OH256489   7.571   6.163   1.691
10837TIP3    H156490   7.665   6.141   1.708
10837TIP3    H256491   7.526   6.080   1.718
10838TIP3   OH256492   7.689   5.991   0.977
10838TIP3    H156493   7.741   5.910   0.997
10838TIP3    H256494   7.751   6.059   1.010
10839TIP3   OH256495   7.518   6.292   1.078
10839TIP3    H156496   7.578   6.266   1.004
10839TIP3    H256497   7.566   6.371   1.108
10840TIP3   OH256498   7.555   5.915   0.486
10840TIP3    H156499   7.461   5.936   0.472
10840TIP3    H256500   7.598   5.969   0.417
10841TIP3   OH256501   7.552   5.782   1.317
10841TIP3    H156502   7.485   5.765   1.385
10841TIP3    H256503   7.507   5.849   1.262
10842TIP3   OH256504   7.774   7.104   1.733
10842TIP3    H156505   7.691   7.126   1.688
10842TIP3    H256506   7.745   7.093   1.824
10843TIP3   OH256507   7.808   7.526   1.364
10843TIP3    H156508   7.736   7.577   1.320
10843TIP3    H256509   7.771   7.511   1.451
10844TIP3   OH256510   8.035   7.449   1.239
10844TIP3    H156511   7.969   7.486   1.301
10844TIP3    H256512   8.057   7.532   1.193
10845TIP3   OH256513   7.745   7.392   1.057
10845TIP3    H156514   7.750   7.349   1.145
10845TIP3    H256515   7.828   7.358   1.017
10846TIP3   OH256516   7.943   7.263   0.937
10846TIP3    H156517   7.938   7.166   0.949
10846TIP3    H256518   8.034   7.275   0.970
10847TIP3   OH256519   7.799   5.733   0.710
10847TIP3    H156520   7.720   5.715   0.654
10847TIP3    H256521   7.852   5.652   0.705
10848TIP3   OH256522   7.684   5.715   0.282
10848TIP3    H156523   7.729   5.782   0.227
10848TIP3    H256524   7.628   5.770   0.340
10849TIP3   OH256525   7.675   7.312   0.370
10849TIP3    H156526   7.596   7.319   0.312
10849TIP3    H256527   7.677   7.406   0.398
10850TIP3   OH256528   7.865   5.895   0.137
10850TIP3    H156529   7.924   5.849   0.076
10850TIP3    H256530   7.928   5.946   0.189
10851TIP3   OH256531   7.800   5.794   1.648
10851TIP3    H156532   7.760   5.716   1.689
10851TIP3    H256533   7.890   5.789   1.688
10852TIP3   OH256534   7.993   5.728   1.816
10852TIP3    H156535   8.081   5.697   1.790
10852TIP3    H256536   7.957   5.647   1.857
10853TIP3   OH256537   7.850   7.402   0.075
10853TIP3    H156538   7.829   7.443   0.160
10853TIP3    H256539   7.935   7.359   0.089
10854TIP3   OH256540   1.855   7.896   1.177
10854TIP3    H156541   1.783   7.924   1.237
10854TIP3    H256542   1.804   7.904   1.094
10855TIP3   OH256543   0.524   7.959   0.843
10855TIP3    H156544   0.536   8.041   0.793
10855TIP3    H256545   0.488   7.899   0.773
10856TIP3   OH256546   1.297   7.967   0.663
10856TIP3    H156547   1.352   7.938   0.742
10856TIP3    H256548   1.366   8.023   0.626
10857TIP3   OH256549   1.795   7.987   1.402
10857TIP3    H156550   1.766   8.073   1.368
10857TIP3    H256551   1.817   8.002   1.495
10858TIP3   OH256552   0.417   7.838   1.254
10858TIP3    H156553   0.390   7.893   1.176
10858TIP3    H256554   0.347   7.866   1.318
10859TIP3   OH256555   1.452   7.899   0.859
10859TIP3    H156556   1.457   7.824   0.921
10859TIP3    H256557   1.527   7.944   0.905
10860TIP3   OH256558   0.386   8.000   1.063
10860TIP3    H156559   0.425   8.086   1.086
10860TIP3    H256560   0.427   7.984   0.975
10861TIP3   OH256561   1.500   7.790   1.286
10861TIP3    H156562   1.427   7.831   1.239
10861TIP3    H256563   1.566   7.794   1.212
10862TIP3   OH256564   0.807   7.582   0.993
10862TIP3    H156565   0.791   7.486   0.985
10862TIP3    H256566   0.720   7.614   1.024
10863TIP3   OH256567   1.652   7.571   0.292
10863TIP3    H156568   1.557   7.564   0.310
10863TIP3    H256569   1.671   7.651   0.239
10864TIP3   OH256570   0.548   7.676   1.066
10864TIP3    H156571   0.457   7.660   1.033
10864TIP3    H256572   0.533   7.756   1.118
10865TIP3   OH256573   1.010   7.637   1.404
10865TIP3    H156574   1.050   7.596   1.483
10865TIP3    H256575   0.913   7.629   1.419
10866TIP3   OH256576   1.340   8.027   1.496
10866TIP3    H156577   1.281   8.001   1.571
10866TIP3    H256578   1.309   8.113   1.470
10867TIP3   OH256579   0.982   7.892   0.142
10867TIP3    H156580   0.936   7.893   0.229
10867TIP3    H256581   0.942   7.812   0.105
10868TIP3   OH256582   0.655   7.853   0.060
10868TIP3    H156583   0.618   7.874   0.147
10868TIP3    H256584   0.597   7.915   0.012
10869TIP3   OH256585   0.012   7.939   0.768
10869TIP3    H156586   0.062   7.902   0.844
10869TIP3    H256587   0.023   7.871   0.702
10870TIP3   OH256588   0.093   7.951   0.274
10870TIP3    H156589   0.160   8.017   0.244
10870TIP3    H256590   0.049   8.017   0.331
10871TIP3   OH256591   0.806   7.925   0.779
10871TIP3    H156592   0.713   7.934   0.809
10871TIP3    H256593   0.860   7.920   0.859
10872TIP3   OH256594   1.251   7.860   1.107
10872TIP3    H156595   1.180   7.872   1.173
10872TIP3    H256596   1.201   7.837   1.027
10873TIP3   OH256597   0.443   7.826   0.620
10873TIP3    H156598   0.406   7.736   0.612
10873TIP3    H256599   0.516   7.823   0.556
10874TIP3   OH256600   0.803   8.024   1.199
10874TIP3    H156601   0.729   8.087   1.204
10874TIP3    H256602   0.857   8.065   1.269
10875TIP3   OH256603   1.244   7.954   0.212
10875TIP3    H156604   1.150   7.962   0.183
10875TIP3    H256605   1.273   8.046   0.227
10876TIP3   OH256606   0.232   7.920   1.444
10876TIP3    H156607   0.143   7.958   1.439
10876TIP3    H256608   0.214   7.834   1.487
10877TIP3   OH256609   1.100   7.894   1.336
10877TIP3    H156610   1.174   7.907   1.398
10877TIP3    H256611   1.068   7.806   1.361
10878TIP3   OH256612   1.182   7.854   0.450
10878TIP3    H156613   1.204   7.903   0.368
10878TIP3    H256614   1.235   7.899   0.519
10879TIP3   OH256615   0.915   8.021   0.529
10879TIP3    H156616   0.980   8.093   0.533
10879TIP3    H256617   0.875   8.022   0.618
10880TIP3   OH256618   0.992   7.736   0.615
10880TIP3    H156619   0.959   7.800   0.682
10880TIP3    H256620   1.060   7.792   0.570
10881TIP3   OH256621   0.555   7.848   0.304
10881TIP3    H156622   0.552   7.942   0.322
10881TIP3    H256623   0.649   7.822   0.312
10882TIP3   OH256624   1.578   7.921   1.532
10882TIP3    H156625   1.484   7.948   1.521
10882TIP3    H256626   1.606   7.916   1.439
10883TIP3   OH256627   0.298   7.638   0.976
10883TIP3    H156628   0.272   7.640   0.882
10883TIP3    H256629   0.257   7.554   1.005
10884TIP3   OH256630   0.566   7.997   1.587
10884TIP3    H156631   0.626   7.940   1.535
10884TIP3    H256632   0.600   8.086   1.566
10885TIP3   OH256633   0.662   7.866   1.358
10885TIP3    H156634   0.717   7.906   1.287
10885TIP3    H256635   0.573   7.861   1.316
10886TIP3   OH256636   0.743   7.610   1.395
10886TIP3    H156637   0.723   7.706   1.388
10886TIP3    H256638   0.668   7.573   1.345
10887TIP3   OH256639   0.898   7.986   1.792
10887TIP3    H156640   0.864   8.018   1.878
10887TIP3    H256641   0.814   7.995   1.746
10888TIP3   OH256642   1.142   7.946   1.655
10888TIP3    H156643   1.050   7.963   1.685
10888TIP3    H256644   1.174   7.896   1.732
10889TIP3   OH256645   1.299   7.816   1.860
10889TIP3    H156646   1.292   7.718   1.858
10889TIP3    H256647   1.276   7.842   1.951
10890TIP3   OH256648   0.287   7.948   1.778
10890TIP3    H156649   0.303   7.878   1.711
10890TIP3    H256650   0.275   7.893   1.857
10891TIP3   OH256651   0.765   7.549   1.665
10891TIP3    H156652   0.832   7.477   1.664
10891TIP3    H256653   0.754   7.563   1.568
10892TIP3   OH256654   0.798   7.702   1.881
10892TIP3    H156655   0.785   7.656   1.795
10892TIP3    H256656   0.747   7.785   1.868
10893TIP3   OH256657   1.549   7.874   0.129
10893TIP3    H156658   1.641   7.873   0.092
10893TIP3    H256659   1.503   7.881   0.043
10894TIP3   OH256660   1.552   8.051   0.547
10894TIP3    H156661   1.579   7.958   0.533
10894TIP3    H256662   1.611   8.097   0.483
10895TIP3   OH256663   0.041   8.024   1.671
10895TIP3    H156664   0.132   8.014   1.704
10895TIP3    H256665  -0.006   7.954   1.717
10896TIP3   OH256666   1.834   7.596   1.871
10896TIP3    H156667   1.870   7.532   1.808
10896TIP3    H256668   1.840   7.679   1.820
10897TIP3   OH256669   1.601   7.788   0.511
10897TIP3    H156670   1.629   7.761   0.603
10897TIP3    H256671   1.537   7.716   0.498
10898TIP3   OH256672   0.158   7.875   0.974
10898TIP3    H156673   0.200   7.792   1.002
10898TIP3    H256674   0.201   7.939   1.030
10899TIP3   OH256675   1.783   7.806   1.710
10899TIP3    H156676   1.691   7.840   1.700
10899TIP3    H256677   1.790   7.756   1.628
10900TIP3   OH256678   1.792   7.788   0.171
10900TIP3    H156679   1.839   7.725   0.116
10900TIP3    H256680   1.857   7.861   0.186
10901TIP3   OH256681   0.035   7.777   0.449
10901TIP3    H156682  -0.058   7.806   0.457
10901TIP3    H256683   0.073   7.853   0.401
10902TIP3   OH256684   0.031   7.684   1.330
10902TIP3    H156685  -0.043   7.655   1.386
10902TIP3    H256686  -0.026   7.742   1.274
10903TIP3   OH256687   1.686   7.617   1.494
10903TIP3    H156688   1.606   7.650   1.449
10903TIP3    H256689   1.706   7.537   1.440
10904TIP3   OH256690   1.028   7.759   0.918
10904TIP3    H156691   0.961   7.695   0.949
10904TIP3    H256692   1.086   7.703   0.865
10905TIP3   OH256693   1.531   7.545   0.904
10905TIP3    H156694   1.599   7.617   0.892
10905TIP3    H256695   1.452   7.602   0.905
10906TIP3   OH256696   1.703   7.687   0.739
10906TIP3    H156697   1.780   7.632   0.714
10906TIP3    H256698   1.749   7.764   0.778
10907TIP3   OH256699   0.267   7.623   0.706
10907TIP3    H156700   0.186   7.605   0.654
10907TIP3    H256701   0.312   7.538   0.699
10908TIP3   OH256702   0.143   7.596   0.281
10908TIP3    H156703   0.186   7.665   0.228
10908TIP3    H256704   0.088   7.654   0.339
10909TIP3   OH256705   0.711   7.614   0.684
10909TIP3    H156706   0.800   7.653   0.678
10909TIP3    H256707   0.703   7.602   0.779
10910TIP3   OH256708   1.270   7.621   0.849
10910TIP3    H156709   1.279   7.629   0.754
10910TIP3    H256710   1.243   7.527   0.860
10911TIP3   OH256711   1.390   7.619   0.442
10911TIP3    H156712   1.311   7.672   0.419
10911TIP3    H256713   1.354   7.526   0.443
10912TIP3   OH256714   0.324   7.792   0.133
10912TIP3    H156715   0.376   7.731   0.080
10912TIP3    H256716   0.394   7.827   0.191
10913TIP3   OH256717   0.826   7.818   0.367
10913TIP3    H156718   0.854   7.762   0.442
10913TIP3    H256719   0.832   7.904   0.417
10914TIP3   OH256720   0.247   7.684   1.658
10914TIP3    H156721   0.212   7.598   1.689
10914TIP3    H256722   0.342   7.675   1.687
10915TIP3   OH256723   0.454   7.617   1.815
10915TIP3    H156724   0.542   7.582   1.795
10915TIP3    H256725   0.412   7.538   1.855
10916TIP3   OH256726   1.291   7.544   1.832
10916TIP3    H156727   1.303   7.497   1.916
10916TIP3    H256728   1.383   7.546   1.796
10917TIP3   OH256729   3.639   7.870   1.152
10917TIP3    H156730   3.658   7.920   1.235
10917TIP3    H256731   3.699   7.916   1.092
10918TIP3   OH256732   2.409   7.960   0.843
10918TIP3    H156733   2.422   8.041   0.792
10918TIP3    H256734   2.372   7.900   0.773
10919TIP3   OH256735   3.186   7.964   0.671
10919TIP3    H156736   3.246   7.938   0.745
10919TIP3    H256737   3.249   8.020   0.624
10920TIP3   OH256738   3.683   7.982   1.385
10920TIP3    H156739   3.651   8.070   1.359
10920TIP3    H256740   3.701   7.995   1.481
10921TIP3   OH256741   2.302   7.838   1.255
10921TIP3    H156742   2.275   7.893   1.177
10921TIP3    H256743   2.232   7.867   1.319
10922TIP3   OH256744   3.356   7.888   0.873
10922TIP3    H156745   3.341   7.821   0.939
10922TIP3    H256746   3.416   7.950   0.919
10923TIP3   OH256747   2.273   7.999   1.063
10923TIP3    H156748   2.310   8.087   1.085
10923TIP3    H256749   2.313   7.984   0.974
10924TIP3   OH256750   3.396   7.774   1.246
10924TIP3    H156751   3.320   7.833   1.234
10924TIP3    H256752   3.467   7.815   1.192
10925TIP3   OH256753   2.693   7.582   0.992
10925TIP3    H156754   2.676   7.486   0.985
10925TIP3    H256755   2.606   7.614   1.024
10926TIP3   OH256756   3.530   7.573   0.292
10926TIP3    H156757   3.435   7.586   0.312
10926TIP3    H256758   3.548   7.658   0.246
10927TIP3   OH256759   2.433   7.675   1.067
10927TIP3    H156760   2.342   7.660   1.033
10927TIP3    H256761   2.418   7.756   1.119
10928TIP3   OH256762   2.896   7.638   1.404
10928TIP3    H156763   2.936   7.596   1.483
10928TIP3    H256764   2.799   7.629   1.420
10929TIP3   OH256765   3.226   8.026   1.497
10929TIP3    H156766   3.165   8.002   1.572
10929TIP3    H256767   3.196   8.113   1.469
10930TIP3   OH256768   2.862   7.895   0.141
10930TIP3    H156769   2.823   7.892   0.231
10930TIP3    H256770   2.829   7.811   0.106
10931TIP3   OH256771   2.540   7.853   0.060
10931TIP3    H156772   2.503   7.874   0.147
10931TIP3    H256773   2.482   7.914   0.012
10932TIP3   OH256774   1.873   7.910   0.756
10932TIP3    H156775   1.932   7.899   0.834
10932TIP3    H256776   1.919   7.867   0.683
10933TIP3   OH256777   1.977   7.948   0.286
10933TIP3    H156778   2.041   8.012   0.249
10933TIP3    H256779   1.929   8.017   0.334
10934TIP3   OH256780   2.690   7.926   0.778
10934TIP3    H156781   2.598   7.934   0.809
10934TIP3    H256782   2.743   7.920   0.859
10935TIP3   OH256783   3.137   7.860   1.106
10935TIP3    H156784   3.066   7.872   1.174
10935TIP3    H256785   3.085   7.837   1.027
10936TIP3   OH256786   2.326   7.826   0.620
10936TIP3    H156787   2.293   7.734   0.612
10936TIP3    H256788   2.399   7.823   0.556
10937TIP3   OH256789   2.688   8.024   1.198
10937TIP3    H156790   2.615   8.087   1.204
10937TIP3    H256791   2.743   8.065   1.269
10938TIP3   OH256792   3.128   7.955   0.208
10938TIP3    H156793   3.034   7.964   0.183
10938TIP3    H256794   3.162   8.043   0.228
10939TIP3   OH256795   2.117   7.921   1.446
10939TIP3    H156796   2.027   7.956   1.435
10939TIP3    H256797   2.104   7.836   1.490
10940TIP3   OH256798   2.987   7.894   1.335
10940TIP3    H156799   3.058   7.908   1.399
10940TIP3    H256800   2.953   7.806   1.361
10941TIP3   OH256801   3.058   7.864   0.452
10941TIP3    H156802   3.094   7.897   0.367
10941TIP3    H256803   3.124   7.896   0.516
10942TIP3   OH256804   2.800   8.022   0.529
10942TIP3    H156805   2.866   8.093   0.533
10942TIP3    H256806   2.761   8.022   0.618
10943TIP3   OH256807   2.877   7.736   0.617
10943TIP3    H156808   2.844   7.801   0.683
10943TIP3    H256809   2.944   7.791   0.570
10944TIP3   OH256810   2.438   7.848   0.304
10944TIP3    H156811   2.437   7.942   0.322
10944TIP3    H256812   2.533   7.822   0.312
10945TIP3   OH256813   3.464   7.919   1.530
10945TIP3    H156814   3.370   7.949   1.523
10945TIP3    H256815   3.492   7.918   1.437
10946TIP3   OH256816   2.186   7.632   0.981
10946TIP3    H156817   2.161   7.642   0.886
10946TIP3    H256818   2.137   7.552   1.005
10947TIP3   OH256819   2.453   7.997   1.588
10947TIP3    H156820   2.512   7.940   1.535
10947TIP3    H256821   2.486   8.086   1.566
10948TIP3   OH256822   2.548   7.866   1.358
10948TIP3    H156823   2.603   7.906   1.287
10948TIP3    H256824   2.458   7.861   1.316
10949TIP3   OH256825   2.628   7.611   1.394
10949TIP3    H156826   2.607   7.707   1.388
10949TIP3    H256827   2.553   7.574   1.344
10950TIP3   OH256828   2.783   7.986   1.792
10950TIP3    H156829   2.749   8.018   1.878
10950TIP3    H256830   2.700   7.995   1.746
10951TIP3   OH256831   3.028   7.945   1.656
10951TIP3    H156832   2.936   7.963   1.684
10951TIP3    H256833   3.059   7.897   1.735
10952TIP3   OH256834   3.185   7.816   1.860
10952TIP3    H156835   3.177   7.718   1.859
10952TIP3    H256836   3.162   7.843   1.950
10953TIP3   OH256837   2.170   7.947   1.774
10953TIP3    H156838   2.188   7.873   1.713
10953TIP3    H256839   2.158   7.895   1.856
10954TIP3   OH256840   2.651   7.549   1.664
10954TIP3    H156841   2.717   7.477   1.664
10954TIP3    H256842   2.639   7.563   1.568
10955TIP3   OH256843   2.684   7.702   1.881
10955TIP3    H156844   2.670   7.656   1.795
10955TIP3    H256845   2.633   7.785   1.868
10956TIP3   OH256846   3.439   7.896   0.126
10956TIP3    H156847   3.528   7.869   0.095
10956TIP3    H256848   3.388   7.875   0.047
10957TIP3   OH256849   3.442   8.052   0.552
10957TIP3    H156850   3.460   7.958   0.528
10957TIP3    H256851   3.495   8.096   0.482
10958TIP3   OH256852   1.917   8.027   1.668
10958TIP3    H156853   2.008   8.016   1.700
10958TIP3    H256854   1.869   7.953   1.712
10959TIP3   OH256855   3.723   7.596   1.873
10959TIP3    H156856   3.753   7.531   1.808
10959TIP3    H256857   3.724   7.679   1.820
10960TIP3   OH256858   3.491   7.792   0.517
10960TIP3    H156859   3.510   7.752   0.604
10960TIP3    H256860   3.429   7.729   0.476
10961TIP3   OH256861   2.047   7.875   0.961
10961TIP3    H156862   2.081   7.793   1.002
10961TIP3    H256863   2.079   7.939   1.025
10962TIP3   OH256864   3.671   7.806   1.709
10962TIP3    H156865   3.578   7.839   1.703
10962TIP3    H256866   3.672   7.753   1.627
10963TIP3   OH256867   3.680   7.790   0.172
10963TIP3    H156868   3.723   7.725   0.117
10963TIP3    H256869   3.745   7.862   0.187
10964TIP3   OH256870   1.900   7.798   0.487
10964TIP3    H156871   1.807   7.823   0.475
10964TIP3    H256872   1.945   7.851   0.419
10965TIP3   OH256873   1.898   7.662   1.318
10965TIP3    H156874   1.828   7.653   1.385
10965TIP3    H256875   1.861   7.735   1.262
10966TIP3   OH256876   3.575   7.619   1.493
10966TIP3    H156877   3.492   7.648   1.452
10966TIP3    H256878   3.592   7.536   1.443
10967TIP3   OH256879   2.912   7.759   0.918
10967TIP3    H156880   2.845   7.695   0.950
10967TIP3    H256881   2.968   7.703   0.863
10968TIP3   OH256882   3.424   7.570   0.929
10968TIP3    H156883   3.487   7.625   0.876
10968TIP3    H256884   3.336   7.606   0.903
10969TIP3   OH256885   3.591   7.686   0.754
10969TIP3    H156886   3.662   7.633   0.711
10969TIP3    H256887   3.640   7.770   0.768
10970TIP3   OH256888   2.148   7.624   0.709
10970TIP3    H156889   2.068   7.606   0.655
10970TIP3    H256890   2.194   7.539   0.700
10971TIP3   OH256891   2.026   7.599   0.281
10971TIP3    H156892   2.075   7.665   0.229
10971TIP3    H256893   1.973   7.656   0.339
10972TIP3   OH256894   2.597   7.615   0.684
10972TIP3    H156895   2.686   7.653   0.678
10972TIP3    H256896   2.590   7.602   0.778
10973TIP3   OH256897   3.166   7.617   0.847
10973TIP3    H156898   3.162   7.629   0.752
10973TIP3    H256899   3.125   7.529   0.860
10974TIP3   OH256900   3.293   7.621   0.412
10974TIP3    H156901   3.220   7.683   0.401
10974TIP3    H256902   3.249   7.536   0.434
10975TIP3   OH256903   2.207   7.790   0.135
10975TIP3    H156904   2.261   7.731   0.081
10975TIP3    H256905   2.276   7.828   0.192
10976TIP3   OH256906   2.713   7.818   0.367
10976TIP3    H156907   2.739   7.762   0.442
10976TIP3    H256908   2.718   7.904   0.417
10977TIP3   OH256909   2.136   7.681   1.657
10977TIP3    H156910   2.099   7.597   1.691
10977TIP3    H256911   2.229   7.673   1.689
10978TIP3   OH256912   2.337   7.617   1.817
10978TIP3    H156913   2.425   7.583   1.795
10978TIP3    H256914   2.299   7.536   1.857
10979TIP3   OH256915   3.177   7.544   1.832
10979TIP3    H156916   3.188   7.497   1.917
10979TIP3    H256917   3.268   7.545   1.797
10980TIP3   OH256918   5.525   7.871   1.153
10980TIP3    H156919   5.544   7.918   1.237
10980TIP3    H256920   5.585   7.915   1.094
10981TIP3   OH256921   4.294   7.960   0.843
10981TIP3    H156922   4.307   8.041   0.793
10981TIP3    H256923   4.258   7.900   0.773
10982TIP3   OH256924   5.072   7.963   0.671
10982TIP3    H156925   5.131   7.938   0.745
10982TIP3    H256926   5.135   8.020   0.624
10983TIP3   OH256927   5.566   7.981   1.387
10983TIP3    H156928   5.537   8.071   1.361
10983TIP3    H256929   5.590   7.995   1.481
10984TIP3   OH256930   4.186   7.839   1.258
10984TIP3    H156931   4.164   7.892   1.176
10984TIP3    H256932   4.112   7.870   1.314
10985TIP3   OH256933   5.245   7.889   0.872
10985TIP3    H156934   5.227   7.821   0.938
10985TIP3    H256935   5.302   7.950   0.922
10986TIP3   OH256936   4.158   7.999   1.065
10986TIP3    H156937   4.196   8.087   1.084
10986TIP3    H256938   4.197   7.984   0.976
10987TIP3   OH256939   5.282   7.774   1.246
10987TIP3    H156940   5.205   7.833   1.234
10987TIP3    H256941   5.352   7.814   1.192
10988TIP3   OH256942   4.579   7.582   0.992
10988TIP3    H156943   4.562   7.486   0.985
10988TIP3    H256944   4.491   7.614   1.024
10989TIP3   OH256945   5.416   7.573   0.292
10989TIP3    H156946   5.321   7.586   0.312
10989TIP3    H256947   5.433   7.658   0.246
10990TIP3   OH256948   4.318   7.674   1.069
10990TIP3    H156949   4.228   7.659   1.031
10990TIP3    H256950   4.305   7.757   1.116
10991TIP3   OH256951   4.781   7.638   1.404
10991TIP3    H156952   4.821   7.596   1.483
10991TIP3    H256953   4.684   7.629   1.419
10992TIP3   OH256954   5.111   8.026   1.497
10992TIP3    H156955   5.051   8.002   1.572
10992TIP3    H256956   5.081   8.113   1.469
10993TIP3   OH256957   4.747   7.895   0.141
10993TIP3    H156958   4.709   7.892   0.231
10993TIP3    H256959   4.715   7.811   0.106
10994TIP3   OH256960   4.426   7.853   0.060
10994TIP3    H156961   4.389   7.874   0.147
10994TIP3    H256962   4.368   7.914   0.012
10995TIP3   OH256963   3.756   7.904   0.760
10995TIP3    H156964   3.822   7.900   0.832
10995TIP3    H256965   3.802   7.870   0.681
10996TIP3   OH256966   3.866   7.948   0.288
10996TIP3    H156967   3.928   8.014   0.250
10996TIP3    H256968   3.813   8.015   0.334
10997TIP3   OH256969   4.575   7.926   0.779
10997TIP3    H156970   4.483   7.935   0.809
10997TIP3    H256971   4.629   7.920   0.859
10998TIP3   OH256972   5.022   7.860   1.106
10998TIP3    H156973   4.952   7.872   1.174
10998TIP3    H256974   4.971   7.837   1.027
10999TIP3   OH256975   4.212   7.826   0.620
10999TIP3    H156976   4.178   7.734   0.612
10999TIP3    H256977   4.284   7.824   0.556
11000TIP3   OH256978   4.574   8.023   1.199
11000TIP3    H156979   4.501   8.088   1.202
11000TIP3    H256980   4.628   8.064   1.269
11001TIP3   OH256981   5.014   7.955   0.208
11001TIP3    H156982   4.920   7.964   0.183
11001TIP3    H256983   5.047   8.043   0.228
11002TIP3   OH256984   3.997   7.921   1.447
11002TIP3    H156985   3.912   7.966   1.429
11002TIP3    H256986   3.965   7.833   1.469
11003TIP3   OH256987   4.870   7.895   1.337
11003TIP3    H156988   4.944   7.908   1.399
11003TIP3    H256989   4.839   7.806   1.361
11004TIP3   OH256990   4.943   7.865   0.451
11004TIP3    H156991   4.980   7.897   0.367
11004TIP3    H256992   5.009   7.896   0.516
11005TIP3   OH256993   4.686   8.022   0.529
11005TIP3    H156994   4.752   8.093   0.533
11005TIP3    H256995   4.647   8.022   0.618
11006TIP3   OH256996   4.762   7.736   0.617
11006TIP3    H156997   4.729   7.801   0.683
11006TIP3    H256998   4.830   7.791   0.570
11007TIP3   OH256999   4.324   7.848   0.304
11007TIP3    H157000   4.323   7.942   0.322
11007TIP3    H257001   4.418   7.822   0.312
11008TIP3   OH257002   5.349   7.918   1.530
11008TIP3    H157003   5.256   7.949   1.524
11008TIP3    H257004   5.377   7.918   1.437
11009TIP3   OH257005   4.067   7.636   0.982
11009TIP3    H157006   4.048   7.640   0.885
11009TIP3    H257007   4.025   7.551   1.005
11010TIP3   OH257008   4.333   7.994   1.585
11010TIP3    H157009   4.401   7.943   1.536
11010TIP3    H257010   4.369   8.084   1.571
11011TIP3   OH257011   4.430   7.867   1.359
11011TIP3    H157012   4.489   7.905   1.289
11011TIP3    H257013   4.344   7.860   1.311
11012TIP3   OH257014   4.511   7.612   1.397
11012TIP3    H157015   4.495   7.707   1.385
11012TIP3    H257016   4.440   7.573   1.343
11013TIP3   OH257017   4.670   7.987   1.792
11013TIP3    H157018   4.635   8.018   1.878
11013TIP3    H257019   4.587   7.996   1.745
11014TIP3   OH257020   4.913   7.946   1.656
11014TIP3    H157021   4.822   7.963   1.684
11014TIP3    H257022   4.944   7.897   1.734
11015TIP3   OH257023   5.071   7.816   1.860
11015TIP3    H157024   5.063   7.718   1.858
11015TIP3    H257025   5.047   7.842   1.951
11016TIP3   OH257026   4.053   7.952   1.786
11016TIP3    H157027   4.068   7.873   1.737
11016TIP3    H257028   4.041   7.907   1.873
11017TIP3   OH257029   4.534   7.550   1.664
11017TIP3    H157030   4.601   7.478   1.666
11017TIP3    H257031   4.527   7.562   1.567
11018TIP3   OH257032   4.568   7.701   1.881
11018TIP3    H157033   4.557   7.655   1.795
11018TIP3    H257034   4.519   7.785   1.868
11019TIP3   OH257035   5.325   7.897   0.126
11019TIP3    H157036   5.414   7.869   0.095
11019TIP3    H257037   5.274   7.876   0.047
11020TIP3   OH257038   5.333   8.053   0.554
11020TIP3    H157039   5.344   7.959   0.527
11020TIP3    H257040   5.379   8.095   0.479
11021TIP3   OH257041   3.805   8.024   1.665
11021TIP3    H157042   3.892   8.021   1.709
11021TIP3    H257043   3.753   7.956   1.713
11022TIP3   OH257044   5.605   7.596   1.871
11022TIP3    H157045   5.641   7.532   1.808
11022TIP3    H257046   5.612   7.679   1.820
11023TIP3   OH257047   5.377   7.792   0.516
11023TIP3    H157048   5.395   7.750   0.603
11023TIP3    H257049   5.314   7.728   0.475
11024TIP3   OH257050   3.925   7.875   0.971
11024TIP3    H157051   3.970   7.793   1.000
11024TIP3    H257052   3.973   7.941   1.022
11025TIP3   OH257053   5.554   7.807   1.710
11025TIP3    H157054   5.463   7.840   1.700
11025TIP3    H257055   5.561   7.755   1.628
11026TIP3   OH257056   5.566   7.789   0.173
11026TIP3    H157057   5.609   7.725   0.117
11026TIP3    H257058   5.631   7.862   0.187
11027TIP3   OH257059   3.784   7.802   0.489
11027TIP3    H157060   3.691   7.820   0.471
11027TIP3    H257061   3.828   7.850   0.417
11028TIP3   OH257062   3.785   7.671   1.320
11028TIP3    H157063   3.713   7.649   1.383
11028TIP3    H257064   3.736   7.733   1.261
11029TIP3   OH257065   5.460   7.619   1.493
11029TIP3    H157066   5.377   7.647   1.451
11029TIP3    H257067   5.477   7.536   1.443
11030TIP3   OH257068   4.798   7.759   0.918
11030TIP3    H157069   4.731   7.695   0.950
11030TIP3    H257070   4.854   7.703   0.863
11031TIP3   OH257071   5.310   7.569   0.929
11031TIP3    H157072   5.372   7.625   0.876
11031TIP3    H257073   5.222   7.606   0.903
11032TIP3   OH257074   5.478   7.687   0.755
11032TIP3    H157075   5.548   7.633   0.712
11032TIP3    H257076   5.526   7.771   0.768
11033TIP3   OH257077   4.035   7.624   0.708
11033TIP3    H157078   3.955   7.606   0.654
11033TIP3    H257079   4.080   7.538   0.700
11034TIP3   OH257080   3.914   7.598   0.282
11034TIP3    H157081   3.960   7.665   0.229
11034TIP3    H257082   3.856   7.655   0.338
11035TIP3   OH257083   4.483   7.615   0.684
11035TIP3    H157084   4.572   7.653   0.677
11035TIP3    H257085   4.476   7.603   0.778
11036TIP3   OH257086   5.052   7.617   0.847
11036TIP3    H157087   5.047   7.629   0.752
11036TIP3    H257088   5.011   7.529   0.860
11037TIP3   OH257089   5.179   7.621   0.412
11037TIP3    H157090   5.105   7.683   0.401
11037TIP3    H257091   5.135   7.535   0.434
11038TIP3   OH257092   4.093   7.790   0.135
11038TIP3    H157093   4.147   7.731   0.081
11038TIP3    H257094   4.162   7.828   0.192
11039TIP3   OH257095   4.599   7.818   0.367
11039TIP3    H157096   4.625   7.762   0.442
11039TIP3    H257097   4.604   7.904   0.417
11040TIP3   OH257098   4.018   7.654   1.655
11040TIP3    H157099   3.975   7.576   1.699
11040TIP3    H257100   4.106   7.642   1.696
11041TIP3   OH257101   4.222   7.618   1.813
11041TIP3    H157102   4.311   7.583   1.797
11041TIP3    H257103   4.184   7.539   1.857
11042TIP3   OH257104   5.062   7.544   1.832
11042TIP3    H157105   5.073   7.497   1.917
11042TIP3    H257106   5.154   7.545   1.797
11043TIP3   OH257107   7.410   7.871   1.153
11043TIP3    H157108   7.430   7.919   1.236
11043TIP3    H257109   7.471   7.915   1.092
11044TIP3   OH257110   6.175   7.962   0.842
11044TIP3    H157111   6.197   8.040   0.791
11044TIP3    H257112   6.145   7.899   0.772
11045TIP3   OH257113   6.957   7.964   0.671
11045TIP3    H157114   7.017   7.938   0.745
11045TIP3    H257115   7.020   8.020   0.624
11046TIP3   OH257116   7.451   7.981   1.387
11046TIP3    H157117   7.423   8.070   1.360
11046TIP3    H257118   7.476   7.995   1.481
11047TIP3   OH257119   6.074   7.839   1.254
11047TIP3    H157120   6.047   7.894   1.177
11047TIP3    H257121   6.004   7.867   1.319
11048TIP3   OH257122   7.128   7.888   0.873
11048TIP3    H157123   7.113   7.821   0.940
11048TIP3    H257124   7.188   7.950   0.919
11049TIP3   OH257125   6.040   8.002   1.061
11049TIP3    H157126   6.086   8.084   1.087
11049TIP3    H257127   6.086   7.982   0.976
11050TIP3   OH257128   7.168   7.774   1.246
11050TIP3    H157129   7.091   7.833   1.233
11050TIP3    H257130   7.238   7.815   1.192
11051TIP3   OH257131   6.464   7.583   0.992
11051TIP3    H157132   6.448   7.487   0.985
11051TIP3    H257133   6.376   7.614   1.024
11052TIP3   OH257134   7.301   7.573   0.291
11052TIP3    H157135   7.206   7.586   0.312
11052TIP3    H257136   7.319   7.657   0.246
11053TIP3   OH257137   6.205   7.675   1.067
11053TIP3    H157138   6.113   7.659   1.032
11053TIP3    H257139   6.190   7.755   1.119
11054TIP3   OH257140   6.667   7.638   1.404
11054TIP3    H157141   6.707   7.596   1.483
11054TIP3    H257142   6.570   7.629   1.419
11055TIP3   OH257143   6.997   8.026   1.497
11055TIP3    H157144   6.937   8.002   1.571
11055TIP3    H257145   6.967   8.113   1.469
11056TIP3   OH257146   6.633   7.895   0.141
11056TIP3    H157147   6.595   7.892   0.231
11056TIP3    H257148   6.600   7.811   0.106
11057TIP3   OH257149   6.311   7.853   0.061
11057TIP3    H157150   6.274   7.875   0.147
11057TIP3    H257151   6.254   7.914   0.012
11058TIP3   OH257152   5.648   7.917   0.758
11058TIP3    H157153   5.708   7.892   0.833
11058TIP3    H257154   5.684   7.868   0.681
11059TIP3   OH257155   5.752   7.948   0.290
11059TIP3    H157156   5.814   8.014   0.252
11059TIP3    H257157   5.697   8.015   0.332
11060TIP3   OH257158   6.460   7.927   0.778
11060TIP3    H157159   6.368   7.934   0.809
11060TIP3    H257160   6.514   7.920   0.858
11061TIP3   OH257161   6.908   7.860   1.106
11061TIP3    H157162   6.838   7.872   1.174
11061TIP3    H257163   6.857   7.837   1.027
11062TIP3   OH257164   6.095   7.828   0.620
11062TIP3    H157165   6.062   7.737   0.611
11062TIP3    H257166   6.169   7.825   0.557
11063TIP3   OH257167   6.457   8.024   1.197
11063TIP3    H157168   6.385   8.088   1.204
11063TIP3    H257169   6.513   8.064   1.268
11064TIP3   OH257170   6.899   7.955   0.208
11064TIP3    H157171   6.806   7.964   0.183
11064TIP3    H257172   6.933   8.043   0.228
11065TIP3   OH257173   5.889   7.920   1.445
11065TIP3    H157174   5.799   7.957   1.439
11065TIP3    H257175   5.876   7.836   1.490
11066TIP3   OH257176   6.758   7.894   1.335
11066TIP3    H157177   6.830   7.908   1.399
11066TIP3    H257178   6.724   7.806   1.361
11067TIP3   OH257179   6.829   7.864   0.452
11067TIP3    H157180   6.865   7.897   0.367
11067TIP3    H257181   6.895   7.896   0.516
11068TIP3   OH257182   6.571   8.022   0.529
11068TIP3    H157183   6.637   8.093   0.533
11068TIP3    H257184   6.533   8.022   0.618
11069TIP3   OH257185   6.648   7.736   0.617
11069TIP3    H157186   6.615   7.801   0.683
11069TIP3    H257187   6.716   7.791   0.570
11070TIP3   OH257188   6.209   7.848   0.305
11070TIP3    H157189   6.209   7.943   0.322
11070TIP3    H257190   6.304   7.822   0.312
11071TIP3   OH257191   7.235   7.918   1.530
11071TIP3    H157192   7.141   7.949   1.523
11071TIP3    H257193   7.263   7.919   1.438
11072TIP3   OH257194   5.952   7.636   0.982
11072TIP3    H157195   5.934   7.641   0.886
11072TIP3    H257196   5.910   7.551   1.005
11073TIP3   OH257197   6.224   7.997   1.588
11073TIP3    H157198   6.283   7.940   1.535
11073TIP3    H257199   6.257   8.086   1.566
11074TIP3   OH257200   6.319   7.866   1.358
11074TIP3    H157201   6.374   7.906   1.287
11074TIP3    H257202   6.230   7.861   1.316
11075TIP3   OH257203   6.400   7.611   1.394
11075TIP3    H157204   6.379   7.706   1.388
11075TIP3    H257205   6.325   7.573   1.345
11076TIP3   OH257206   6.555   7.986   1.792
11076TIP3    H157207   6.520   8.018   1.878
11076TIP3    H257208   6.471   7.995   1.746
11077TIP3   OH257209   6.799   7.946   1.657
11077TIP3    H157210   6.708   7.963   1.684
11077TIP3    H257211   6.829   7.897   1.736
11078TIP3   OH257212   6.959   7.816   1.863
11078TIP3    H157213   6.948   7.718   1.857
11078TIP3    H257214   6.931   7.840   1.952
11079TIP3   OH257215   5.940   7.947   1.774
11079TIP3    H157216   5.959   7.873   1.713
11079TIP3    H257217   5.929   7.895   1.856
11080TIP3   OH257218   6.422   7.550   1.664
11080TIP3    H157219   6.488   7.477   1.664
11080TIP3    H257220   6.410   7.563   1.568
11081TIP3   OH257221   6.455   7.702   1.881
11081TIP3    H157222   6.442   7.656   1.795
11081TIP3    H257223   6.403   7.785   1.868
11082TIP3   OH257224   7.211   7.897   0.127
11082TIP3    H157225   7.299   7.869   0.095
11082TIP3    H257226   7.160   7.875   0.048
11083TIP3   OH257227   7.213   8.051   0.552
11083TIP3    H157228   7.231   7.957   0.529
11083TIP3    H257229   7.267   8.094   0.482
11084TIP3   OH257230   5.689   8.027   1.667
11084TIP3    H157231   5.780   8.017   1.703
11084TIP3    H257232   5.641   7.954   1.713
11085TIP3   OH257233   7.490   7.596   1.871
11085TIP3    H157234   7.527   7.532   1.808
11085TIP3    H257235   7.498   7.679   1.820
11086TIP3   OH257236   7.261   7.793   0.517
11086TIP3    H157237   7.281   7.751   0.603
11086TIP3    H257238   7.199   7.729   0.476
11087TIP3   OH257239   5.812   7.879   0.971
11087TIP3    H157240   5.852   7.793   0.999
11087TIP3    H257241   5.861   7.939   1.027
11088TIP3   OH257242   7.440   7.806   1.710
11088TIP3    H157243   7.348   7.840   1.699
11088TIP3    H257244   7.447   7.755   1.628
11089TIP3   OH257245   7.451   7.789   0.173
11089TIP3    H157246   7.495   7.725   0.117
11089TIP3    H257247   7.515   7.862   0.187
11090TIP3   OH257248   5.669   7.809   0.495
11090TIP3    H157249   5.576   7.817   0.470
11090TIP3    H257250   5.713   7.848   0.417
11091TIP3   OH257251   5.668   7.667   1.317
11091TIP3    H157252   5.602   7.651   1.386
11091TIP3    H257253   5.622   7.735   1.262
11092TIP3   OH257254   7.345   7.619   1.493
11092TIP3    H157255   7.262   7.648   1.451
11092TIP3    H257256   7.362   7.536   1.443
11093TIP3   OH257257   6.683   7.759   0.918
11093TIP3    H157258   6.617   7.695   0.950
11093TIP3    H257259   6.739   7.703   0.863
11094TIP3   OH257260   7.195   7.569   0.929
11094TIP3    H157261   7.258   7.625   0.877
11094TIP3    H257262   7.107   7.606   0.903
11095TIP3   OH257263   7.363   7.686   0.754
11095TIP3    H157264   7.434   7.633   0.711
11095TIP3    H257265   7.412   7.770   0.768
11096TIP3   OH257266   5.920   7.624   0.708
11096TIP3    H157267   5.841   7.606   0.654
11096TIP3    H257268   5.966   7.538   0.700
11097TIP3   OH257269   5.799   7.598   0.282
11097TIP3    H157270   5.845   7.665   0.229
11097TIP3    H257271   5.742   7.654   0.338
11098TIP3   OH257272   6.368   7.615   0.684
11098TIP3    H157273   6.458   7.653   0.678
11098TIP3    H257274   6.361   7.602   0.778
11099TIP3   OH257275   6.938   7.617   0.847
11099TIP3    H157276   6.933   7.629   0.752
11099TIP3    H257277   6.897   7.529   0.860
11100TIP3   OH257278   7.065   7.621   0.412
11100TIP3    H157279   6.991   7.683   0.401
11100TIP3    H257280   7.021   7.536   0.434
11101TIP3   OH257281   5.979   7.790   0.135
11101TIP3    H157282   6.033   7.731   0.081
11101TIP3    H257283   6.048   7.828   0.192
11102TIP3   OH257284   6.484   7.818   0.367
11102TIP3    H157285   6.510   7.762   0.442
11102TIP3    H257286   6.489   7.903   0.416
11103TIP3   OH257287   5.907   7.681   1.655
11103TIP3    H157288   5.870   7.598   1.690
11103TIP3    H257289   6.000   7.674   1.688
11104TIP3   OH257290   6.107   7.617   1.817
11104TIP3    H157291   6.196   7.583   1.795
11104TIP3    H257292   6.070   7.536   1.857
11105TIP3   OH257293   6.948   7.543   1.831
11105TIP3    H157294   6.959   7.498   1.917
11105TIP3    H257295   7.040   7.545   1.797
11106TIP3   OH257296   7.930   7.836   1.244
11106TIP3    H157297   7.932   7.904   1.173
11106TIP3    H257298   7.882   7.879   1.316
11107TIP3   OH257299   7.941   8.010   1.058
11107TIP3    H157300   7.968   8.102   1.076
11107TIP3    H257301   7.971   7.994   0.967
11108TIP3   OH257302   7.526   7.904   0.760
11108TIP3    H157303   7.592   7.901   0.833
11108TIP3    H257304   7.573   7.871   0.681
11109TIP3   OH257305   7.634   7.949   0.287
11109TIP3    H157306   7.698   8.014   0.251
11109TIP3    H257307   7.580   8.015   0.333
11110TIP3   OH257308   7.926   7.819   0.597
11110TIP3    H157309   7.924   7.723   0.620
11110TIP3    H257310   8.021   7.831   0.585
11111TIP3   OH257311   7.773   7.923   1.450
11111TIP3    H157312   7.683   7.957   1.435
11111TIP3    H257313   7.760   7.836   1.490
11112TIP3   OH257314   7.836   7.636   0.983
11112TIP3    H157315   7.823   7.641   0.886
11112TIP3    H257316   7.796   7.551   1.007
11113TIP3   OH257317   7.822   7.943   1.776
11113TIP3    H157318   7.845   7.870   1.713
11113TIP3    H257319   7.811   7.891   1.858
11114TIP3   OH257320   7.574   8.026   1.666
11114TIP3    H157321   7.664   8.017   1.703
11114TIP3    H257322   7.525   7.955   1.712
11115TIP3   OH257323   7.695   7.876   0.974
11115TIP3    H157324   7.742   7.793   0.998
11115TIP3    H257325   7.749   7.941   1.021
11116TIP3   OH257326   7.555   7.800   0.487
11116TIP3    H157327   7.461   7.819   0.472
11116TIP3    H257328   7.597   7.851   0.417
11117TIP3   OH257329   7.551   7.665   1.316
11117TIP3    H157330   7.484   7.652   1.385
11117TIP3    H257331   7.508   7.734   1.261
11118TIP3   OH257332   7.799   7.618   0.711
11118TIP3    H157333   7.720   7.603   0.656
11118TIP3    H257334   7.851   7.538   0.705
11119TIP3   OH257335   7.686   7.598   0.282
11119TIP3    H157336   7.730   7.667   0.229
11119TIP3    H257337   7.627   7.654   0.338
11120TIP3   OH257338   7.867   7.784   0.135
11120TIP3    H157339   7.924   7.732   0.077
11120TIP3    H257340   7.933   7.829   0.190
11121TIP3   OH257341   7.800   7.684   1.654
11121TIP3    H157342   7.761   7.601   1.688
11121TIP3    H257343   7.892   7.673   1.685
11122TIP3   OH257344   7.993   7.616   1.817
11122TIP3    H157345   8.081   7.584   1.790
11122TIP3    H257346   7.957   7.535   1.859
11123TIP3   OH257347   1.172   0.996   2.574
11123TIP3    H157348   1.170   1.094   2.576
11123TIP3    H257349   1.096   0.975   2.516
11124TIP3   OH257350   1.057   0.920   2.930
11124TIP3    H157351   1.055   0.851   2.997
11124TIP3    H257352   1.025   0.873   2.852
11125TIP3   OH257353   0.297   0.896   3.089
11125TIP3    H157354   0.304   0.820   3.150
11125TIP3    H257355   0.378   0.945   3.110
11126TIP3   OH257356   1.423   1.217   2.752
11126TIP3    H157357   1.384   1.145   2.803
11126TIP3    H257358   1.429   1.287   2.822
11127TIP3   OH257359   0.381   1.333   2.932
11127TIP3    H157360   0.355   1.244   2.899
11127TIP3    H257361   0.478   1.319   2.934
11128TIP3   OH257362   0.061   0.694   2.438
11128TIP3    H157363   0.016   0.769   2.484
11128TIP3    H257364  -0.012   0.633   2.440
11129TIP3   OH257365   0.147   0.927   2.705
11129TIP3    H157366   0.136   0.834   2.734
11129TIP3    H257367   0.195   0.917   2.622
11130TIP3   OH257368   1.139   1.734   2.784
11130TIP3    H157369   1.202   1.665   2.752
11130TIP3    H257370   1.117   1.697   2.870
11131TIP3   OH257371   0.895   1.163   2.975
11131TIP3    H157372   0.929   1.099   2.911
11131TIP3    H257373   0.976   1.179   3.027
11132TIP3   OH257374   1.762   0.320   3.050
11132TIP3    H157375   1.771   0.385   3.123
11132TIP3    H257376   1.810   0.369   2.982
11133TIP3   OH257377   1.212   0.610   3.005
11133TIP3    H157378   1.229   0.514   3.009
11133TIP3    H257379   1.201   0.622   2.909
11134TIP3   OH257380   0.523   0.417   2.728
11134TIP3    H157381   0.535   0.501   2.678
11134TIP3    H257382   0.484   0.361   2.658
11135TIP3   OH257383   1.296   0.425   2.565
11135TIP3    H157384   1.360   0.395   2.632
11135TIP3    H257385   1.353   0.483   2.512
11136TIP3   OH257386   0.231   0.668   2.803
11136TIP3    H157387   0.264   0.589   2.848
11136TIP3    H257388   0.190   0.632   2.722
11137TIP3   OH257389   0.701   0.812   2.736
11137TIP3    H157390   0.768   0.753   2.772
11137TIP3    H257391   0.650   0.751   2.680
11138TIP3   OH257392   1.802   0.479   3.274
11138TIP3    H157393   1.728   0.542   3.265
11138TIP3    H257394   1.794   0.452   3.367
11139TIP3   OH257395   0.417   0.309   3.126
11139TIP3    H157396   0.389   0.369   3.052
11139TIP3    H257397   0.351   0.327   3.193
11140TIP3   OH257398   1.142   1.254   2.485
11140TIP3    H157399   1.112   1.227   2.397
11140TIP3    H257400   1.112   1.348   2.491
11141TIP3   OH257401   0.666   1.074   3.149
11141TIP3    H157402   0.597   1.135   3.180
11141TIP3    H257403   0.739   1.134   3.127
11142TIP3   OH257404   1.478   0.364   2.765
11142TIP3    H157405   1.453   0.286   2.819
11142TIP3    H257406   1.544   0.405   2.822
11143TIP3   OH257407   0.375   0.487   2.936
11143TIP3    H157408   0.432   0.563   2.963
11143TIP3    H257409   0.424   0.455   2.856
11144TIP3   OH257410   0.503   1.270   3.233
11144TIP3    H157411   0.507   1.364   3.207
11144TIP3    H257412   0.424   1.264   3.286
11145TIP3   OH257413   0.107   1.235   2.317
11145TIP3    H157414   0.092   1.266   2.227
11145TIP3    H257415   0.129   1.316   2.366
11146TIP3   OH257416   1.477   1.400   2.980
11146TIP3    H157417   1.382   1.413   3.003
11146TIP3    H257418   1.505   1.493   2.976
11147TIP3   OH257419   1.511   0.235   3.140
11147TIP3    H157420   1.439   0.297   3.123
11147TIP3    H257421   1.583   0.268   3.083
11148TIP3   OH257422   0.800   0.050   2.843
11148TIP3    H157423   0.808  -0.039   2.880
11148TIP3    H257424   0.727   0.079   2.901
11149TIP3   OH257425   1.304   1.580   2.650
11149TIP3    H157426   1.347   1.507   2.601
11149TIP3    H257427   1.350   1.657   2.613
11150TIP3   OH257428   1.427   1.372   2.503
11150TIP3    H157429   1.396   1.302   2.443
11150TIP3    H257430   1.429   1.322   2.587
11151TIP3   OH257431   1.036   0.917   2.329
11151TIP3    H157432   0.967   0.977   2.295
11151TIP3    H257433   1.106   0.931   2.263
11152TIP3   OH257434   1.046   0.779   2.029
11152TIP3    H157435   1.116   0.776   2.096
11152TIP3    H257436   1.076   0.705   1.974
11153TIP3   OH257437   1.777   0.862   3.158
11153TIP3    H157438   1.714   0.937   3.163
11153TIP3    H257439   1.827   0.887   3.078
11154TIP3   OH257440   1.383   0.939   2.421
11154TIP3    H157441   1.308   0.965   2.480
11154TIP3    H257442   1.431   0.873   2.474
11155TIP3   OH257443   0.542   1.006   2.618
11155TIP3    H157444   0.513   0.976   2.528
11155TIP3    H257445   0.607   0.938   2.644
11156TIP3   OH257446   0.675   1.344   2.882
11156TIP3    H157447   0.675   1.294   2.798
11156TIP3    H257448   0.754   1.309   2.926
11157TIP3   OH257449   0.580   0.877   2.982
11157TIP3    H157450   0.629   0.891   2.898
11157TIP3    H257451   0.612   0.951   3.038
11158TIP3   OH257452   1.216   1.440   3.051
11158TIP3    H157453   1.190   1.506   3.118
11158TIP3    H257454   1.190   1.356   3.095
11159TIP3   OH257455   0.651   1.314   3.460
11159TIP3    H157456   0.634   1.404   3.487
11159TIP3    H257457   0.606   1.304   3.374
11160TIP3   OH257458   1.271   0.862   2.187
11160TIP3    H157459   1.326   0.880   2.267
11160TIP3    H257460   1.317   0.911   2.115
11161TIP3   OH257461   0.362   0.954   3.360
11161TIP3    H157462   0.370   0.994   3.449
11161TIP3    H257463   0.269   0.946   3.346
11162TIP3   OH257464   1.042   1.534   2.534
11162TIP3    H157465   1.084   1.564   2.615
11162TIP3    H257466   0.986   1.609   2.510
11163TIP3   OH257467   1.645   0.042   2.188
11163TIP3    H157468   1.548   0.048   2.197
11163TIP3    H257469   1.666   0.118   2.129
11164TIP3   OH257470   0.419   0.891   2.394
11164TIP3    H157471   0.423   0.975   2.341
11164TIP3    H257472   0.361   0.835   2.344
11165TIP3   OH257473   1.754   1.470   2.012
11165TIP3    H157474   1.771   1.564   2.030
11165TIP3    H257475   1.846   1.437   2.013
11166TIP3   OH257476   0.049   1.445   2.932
11166TIP3    H157477   0.142   1.420   2.944
11166TIP3    H257478   0.033   1.510   3.001
11167TIP3   OH257479   0.990   1.824   2.375
11167TIP3    H157480   0.976   1.817   2.279
11167TIP3    H257481   0.990   1.920   2.391
11168TIP3   OH257482   0.358   1.709   2.559
11168TIP3    H157483   0.367   1.670   2.649
11168TIP3    H257484   0.273   1.671   2.532
11169TIP3   OH257485   1.297   1.747   2.074
11169TIP3    H157486   1.340   1.670   2.031
11169TIP3    H257487   1.297   1.720   2.168
11170TIP3   OH257488   1.267   1.742   2.352
11170TIP3    H157489   1.170   1.748   2.367
11170TIP3    H257490   1.288   1.666   2.408
11171TIP3   OH257491   0.545   0.136   2.945
11171TIP3    H157492   0.456   0.134   2.905
11171TIP3    H257493   0.534   0.213   3.003
11172TIP3   OH257494   1.008   0.114   3.255
11172TIP3    H157495   1.062   0.068   3.320
11172TIP3    H257496   0.914   0.098   3.282
11173TIP3   OH257497   1.325   0.475   3.369
11173TIP3    H157498   1.293   0.466   3.460
11173TIP3    H257499   1.320   0.569   3.355
11174TIP3   OH257500   1.416   0.965   1.972
11174TIP3    H157501   1.412   0.947   1.875
11174TIP3    H257502   1.501   1.010   1.975
11175TIP3   OH257503   0.974   0.359   2.021
11175TIP3    H157504   0.943   0.348   2.113
11175TIP3    H257505   0.942   0.272   1.989
11176TIP3   OH257506   0.554   0.627   3.076
11176TIP3    H157507   0.486   0.630   3.145
11176TIP3    H257508   0.551   0.720   3.041
11177TIP3   OH257509   0.553   0.634   2.567
11177TIP3    H157510   0.457   0.620   2.553
11177TIP3    H257511   0.588   0.613   2.479
11178TIP3   OH257512   1.106   0.692   2.442
11178TIP3    H157513   1.066   0.774   2.405
11178TIP3    H257514   1.174   0.673   2.376
11179TIP3   OH257515   1.208   0.641   2.724
11179TIP3    H157516   1.179   0.696   2.650
11179TIP3    H257517   1.217   0.555   2.679
11180TIP3   OH257518   0.310   0.660   3.244
11180TIP3    H157519   0.326   0.696   3.334
11180TIP3    H257520   0.267   0.577   3.259
11181TIP3   OH257521   0.653   0.391   1.930
11181TIP3    H157522   0.610   0.353   2.009
11181TIP3    H257523   0.582   0.438   1.884
11182TIP3   OH257524   0.011   0.392   2.652
11182TIP3    H157525   0.063   0.365   2.730
11182TIP3    H257526   0.033   0.329   2.586
11183TIP3   OH257527   0.112   0.447   2.186
11183TIP3    H157528   0.161   0.500   2.120
11183TIP3    H257529   0.040   0.507   2.211
11184TIP3   OH257530   0.809   0.400   2.667
11184TIP3    H157531   0.715   0.394   2.694
11184TIP3    H257532   0.857   0.378   2.749
11185TIP3   OH257533   0.295   0.550   2.549
11185TIP3    H157534   0.204   0.568   2.518
11185TIP3    H257535   0.315   0.464   2.510
11186TIP3   OH257536   0.653   0.556   2.316
11186TIP3    H157537   0.748   0.566   2.331
11186TIP3    H257538   0.628   0.625   2.251
11187TIP3   OH257539   1.251   0.324   2.987
11187TIP3    H157540   1.184   0.324   3.058
11187TIP3    H257541   1.203   0.288   2.912
11188TIP3   OH257542   0.525   0.669   2.071
11188TIP3    H157543   0.471   0.635   1.998
11188TIP3    H257544   0.607   0.694   2.025
11189TIP3   OH257545   0.933   0.670   2.854
11189TIP3    H157546   0.997   0.619   2.802
11189TIP3    H257547   0.923   0.617   2.934
11190TIP3   OH257548   0.438   0.286   2.496
11190TIP3    H157549   0.405   0.195   2.499
11190TIP3    H257550   0.517   0.276   2.443
11191TIP3   OH257551   0.798   0.503   3.091
11191TIP3    H157552   0.717   0.557   3.100
11191TIP3    H257553   0.851   0.534   3.166
11192TIP3   OH257554   0.865   1.120   2.267
11192TIP3    H157555   0.779   1.086   2.233
11192TIP3    H257556   0.833   1.142   2.357
11193TIP3   OH257557   1.580   1.041   3.144
11193TIP3    H157558   1.636   1.099   3.089
11193TIP3    H257559   1.494   1.051   3.099
11194TIP3   OH257560   1.239   0.406   2.085
11194TIP3    H157561   1.145   0.425   2.068
11194TIP3    H257562   1.276   0.491   2.118
11195TIP3   OH257563   1.315   0.599   2.245
11195TIP3    H157564   1.402   0.587   2.288
11195TIP3    H257565   1.326   0.681   2.194
11196TIP3   OH257566   0.379   1.071   2.854
11196TIP3    H157567   0.434   1.060   2.774
11196TIP3    H257568   0.375   0.979   2.886
11197TIP3   OH257569   1.068   1.273   2.169
11197TIP3    H157570   1.031   1.357   2.205
11197TIP3    H257571   0.995   1.210   2.191
11198TIP3   OH257572   1.804   0.616   2.224
11198TIP3    H157573   1.749   0.585   2.149
11198TIP3    H257574   1.811   0.710   2.199
11199TIP3   OH257575   1.632   1.497   2.262
11199TIP3    H157576   1.598   1.413   2.298
11199TIP3    H257577   1.667   1.474   2.175
11200TIP3   OH257578   1.353   0.980   2.977
11200TIP3    H157579   1.260   0.958   2.959
11200TIP3    H257580   1.398   0.905   2.933
11201TIP3   OH257581   0.606   1.414   2.591
11201TIP3    H157582   0.657   1.491   2.561
11201TIP3    H257583   0.521   1.429   2.548
11202TIP3   OH257584   0.182   0.893   2.043
11202TIP3    H157585   0.244   0.959   2.081
11202TIP3    H257586   0.098   0.929   2.073
11203TIP3   OH257587   0.758   1.181   2.561
11203TIP3    H157588   0.715   1.266   2.539
11203TIP3    H257589   0.676   1.127   2.573
11204TIP3   OH257590   0.794   1.597   3.176
11204TIP3    H157591   0.839   1.678   3.151
11204TIP3    H257592   0.856   1.562   3.242
11205TIP3   OH257593   0.618   1.676   2.492
11205TIP3    H157594   0.521   1.689   2.501
11205TIP3    H257595   0.652   1.763   2.520
11206TIP3   OH257596   1.145   1.193   3.136
11206TIP3    H157597   1.116   1.184   3.228
11206TIP3    H257598   1.211   1.124   3.122
11207TIP3   OH257599   1.381   1.305   2.048
11207TIP3    H157600   1.410   1.257   2.128
11207TIP3    H257601   1.286   1.286   2.055
11208TIP3   OH257602   1.430   1.651   3.382
11208TIP3    H157603   1.350   1.612   3.343
11208TIP3    H257604   1.446   1.727   3.324
11209TIP3   OH257605   1.823   1.739   2.071
11209TIP3    H157606   1.894   1.803   2.052
11209TIP3    H257607   1.754   1.800   2.103
11210TIP3   OH257608   1.458   1.168   2.272
11210TIP3    H157609   1.433   1.089   2.325
11210TIP3    H257610   1.553   1.171   2.289
11211TIP3   OH257611   0.195   1.560   3.169
11211TIP3    H157612   0.231   1.472   3.167
11211TIP3    H257613   0.221   1.593   3.256
11212TIP3   OH257614   0.794   1.413   1.896
11212TIP3    H157615   0.802   1.334   1.840
11212TIP3    H257616   0.747   1.371   1.973
11213TIP3   OH257617   0.677   1.367   2.139
11213TIP3    H157618   0.686   1.308   2.217
11213TIP3    H257619   0.677   1.457   2.178
11214TIP3   OH257620   0.306   1.093   2.173
11214TIP3    H157621   0.254   1.125   2.249
11214TIP3    H257622   0.378   1.158   2.170
11215TIP3   OH257623   1.101   0.358   3.216
11215TIP3    H157624   1.171   0.369   3.283
11215TIP3    H257625   1.071   0.267   3.233
11216TIP3   OH257626   1.190   0.308   2.335
11216TIP3    H157627   1.203   0.358   2.252
11216TIP3    H257628   1.237   0.365   2.398
11217TIP3   OH257629   0.952   1.532   2.213
11217TIP3    H157630   0.867   1.582   2.218
11217TIP3    H257631   1.004   1.588   2.153
11218TIP3   OH257632   0.905   0.488   2.415
11218TIP3    H157633   0.982   0.549   2.419
11218TIP3    H257634   0.877   0.478   2.508
11219TIP3   OH257635   0.992   0.196   2.508
11219TIP3    H157636   0.956   0.264   2.568
11219TIP3    H257637   1.058   0.251   2.459
11220TIP3   OH257638   0.697   1.634   2.216
11220TIP3    H157639   0.696   1.714   2.157
11220TIP3    H257640   0.662   1.670   2.299
11221TIP3   OH257641   0.554   0.306   2.169
11221TIP3    H157642   0.549   0.394   2.211
11221TIP3    H257643   0.645   0.282   2.197
11222TIP3   OH257644   1.440   0.757   2.815
11222TIP3    H157645   1.356   0.713   2.790
11222TIP3    H257646   1.486   0.689   2.871
11223TIP3   OH257647   0.376   1.352   2.073
11223TIP3    H157648   0.444   1.410   2.111
11223TIP3    H257649   0.432   1.300   2.012
11224TIP3   OH257650   0.212   0.617   1.989
11224TIP3    H157651   0.212   0.712   2.013
11224TIP3    H257652   0.122   0.601   1.959
11225TIP3   OH257653   1.542   1.684   2.984
11225TIP3    H157654   1.535   1.752   2.916
11225TIP3    H257655   1.638   1.687   3.003
11226TIP3   OH257656   0.280   0.118   2.852
11226TIP3    H157657   0.265   0.104   2.756
11226TIP3    H257658   0.261   0.029   2.889
11227TIP3   OH257659   0.192   1.488   2.481
11227TIP3    H157660   0.107   1.533   2.475
11227TIP3    H257661   0.240   1.533   2.410
11228TIP3   OH257662   0.993   1.596   1.910
11228TIP3    H157663   0.923   1.530   1.931
11228TIP3    H257664   1.064   1.536   1.885
11229TIP3   OH257665   1.448   1.569   1.928
11229TIP3    H157666   1.477   1.492   1.980
11229TIP3    H257667   1.524   1.589   1.873
11230TIP3   OH257668   0.536   1.160   1.905
11230TIP3    H157669   0.551   1.091   1.972
11230TIP3    H257670   0.616   1.150   1.850
11231TIP3   OH257671   1.080   1.276   1.888
11231TIP3    H157672   1.052   1.284   1.981
11231TIP3    H257673   1.061   1.180   1.873
11232TIP3   OH257674   0.675   0.952   2.135
11232TIP3    H157675   0.617   0.919   2.206
11232TIP3    H257676   0.691   0.874   2.078
11233TIP3   OH257677   0.566   0.748   3.371
11233TIP3    H157678   0.532   0.824   3.418
11233TIP3    H257679   0.630   0.786   3.308
11234TIP3   OH257680   0.765   0.774   1.967
11234TIP3    H157681   0.751   0.780   1.871
11234TIP3    H257682   0.861   0.793   1.978
11235TIP3   OH257683   1.694   1.021   1.914
11235TIP3    H157684   1.680   0.984   1.825
11235TIP3    H257685   1.708   1.116   1.895
11236TIP3   OH257686   0.663   0.319   3.243
11236TIP3    H157687   0.715   0.371   3.177
11236TIP3    H257688   0.575   0.314   3.202
11237TIP3   OH257689   0.814   0.866   3.259
11237TIP3    H157690   0.896   0.857   3.211
11237TIP3    H257691   0.781   0.955   3.237
11238TIP3   OH257692   0.749   0.079   3.296
11238TIP3    H157693   0.723   0.173   3.278
11238TIP3    H257694   0.670   0.032   3.262
11239TIP3   OH257695   0.756   1.856   2.084
11239TIP3    H157696   0.852   1.870   2.087
11239TIP3    H257697   0.729   1.914   2.011
11240TIP3   OH257698   0.103   1.316   2.028
11240TIP3    H157699   0.200   1.327   2.047
11240TIP3    H257700   0.112   1.248   1.958
11241TIP3   OH257701  -0.005   1.865   2.514
11241TIP3    H157702  -0.084   1.817   2.484
11241TIP3    H257703   0.015   1.804   2.587
11242TIP3   OH257704   0.082   1.670   2.703
11242TIP3    H157705   0.036   1.586   2.720
11242TIP3    H257706   0.096   1.706   2.794
11243TIP3   OH257707   1.820   1.746   3.004
11243TIP3    H157708   1.817   1.762   3.099
11243TIP3    H257709   1.887   1.807   2.973
11244TIP3   OH257710   1.751   1.113   2.309
11244TIP3    H157711   1.837   1.151   2.328
11244TIP3    H257712   1.748   1.041   2.376
11245TIP3   OH257713   1.786   0.921   2.499
11245TIP3    H157714   1.710   0.871   2.538
11245TIP3    H257715   1.846   0.933   2.575
11246TIP3   OH257716   1.760   1.188   2.996
11246TIP3    H157717   1.843   1.151   2.962
11246TIP3    H257718   1.774   1.283   2.982
11247TIP3   OH257719   1.620   1.484   3.218
11247TIP3    H157720   1.558   1.509   3.290
11247TIP3    H257721   1.563   1.435   3.157
11248TIP3   OH257722   1.816   0.902   2.137
11248TIP3    H157723   1.759   0.935   2.065
11248TIP3    H257724   1.805   0.974   2.203
11249TIP3   OH257725   1.655   0.626   1.988
11249TIP3    H157726   1.662   0.691   1.918
11249TIP3    H257727   1.634   0.543   1.939
11250TIP3   OH257728   1.569   0.767   2.557
11250TIP3    H157729   1.554   0.672   2.551
11250TIP3    H257730   1.537   0.787   2.647
11251TIP3   OH257731   0.073   0.983   2.964
11251TIP3    H157732   0.086   0.965   2.867
11251TIP3    H257733   0.160   0.954   2.997
11252TIP3   OH257734   1.577   0.376   1.907
11252TIP3    H157735   1.639   0.329   1.966
11252TIP3    H257736   1.493   0.328   1.917
11253TIP3   OH257737   1.532   0.529   2.397
11253TIP3    H157738   1.563   0.436   2.412
11253TIP3    H257739   1.615   0.568   2.366
11254TIP3   OH257740   1.596   0.581   2.945
11254TIP3    H157741   1.693   0.601   2.944
11254TIP3    H257742   1.579   0.587   3.041
11255TIP3   OH257743   1.601   0.655   3.220
11255TIP3    H157744   1.517   0.681   3.259
11255TIP3    H257745   1.649   0.739   3.202
11256TIP3   OH257746   1.597   0.258   2.405
11256TIP3    H157747   1.622   0.213   2.489
11256TIP3    H257748   1.541   0.191   2.361
11257TIP3   OH257749   0.147   0.342   2.869
11257TIP3    H157750   0.197   0.260   2.885
11257TIP3    H257751   0.206   0.410   2.904
11258TIP3   OH257752   0.018   0.632   2.998
11258TIP3    H157753   0.025   0.614   2.901
11258TIP3    H257754   0.021   0.728   2.991
11259TIP3   OH257755   1.787   0.256   2.068
11259TIP3    H157756   1.822   0.186   2.008
11259TIP3    H257757   1.855   0.324   2.066
11260TIP3   OH257758   0.032   0.241   2.329
11260TIP3    H157759  -0.061   0.268   2.343
11260TIP3    H257760   0.071   0.320   2.286
11261TIP3   OH257761   1.488   1.755   2.569
11261TIP3    H157762   1.557   1.726   2.506
11261TIP3    H257763   1.540   1.806   2.633
11262TIP3   OH257764   0.020   0.122   3.205
11262TIP3    H157765  -0.052   0.100   3.265
11262TIP3    H257766  -0.027   0.192   3.155
11263TIP3   OH257767   0.517   1.545   3.237
11263TIP3    H157768   0.488   1.636   3.218
11263TIP3    H257769   0.614   1.556   3.220
11264TIP3   OH257770   0.507   1.822   3.145
11264TIP3    H157771   0.434   1.853   3.203
11264TIP3    H257772   0.507   1.891   3.076
11265TIP3   OH257773   0.983   1.817   3.072
11265TIP3    H157774   0.939   1.874   3.005
11265TIP3    H257775   0.993   1.881   3.144
11266TIP3   OH257776   1.219   1.700   3.152
11266TIP3    H157777   1.127   1.728   3.141
11266TIP3    H257778   1.262   1.786   3.161
11267TIP3   OH257779   1.474   1.861   3.195
11267TIP3    H157780   1.468   1.956   3.173
11267TIP3    H257781   1.493   1.820   3.109
11268TIP3   OH257782   0.213   1.737   2.935
11268TIP3    H157783   0.203   1.694   3.022
11268TIP3    H257784   0.297   1.698   2.901
11269TIP3   OH257785   0.417   1.608   2.810
11269TIP3    H157786   0.406   1.513   2.824
11269TIP3    H257787   0.506   1.622   2.851
11270TIP3   OH257788   0.677   1.653   2.895
11270TIP3    H157789   0.695   1.562   2.867
11270TIP3    H257790   0.686   1.648   2.991
11271TIP3   OH257791   1.022   0.226   2.801
11271TIP3    H157792   0.961   0.159   2.834
11271TIP3    H257793   1.084   0.171   2.752
11272TIP3   OH257794   1.544   0.053   2.828
11272TIP3    H157795   1.603   0.091   2.759
11272TIP3    H257796   1.454   0.059   2.789
11273TIP3   OH257797   1.709   0.156   2.637
11273TIP3    H157798   1.773   0.093   2.599
11273TIP3    H257799   1.760   0.239   2.651
11274TIP3   OH257800   0.266   0.083   2.587
11274TIP3    H157801   0.185   0.065   2.537
11274TIP3    H257802   0.308  -0.004   2.585
11275TIP3   OH257803   0.170   0.099   2.168
11275TIP3    H157804   0.191   0.157   2.094
11275TIP3    H257805   0.092   0.140   2.212
11276TIP3   OH257806   0.705   0.087   2.570
11276TIP3    H157807   0.798   0.114   2.561
11276TIP3    H257808   0.712   0.054   2.660
11277TIP3   OH257809   1.282   0.080   2.733
11277TIP3    H157810   1.276   0.085   2.637
11277TIP3    H257811   1.246  -0.010   2.748
11278TIP3   OH257812   1.391   0.092   2.267
11278TIP3    H157813   1.319   0.154   2.284
11278TIP3    H257814   1.368   0.014   2.318
11279TIP3   OH257815   0.123   1.659   2.273
11279TIP3    H157816   0.076   1.657   2.190
11279TIP3    H257817   0.134   1.755   2.280
11280TIP3   OH257818   0.325   0.257   2.011
11280TIP3    H157819   0.376   0.192   1.959
11280TIP3    H257820   0.392   0.279   2.079
11281TIP3   OH257821   0.821   0.280   2.256
11281TIP3    H157822   0.850   0.220   2.326
11281TIP3    H257823   0.832   0.366   2.301
11282TIP3   OH257824   1.022   1.783   2.101
11282TIP3    H157825   1.113   1.804   2.076
11282TIP3    H257826   0.995   1.733   2.022
11283TIP3   OH257827   1.685   1.735   2.372
11283TIP3    H157828   1.669   1.655   2.317
11283TIP3    H257829   1.682   1.807   2.307
11284TIP3   OH257830   0.275   1.691   1.965
11284TIP3    H157831   0.278   1.764   2.030
11284TIP3    H257832   0.373   1.688   1.964
11285TIP3   OH257833   3.059   0.997   2.575
11285TIP3    H157834   3.056   1.095   2.576
11285TIP3    H257835   2.985   0.974   2.517
11286TIP3   OH257836   2.945   0.920   2.928
11286TIP3    H157837   2.940   0.856   3.000
11286TIP3    H257838   2.908   0.871   2.853
11287TIP3   OH257839   2.175   0.892   3.089
11287TIP3    H157840   2.188   0.819   3.153
11287TIP3    H257841   2.254   0.945   3.102
11288TIP3   OH257842   3.309   1.218   2.754
11288TIP3    H157843   3.270   1.147   2.805
11288TIP3    H257844   3.314   1.288   2.823
11289TIP3   OH257845   2.270   1.335   2.930
11289TIP3    H157846   2.241   1.246   2.902
11289TIP3    H257847   2.366   1.318   2.940
11290TIP3   OH257848   1.934   0.689   2.482
11290TIP3    H157849   1.891   0.776   2.475
11290TIP3    H257850   1.878   0.635   2.425
11291TIP3   OH257851   2.007   0.915   2.697
11291TIP3    H157852   2.033   0.831   2.741
11291TIP3    H257853   2.075   0.924   2.629
11292TIP3   OH257854   3.023   1.733   2.785
11292TIP3    H157855   3.088   1.665   2.752
11292TIP3    H257856   3.005   1.695   2.872
11293TIP3   OH257857   2.782   1.164   2.980
11293TIP3    H157858   2.813   1.101   2.913
11293TIP3    H257859   2.865   1.179   3.028
11294TIP3   OH257860   3.644   0.323   3.046
11294TIP3    H157861   3.655   0.386   3.121
11294TIP3    H257862   3.697   0.369   2.980
11295TIP3   OH257863   3.094   0.606   3.009
11295TIP3    H157864   3.114   0.510   3.008
11295TIP3    H257865   3.086   0.622   2.913
11296TIP3   OH257866   2.409   0.419   2.727
11296TIP3    H157867   2.421   0.502   2.677
11296TIP3    H257868   2.369   0.361   2.659
11297TIP3   OH257869   3.180   0.439   2.574
11297TIP3    H157870   3.245   0.392   2.631
11297TIP3    H257871   3.239   0.480   2.510
11298TIP3   OH257872   2.069   0.660   2.799
11298TIP3    H157873   2.136   0.606   2.847
11298TIP3    H257874   2.082   0.627   2.709
11299TIP3   OH257875   2.587   0.814   2.733
11299TIP3    H157876   2.653   0.756   2.773
11299TIP3    H257877   2.536   0.749   2.681
11300TIP3   OH257878   3.675   0.473   3.264
11300TIP3    H157879   3.608   0.545   3.260
11300TIP3    H257880   3.677   0.447   3.359
11301TIP3   OH257881   2.301   0.309   3.126
11301TIP3    H157882   2.270   0.370   3.056
11301TIP3    H257883   2.236   0.330   3.198
11302TIP3   OH257884   3.027   1.255   2.485
11302TIP3    H157885   3.002   1.228   2.396
11302TIP3    H257886   2.997   1.349   2.491
11303TIP3   OH257887   2.552   1.071   3.152
11303TIP3    H157888   2.479   1.134   3.174
11303TIP3    H257889   2.621   1.135   3.127
11304TIP3   OH257890   3.363   0.365   2.766
11304TIP3    H157891   3.340   0.286   2.817
11304TIP3    H257892   3.433   0.403   2.820
11305TIP3   OH257893   2.254   0.501   2.930
11305TIP3    H157894   2.320   0.563   2.967
11305TIP3    H257895   2.307   0.455   2.861
11306TIP3   OH257896   2.390   1.265   3.227
11306TIP3    H157897   2.396   1.362   3.213
11306TIP3    H257898   2.310   1.267   3.285
11307TIP3   OH257899   2.003   1.232   2.315
11307TIP3    H157900   1.980   1.267   2.227
11307TIP3    H257901   2.012   1.314   2.368
11308TIP3   OH257902   3.358   1.399   2.971
11308TIP3    H157903   3.271   1.411   3.013
11308TIP3    H257904   3.391   1.490   2.981
11309TIP3   OH257905   3.398   0.234   3.140
11309TIP3    H157906   3.324   0.293   3.121
11309TIP3    H257907   3.468   0.269   3.081
11310TIP3   OH257908   2.684   0.049   2.848
11310TIP3    H157909   2.690  -0.042   2.882
11310TIP3    H257910   2.611   0.078   2.904
11311TIP3   OH257911   3.188   1.581   2.648
11311TIP3    H157912   3.233   1.507   2.601
11311TIP3    H257913   3.236   1.658   2.612
11312TIP3   OH257914   3.313   1.371   2.503
11312TIP3    H157915   3.281   1.302   2.443
11312TIP3    H257916   3.315   1.323   2.588
11313TIP3   OH257917   2.922   0.922   2.328
11313TIP3    H157918   2.854   0.980   2.290
11313TIP3    H257919   2.995   0.928   2.263
11314TIP3   OH257920   2.932   0.778   2.029
11314TIP3    H157921   3.002   0.776   2.096
11314TIP3    H257922   2.962   0.705   1.974
11315TIP3   OH257923   3.666   0.861   3.160
11315TIP3    H157924   3.600   0.933   3.162
11315TIP3    H257925   3.711   0.885   3.077
11316TIP3   OH257926   3.270   0.940   2.420
11316TIP3    H157927   3.195   0.965   2.480
11316TIP3    H257928   3.317   0.874   2.474
11317TIP3   OH257929   3.255   0.756   3.331
11317TIP3    H157930   3.263   0.835   3.386
11317TIP3    H257931   3.197   0.789   3.261
11318TIP3   OH257932   2.429   1.007   2.613
11318TIP3    H157933   2.397   0.968   2.528
11318TIP3    H257934   2.491   0.938   2.646
11319TIP3   OH257935   2.561   1.346   2.884
11319TIP3    H157936   2.561   1.295   2.802
11319TIP3    H257937   2.640   1.309   2.929
11320TIP3   OH257938   2.460   0.881   2.976
11320TIP3    H157939   2.516   0.891   2.897
11320TIP3    H257940   2.500   0.947   3.038
11321TIP3   OH257941   3.095   1.441   3.048
11321TIP3    H157942   3.086   1.502   3.123
11321TIP3    H257943   3.083   1.355   3.094
11322TIP3   OH257944   3.156   0.863   2.187
11322TIP3    H157945   3.211   0.879   2.267
11322TIP3    H257946   3.202   0.912   2.115
11323TIP3   OH257947   2.246   0.937   3.376
11323TIP3    H157948   2.253   1.013   3.435
11323TIP3    H257949   2.158   0.949   3.337
11324TIP3   OH257950   2.927   1.535   2.531
11324TIP3    H157951   2.969   1.563   2.614
11324TIP3    H257952   2.870   1.609   2.511
11325TIP3   OH257953   3.534   0.040   2.184
11325TIP3    H157954   3.436   0.042   2.195
11325TIP3    H257955   3.551   0.120   2.130
11326TIP3   OH257956   2.324   0.908   2.377
11326TIP3    H157957   2.297   0.986   2.324
11326TIP3    H257958   2.260   0.841   2.350
11327TIP3   OH257959   3.639   1.471   2.011
11327TIP3    H157960   3.656   1.564   2.031
11327TIP3    H257961   3.730   1.437   2.013
11328TIP3   OH257962   1.950   1.144   3.249
11328TIP3    H157963   1.886   1.145   3.175
11328TIP3    H257964   1.929   1.058   3.287
11329TIP3   OH257965   1.911   1.429   2.940
11329TIP3    H157966   2.006   1.412   2.942
11329TIP3    H257967   1.901   1.506   2.997
11330TIP3   OH257968   2.876   1.824   2.375
11330TIP3    H157969   2.864   1.817   2.279
11330TIP3    H257970   2.875   1.920   2.392
11331TIP3   OH257971   2.239   1.712   2.560
11331TIP3    H157972   2.254   1.670   2.647
11331TIP3    H257973   2.154   1.671   2.535
11332TIP3   OH257974   3.181   1.747   2.071
11332TIP3    H157975   3.226   1.669   2.032
11332TIP3    H257976   3.184   1.723   2.167
11333TIP3   OH257977   3.150   1.740   2.351
11333TIP3    H157978   3.054   1.747   2.368
11333TIP3    H257979   3.173   1.665   2.409
11334TIP3   OH257980   2.163   1.281   3.364
11334TIP3    H157981   2.177   1.250   3.454
11334TIP3    H257982   2.075   1.245   3.338
11335TIP3   OH257983   2.433   0.135   2.946
11335TIP3    H157984   2.345   0.134   2.906
11335TIP3    H257985   2.419   0.210   3.007
11336TIP3   OH257986   2.890   0.110   3.293
11336TIP3    H157987   2.937   0.067   3.366
11336TIP3    H257988   2.797   0.090   3.309
11337TIP3   OH257989   3.210   0.477   3.370
11337TIP3    H157990   3.183   0.458   3.463
11337TIP3    H257991   3.213   0.574   3.361
11338TIP3   OH257992   3.301   0.965   1.972
11338TIP3    H157993   3.297   0.945   1.875
11338TIP3    H257994   3.386   1.010   1.974
11339TIP3   OH257995   2.858   0.359   2.019
11339TIP3    H157996   2.832   0.349   2.113
11339TIP3    H257997   2.827   0.272   1.989
11340TIP3   OH257998   2.441   0.629   3.080
11340TIP3    H157999   2.366   0.627   3.143
11340TIP3    H258000   2.437   0.720   3.044
11341TIP3   OH258001   2.438   0.639   2.565
11341TIP3    H158002   2.344   0.615   2.552
11341TIP3    H258003   2.475   0.611   2.479
11342TIP3   OH258004   2.992   0.696   2.444
11342TIP3    H158005   2.951   0.776   2.403
11342TIP3    H258006   3.058   0.671   2.377
11343TIP3   OH258007   3.093   0.642   2.729
11343TIP3    H158008   3.064   0.696   2.653
11343TIP3    H258009   3.104   0.556   2.682
11344TIP3   OH258010   2.200   0.660   3.250
11344TIP3    H158011   2.207   0.695   3.341
11344TIP3    H258012   2.163   0.571   3.268
11345TIP3   OH258013   2.540   0.396   1.933
11345TIP3    H158014   2.495   0.352   2.008
11345TIP3    H258015   2.468   0.438   1.884
11346TIP3   OH258016   1.872   0.371   2.646
11346TIP3    H158017   1.939   0.365   2.717
11346TIP3    H258018   1.915   0.330   2.569
11347TIP3   OH258019   1.996   0.440   2.183
11347TIP3    H158020   2.049   0.497   2.123
11347TIP3    H258021   1.928   0.504   2.212
11348TIP3   OH258022   3.012   0.797   3.186
11348TIP3    H158023   3.049   0.731   3.124
11348TIP3    H258024   2.964   0.741   3.248
11349TIP3   OH258025   2.693   0.403   2.667
11349TIP3    H158026   2.600   0.393   2.694
11349TIP3    H258027   2.743   0.377   2.746
11350TIP3   OH258028   2.174   0.551   2.553
11350TIP3    H158029   2.086   0.565   2.512
11350TIP3    H258030   2.203   0.467   2.512
11351TIP3   OH258031   2.537   0.556   2.316
11351TIP3    H158032   2.634   0.565   2.331
11351TIP3    H258033   2.516   0.624   2.249
11352TIP3   OH258034   3.134   0.331   2.989
11352TIP3    H158035   3.067   0.323   3.060
11352TIP3    H258036   3.089   0.288   2.913
11353TIP3   OH258037   2.410   0.672   2.074
11353TIP3    H158038   2.356   0.635   2.002
11353TIP3    H258039   2.491   0.696   2.025
11354TIP3   OH258040   2.822   0.671   2.854
11354TIP3    H158041   2.882   0.618   2.800
11354TIP3    H258042   2.807   0.614   2.931
11355TIP3   OH258043   2.321   0.286   2.496
11355TIP3    H158044   2.291   0.194   2.499
11355TIP3    H258045   2.401   0.277   2.443
11356TIP3   OH258046   2.686   0.504   3.094
11356TIP3    H158047   2.602   0.556   3.103
11356TIP3    H258048   2.740   0.538   3.167
11357TIP3   OH258049   2.744   1.126   2.266
11357TIP3    H158050   2.664   1.079   2.233
11357TIP3    H258051   2.721   1.140   2.360
11358TIP3   OH258052   3.464   1.032   3.140
11358TIP3    H158053   3.519   1.098   3.093
11358TIP3    H258054   3.377   1.056   3.103
11359TIP3   OH258055   3.128   0.411   2.078
11359TIP3    H158056   3.031   0.424   2.071
11359TIP3    H258057   3.161   0.492   2.121
11360TIP3   OH258058   2.902   1.154   3.385
11360TIP3    H158059   2.865   1.111   3.464
11360TIP3    H258060   2.875   1.245   3.400
11361TIP3   OH258061   3.201   0.602   2.242
11361TIP3    H158062   3.286   0.587   2.288
11361TIP3    H258063   3.213   0.685   2.194
11362TIP3   OH258064   2.255   1.068   2.844
11362TIP3    H158065   2.322   1.058   2.774
11362TIP3    H258066   2.261   0.982   2.890
11363TIP3   OH258067   2.955   1.273   2.171
11363TIP3    H158068   2.919   1.358   2.205
11363TIP3    H258069   2.881   1.212   2.191
11364TIP3   OH258070   3.692   0.615   2.222
11364TIP3    H158071   3.633   0.586   2.150
11364TIP3    H258072   3.696   0.710   2.199
11365TIP3   OH258073   3.515   1.496   2.262
11365TIP3    H158074   3.483   1.413   2.298
11365TIP3    H258075   3.552   1.473   2.175
11366TIP3   OH258076   3.239   0.975   2.971
11366TIP3    H158077   3.145   0.956   2.962
11366TIP3    H258078   3.283   0.899   2.930
11367TIP3   OH258079   2.493   1.412   2.585
11367TIP3    H158080   2.542   1.493   2.564
11367TIP3    H258081   2.405   1.434   2.551
11368TIP3   OH258082   2.070   0.895   2.042
11368TIP3    H158083   2.127   0.962   2.082
11368TIP3    H258084   1.980   0.926   2.066
11369TIP3   OH258085   2.633   1.179   2.535
11369TIP3    H158086   2.601   1.271   2.546
11369TIP3    H258087   2.563   1.128   2.580
11370TIP3   OH258088   2.680   1.599   3.175
11370TIP3    H158089   2.728   1.678   3.149
11370TIP3    H258090   2.738   1.562   3.243
11371TIP3   OH258091   2.503   1.676   2.489
11371TIP3    H158092   2.406   1.691   2.502
11371TIP3    H258093   2.539   1.760   2.522
11372TIP3   OH258094   3.024   1.193   3.138
11372TIP3    H158095   3.000   1.179   3.231
11372TIP3    H258096   3.097   1.130   3.125
11373TIP3   OH258097   3.266   1.305   2.048
11373TIP3    H158098   3.295   1.257   2.128
11373TIP3    H258099   3.171   1.286   2.055
11374TIP3   OH258100   3.716   1.739   2.077
11374TIP3    H158101   3.778   1.809   2.050
11374TIP3    H258102   3.641   1.797   2.101
11375TIP3   OH258103   2.120   0.381   3.316
11375TIP3    H158104   2.029   0.412   3.322
11375TIP3    H258105   2.117   0.302   3.374
11376TIP3   OH258106   3.343   1.167   2.273
11376TIP3    H158107   3.319   1.088   2.325
11376TIP3    H258108   3.438   1.170   2.290
11377TIP3   OH258109   2.083   1.560   3.167
11377TIP3    H158110   2.113   1.467   3.169
11377TIP3    H258111   2.107   1.585   3.258
11378TIP3   OH258112   2.680   1.412   1.899
11378TIP3    H158113   2.687   1.336   1.839
11378TIP3    H258114   2.633   1.368   1.974
11379TIP3   OH258115   2.557   1.364   2.146
11379TIP3    H158116   2.584   1.312   2.222
11379TIP3    H258117   2.565   1.457   2.177
11380TIP3   OH258118   2.210   1.088   2.192
11380TIP3    H158119   2.138   1.129   2.243
11380TIP3    H258120   2.260   1.166   2.161
11381TIP3   OH258121   2.986   0.358   3.228
11381TIP3    H158122   3.066   0.355   3.283
11381TIP3    H258123   2.956   0.265   3.237
11382TIP3   OH258124   3.049   0.347   2.321
11382TIP3    H158125   3.096   0.369   2.240
11382TIP3    H258126   3.117   0.349   2.390
11383TIP3   OH258127   2.835   1.529   2.212
11383TIP3    H158128   2.754   1.583   2.220
11383TIP3    H258129   2.890   1.585   2.155
11384TIP3   OH258130   2.784   0.498   2.414
11384TIP3    H158131   2.869   0.544   2.419
11384TIP3    H258132   2.764   0.472   2.506
11385TIP3   OH258133   2.846   0.596   3.329
11385TIP3    H158134   2.863   0.645   3.409
11385TIP3    H258135   2.906   0.518   3.335
11386TIP3   OH258136   2.851   0.207   2.498
11386TIP3    H158137   2.842   0.269   2.572
11386TIP3    H258138   2.940   0.235   2.464
11387TIP3   OH258139   2.577   1.633   2.216
11387TIP3    H158140   2.585   1.714   2.161
11387TIP3    H258141   2.548   1.670   2.303
11388TIP3   OH258142   2.438   0.305   2.170
11388TIP3    H158143   2.434   0.393   2.211
11388TIP3    H258144   2.529   0.281   2.197
11389TIP3   OH258145   3.468   0.395   3.418
11389TIP3    H158146   3.371   0.404   3.410
11389TIP3    H258147   3.491   0.374   3.326
11390TIP3   OH258148   3.325   0.757   2.816
11390TIP3    H158149   3.242   0.712   2.790
11390TIP3    H258150   3.373   0.689   2.869
11391TIP3   OH258151   2.264   1.349   2.076
11391TIP3    H158152   2.332   1.410   2.108
11391TIP3    H258153   2.315   1.303   2.007
11392TIP3   OH258154   2.097   0.616   1.993
11392TIP3    H158155   2.101   0.712   2.012
11392TIP3    H258156   2.008   0.601   1.960
11393TIP3   OH258157   3.432   1.683   2.985
11393TIP3    H158158   3.422   1.752   2.917
11393TIP3    H258159   3.528   1.689   3.004
11394TIP3   OH258160   2.166   0.120   2.852
11394TIP3    H158161   2.150   0.105   2.756
11394TIP3    H258162   2.144   0.032   2.888
11395TIP3   OH258163   2.076   1.487   2.481
11395TIP3    H158164   1.990   1.531   2.476
11395TIP3    H258165   2.122   1.533   2.410
11396TIP3   OH258166   2.880   1.597   1.910
11396TIP3    H158167   2.809   1.532   1.931
11396TIP3    H258168   2.949   1.534   1.886
11397TIP3   OH258169   3.333   1.570   1.926
11397TIP3    H158170   3.361   1.494   1.980
11397TIP3    H258171   3.413   1.589   1.875
11398TIP3   OH258172   2.424   1.166   1.913
11398TIP3    H158173   2.435   1.087   1.968
11398TIP3    H258174   2.495   1.153   1.847
11399TIP3   OH258175   2.966   1.277   1.887
11399TIP3    H158176   2.938   1.283   1.980
11399TIP3    H258177   2.947   1.181   1.872
11400TIP3   OH258178   2.542   0.966   2.154
11400TIP3    H158179   2.491   0.912   2.216
11400TIP3    H258180   2.573   0.900   2.089
11401TIP3   OH258181   2.651   0.787   1.974
11401TIP3    H158182   2.636   0.780   1.877
11401TIP3    H258183   2.749   0.793   1.980
11402TIP3   OH258184   3.581   1.021   1.914
11402TIP3    H158185   3.563   0.984   1.826
11402TIP3    H258186   3.591   1.118   1.895
11403TIP3   OH258187   2.554   0.315   3.242
11403TIP3    H158188   2.600   0.372   3.175
11403TIP3    H258189   2.461   0.315   3.209
11404TIP3   OH258190   2.712   0.875   3.276
11404TIP3    H158191   2.778   0.853   3.208
11404TIP3    H258192   2.664   0.950   3.235
11405TIP3   OH258193   2.618   0.071   3.309
11405TIP3    H158194   2.615   0.168   3.288
11405TIP3    H258195   2.549   0.042   3.248
11406TIP3   OH258196   2.635   1.862   2.085
11406TIP3    H158197   2.732   1.867   2.086
11406TIP3    H258198   2.618   1.918   2.008
11407TIP3   OH258199   1.988   1.316   2.027
11407TIP3    H158200   2.085   1.325   2.043
11407TIP3    H258201   1.992   1.252   1.951
11408TIP3   OH258202   1.867   1.854   2.524
11408TIP3    H158203   1.794   1.805   2.479
11408TIP3    H258204   1.895   1.789   2.591
11409TIP3   OH258205   1.949   1.667   2.711
11409TIP3    H158206   1.913   1.580   2.733
11409TIP3    H258207   1.973   1.700   2.799
11410TIP3   OH258208   3.701   1.757   2.998
11410TIP3    H158209   3.709   1.761   3.094
11410TIP3    H258210   3.776   1.810   2.972
11411TIP3   OH258211   3.637   1.113   2.309
11411TIP3    H158212   3.723   1.152   2.329
11411TIP3    H258213   3.634   1.042   2.376
11412TIP3   OH258214   3.671   0.921   2.499
11412TIP3    H158215   3.596   0.871   2.539
11412TIP3    H258216   3.732   0.933   2.575
11413TIP3   OH258217   3.645   1.189   3.002
11413TIP3    H158218   3.725   1.151   2.963
11413TIP3    H258219   3.659   1.284   2.983
11414TIP3   OH258220   3.702   0.903   2.138
11414TIP3    H158221   3.645   0.935   2.065
11414TIP3    H258222   3.691   0.974   2.203
11415TIP3   OH258223   3.541   0.625   1.988
11415TIP3    H158224   3.546   0.692   1.919
11415TIP3    H258225   3.520   0.543   1.939
11416TIP3   OH258226   3.454   0.767   2.557
11416TIP3    H158227   3.439   0.672   2.551
11416TIP3    H258228   3.421   0.787   2.647
11417TIP3   OH258229   1.953   0.975   2.961
11417TIP3    H158230   1.972   0.968   2.865
11417TIP3    H258231   2.042   0.958   2.999
11418TIP3   OH258232   3.463   0.375   1.907
11418TIP3    H158233   3.524   0.329   1.967
11418TIP3    H258234   3.378   0.328   1.917
11419TIP3   OH258235   3.418   0.530   2.396
11419TIP3    H158236   3.446   0.437   2.413
11419TIP3    H258237   3.502   0.566   2.366
11420TIP3   OH258238   3.483   0.581   2.942
11420TIP3    H158239   3.580   0.600   2.943
11420TIP3    H258240   3.465   0.590   3.037
11421TIP3   OH258241   3.492   0.657   3.224
11421TIP3    H158242   3.403   0.682   3.259
11421TIP3    H258243   3.534   0.742   3.201
11422TIP3   OH258244   3.487   0.256   2.402
11422TIP3    H158245   3.506   0.213   2.489
11422TIP3    H258246   3.425   0.192   2.363
11423TIP3   OH258247   2.032   0.342   2.862
11423TIP3    H158248   2.078   0.258   2.885
11423TIP3    H258249   2.092   0.406   2.901
11424TIP3   OH258250   1.863   0.633   2.966
11424TIP3    H158251   1.920   0.609   2.890
11424TIP3    H258252   1.910   0.714   2.994
11425TIP3   OH258253   3.675   0.256   2.069
11425TIP3    H158254   3.707   0.185   2.007
11425TIP3    H258255   3.742   0.325   2.065
11426TIP3   OH258256   1.900   0.259   2.376
11426TIP3    H158257   1.807   0.281   2.358
11426TIP3    H258258   1.945   0.308   2.303
11427TIP3   OH258259   3.376   1.756   2.567
11427TIP3    H158260   3.444   1.726   2.505
11427TIP3    H258261   3.427   1.806   2.633
11428TIP3   OH258262   1.904   0.140   3.201
11428TIP3    H158263   1.843   0.112   3.268
11428TIP3    H258264   1.852   0.202   3.146
11429TIP3   OH258265   2.406   1.541   3.231
11429TIP3    H158266   2.377   1.633   3.225
11429TIP3    H258267   2.502   1.554   3.225
11430TIP3   OH258268   3.558   0.094   3.376
11430TIP3    H158269   3.471   0.116   3.342
11430TIP3    H258270   3.565  -0.000   3.358
11431TIP3   OH258271   2.396   1.831   3.150
11431TIP3    H158272   2.313   1.844   3.195
11431TIP3    H258273   2.393   1.890   3.073
11432TIP3   OH258274   2.870   1.822   3.069
11432TIP3    H158275   2.822   1.875   3.003
11432TIP3    H258276   2.876   1.883   3.143
11433TIP3   OH258277   3.090   1.709   3.176
11433TIP3    H158278   3.012   1.731   3.125
11433TIP3    H258279   3.150   1.783   3.158
11434TIP3   OH258280   3.357   1.863   3.195
11434TIP3    H158281   3.357   1.957   3.167
11434TIP3    H258282   3.380   1.816   3.112
11435TIP3   OH258283   2.103   1.737   2.942
11435TIP3    H158284   2.092   1.684   3.024
11435TIP3    H258285   2.182   1.696   2.901
11436TIP3   OH258286   2.305   1.607   2.807
11436TIP3    H158287   2.290   1.513   2.829
11436TIP3    H258288   2.392   1.622   2.851
11437TIP3   OH258289   2.561   1.654   2.894
11437TIP3    H158290   2.580   1.563   2.867
11437TIP3    H258291   2.571   1.648   2.991
11438TIP3   OH258292   2.906   0.225   2.805
11438TIP3    H158293   2.846   0.155   2.832
11438TIP3    H258294   2.968   0.174   2.752
11439TIP3   OH258295   3.432   0.055   2.829
11439TIP3    H158296   3.487   0.092   2.757
11439TIP3    H258297   3.341   0.056   2.792
11440TIP3   OH258298   3.597   0.155   2.640
11440TIP3    H158299   3.657   0.092   2.598
11440TIP3    H258300   3.647   0.238   2.651
11441TIP3   OH258301   2.144   0.080   2.592
11441TIP3    H158302   2.066   0.066   2.536
11441TIP3    H258303   2.192  -0.003   2.582
11442TIP3   OH258304   2.052   0.102   2.177
11442TIP3    H158305   2.072   0.153   2.097
11442TIP3    H258306   1.964   0.133   2.205
11443TIP3   OH258307   2.591   0.087   2.572
11443TIP3    H158308   2.684   0.115   2.558
11443TIP3    H258309   2.601   0.054   2.662
11444TIP3   OH258310   3.170   0.062   2.768
11444TIP3    H158311   3.170   0.092   2.674
11444TIP3    H258312   3.127  -0.023   2.752
11445TIP3   OH258313   3.276   0.080   2.241
11445TIP3    H158314   3.220   0.148   2.285
11445TIP3    H258315   3.263   0.019   2.317
11446TIP3   OH258316   2.016   1.652   2.268
11446TIP3    H158317   1.952   1.650   2.195
11446TIP3    H258318   2.016   1.748   2.284
11447TIP3   OH258319   2.205   0.255   2.011
11447TIP3    H158320   2.259   0.193   1.959
11447TIP3    H258321   2.271   0.280   2.079
11448TIP3   OH258322   2.704   0.280   2.256
11448TIP3    H158323   2.739   0.221   2.326
11448TIP3    H258324   2.721   0.365   2.302
11449TIP3   OH258325   2.904   1.784   2.101
11449TIP3    H158326   2.996   1.805   2.080
11449TIP3    H258327   2.882   1.731   2.021
11450TIP3   OH258328   3.579   1.731   2.371
11450TIP3    H158329   3.555   1.654   2.315
11450TIP3    H258330   3.567   1.806   2.309
11451TIP3   OH258331   2.196   1.755   1.963
11451TIP3    H158332   2.170   1.777   2.053
11451TIP3    H258333   2.272   1.695   1.974
11452TIP3   OH258334   4.945   0.997   2.575
11452TIP3    H158335   4.941   1.095   2.577
11452TIP3    H258336   4.870   0.974   2.517
11453TIP3   OH258337   4.832   0.920   2.929
11453TIP3    H158338   4.825   0.856   3.002
11453TIP3    H258339   4.794   0.870   2.855
11454TIP3   OH258340   4.062   0.890   3.089
11454TIP3    H158341   4.077   0.816   3.152
11454TIP3    H258342   4.140   0.946   3.103
11455TIP3   OH258343   5.194   1.219   2.754
11455TIP3    H158344   5.157   1.146   2.805
11455TIP3    H258345   5.200   1.287   2.824
11456TIP3   OH258346   4.158   1.335   2.925
11456TIP3    H158347   4.126   1.246   2.901
11456TIP3    H258348   4.253   1.316   2.937
11457TIP3   OH258349   3.819   0.690   2.483
11457TIP3    H158350   3.777   0.777   2.475
11457TIP3    H258351   3.762   0.635   2.428
11458TIP3   OH258352   3.892   0.915   2.697
11458TIP3    H158353   3.919   0.831   2.741
11458TIP3    H258354   3.960   0.924   2.629
11459TIP3   OH258355   4.906   1.731   2.781
11459TIP3    H158356   4.973   1.665   2.751
11459TIP3    H258357   4.889   1.698   2.870
11460TIP3   OH258358   4.667   1.164   2.980
11460TIP3    H158359   4.697   1.103   2.911
11460TIP3    H258360   4.751   1.177   3.027
11461TIP3   OH258361   5.533   0.324   3.052
11461TIP3    H158362   5.540   0.389   3.124
11461TIP3    H258363   5.580   0.370   2.981
11462TIP3   OH258364   4.977   0.605   3.008
11462TIP3    H158365   5.001   0.511   3.008
11462TIP3    H258366   4.972   0.621   2.912
11463TIP3   OH258367   4.295   0.418   2.727
11463TIP3    H158368   4.307   0.503   2.678
11463TIP3    H258369   4.254   0.362   2.659
11464TIP3   OH258370   5.067   0.426   2.565
11464TIP3    H158371   5.131   0.395   2.632
11464TIP3    H258372   5.124   0.483   2.512
11465TIP3   OH258373   3.955   0.660   2.800
11465TIP3    H158374   4.022   0.606   2.846
11465TIP3    H258375   3.967   0.628   2.709
11466TIP3   OH258376   4.472   0.814   2.734
11466TIP3    H158377   4.540   0.756   2.773
11466TIP3    H258378   4.421   0.749   2.683
11467TIP3   OH258379   4.179   0.305   3.127
11467TIP3    H158380   4.153   0.370   3.058
11467TIP3    H258381   4.119   0.328   3.200
11468TIP3   OH258382   4.913   1.255   2.485
11468TIP3    H158383   4.887   1.228   2.396
11468TIP3    H258384   4.884   1.348   2.491
11469TIP3   OH258385   4.433   1.076   3.145
11469TIP3    H158386   4.363   1.139   3.173
11469TIP3    H258387   4.507   1.133   3.119
11470TIP3   OH258388   5.247   0.363   2.763
11470TIP3    H158389   5.226   0.286   2.818
11470TIP3    H258390   5.317   0.405   2.816
11471TIP3   OH258391   4.140   0.498   2.932
11471TIP3    H158392   4.206   0.564   2.965
11471TIP3    H258393   4.193   0.454   2.861
11472TIP3   OH258394   4.275   1.270   3.238
11472TIP3    H158395   4.274   1.364   3.208
11472TIP3    H258396   4.192   1.269   3.286
11473TIP3   OH258397   3.893   1.233   2.315
11473TIP3    H158398   3.860   1.265   2.230
11473TIP3    H258399   3.893   1.313   2.370
11474TIP3   OH258400   5.248   1.400   2.983
11474TIP3    H158401   5.154   1.414   3.005
11474TIP3    H258402   5.277   1.493   2.975
11475TIP3   OH258403   5.279   0.232   3.138
11475TIP3    H158404   5.209   0.296   3.122
11475TIP3    H258405   5.354   0.268   3.086
11476TIP3   OH258406   4.570   0.051   2.841
11476TIP3    H158407   4.580  -0.038   2.879
11476TIP3    H258408   4.500   0.080   2.902
11477TIP3   OH258409   5.075   1.579   2.650
11477TIP3    H158410   5.119   1.507   2.600
11477TIP3    H258411   5.122   1.657   2.614
11478TIP3   OH258412   5.199   1.371   2.502
11478TIP3    H158413   5.167   1.302   2.443
11478TIP3    H258414   5.201   1.323   2.587
11479TIP3   OH258415   4.809   0.919   2.329
11479TIP3    H158416   4.740   0.977   2.293
11479TIP3    H258417   4.881   0.930   2.264
11480TIP3   OH258418   4.817   0.778   2.028
11480TIP3    H158419   4.885   0.776   2.097
11480TIP3    H258420   4.848   0.705   1.973
11481TIP3   OH258421   5.548   0.863   3.153
11481TIP3    H158422   5.481   0.935   3.163
11481TIP3    H258423   5.598   0.890   3.076
11482TIP3   OH258424   5.154   0.939   2.421
11482TIP3    H158425   5.080   0.965   2.480
11482TIP3    H258426   5.202   0.873   2.474
11483TIP3   OH258427   5.142   0.770   3.311
11483TIP3    H158428   5.145   0.840   3.377
11483TIP3    H258429   5.067   0.797   3.255
11484TIP3   OH258430   4.314   1.007   2.612
11484TIP3    H158431   4.283   0.967   2.527
11484TIP3    H258432   4.376   0.938   2.646
11485TIP3   OH258433   4.448   1.346   2.883
11485TIP3    H158434   4.446   1.293   2.802
11485TIP3    H258435   4.526   1.310   2.927
11486TIP3   OH258436   4.345   0.883   2.975
11486TIP3    H158437   4.402   0.892   2.896
11486TIP3    H258438   4.386   0.946   3.038
11487TIP3   OH258439   4.989   1.439   3.052
11487TIP3    H158440   4.963   1.504   3.118
11487TIP3    H258441   4.964   1.353   3.093
11488TIP3   OH258442   5.042   0.862   2.187
11488TIP3    H158443   5.097   0.879   2.267
11488TIP3    H258444   5.088   0.912   2.115
11489TIP3   OH258445   4.130   0.933   3.375
11489TIP3    H158446   4.139   1.006   3.437
11489TIP3    H258447   4.048   0.955   3.333
11490TIP3   OH258448   4.813   1.534   2.534
11490TIP3    H158449   4.856   1.564   2.616
11490TIP3    H258450   4.757   1.609   2.511
11491TIP3   OH258451   5.416   0.042   2.188
11491TIP3    H158452   5.319   0.048   2.196
11491TIP3    H258453   5.437   0.118   2.129
11492TIP3   OH258454   4.214   0.907   2.370
11492TIP3    H158455   4.183   0.988   2.326
11492TIP3    H258456   4.143   0.844   2.353
11493TIP3   OH258457   5.523   1.470   2.008
11493TIP3    H158458   5.542   1.563   2.029
11493TIP3    H258459   5.615   1.437   2.013
11494TIP3   OH258460   3.833   1.148   3.251
11494TIP3    H158461   3.772   1.149   3.175
11494TIP3    H258462   3.815   1.061   3.285
11495TIP3   OH258463   3.798   1.431   2.934
11495TIP3    H158464   3.892   1.411   2.946
11495TIP3    H258465   3.783   1.501   2.998
11496TIP3   OH258466   4.761   1.824   2.375
11496TIP3    H158467   4.750   1.817   2.279
11496TIP3    H258468   4.761   1.920   2.392
11497TIP3   OH258469   4.122   1.708   2.560
11497TIP3    H158470   4.139   1.674   2.652
11497TIP3    H258471   4.031   1.672   2.551
11498TIP3   OH258472   5.064   1.747   2.074
11498TIP3    H158473   5.112   1.672   2.032
11498TIP3    H258474   5.069   1.721   2.169
11499TIP3   OH258475   5.034   1.739   2.351
11499TIP3    H158476   4.939   1.747   2.369
11499TIP3    H258477   5.058   1.665   2.409
11500TIP3   OH258478   4.317   0.134   2.948
11500TIP3    H158479   4.229   0.133   2.907
11500TIP3    H258480   4.308   0.212   3.005
11501TIP3   OH258481   4.786   0.103   3.295
11501TIP3    H158482   4.815   0.061   3.375
11501TIP3    H258483   4.687   0.094   3.299
11502TIP3   OH258484   5.184   0.969   1.970
11502TIP3    H158485   5.183   0.945   1.875
11502TIP3    H258486   5.273   1.008   1.975
11503TIP3   OH258487   4.745   0.358   2.021
11503TIP3    H158488   4.717   0.348   2.113
11503TIP3    H258489   4.715   0.271   1.990
11504TIP3   OH258490   4.325   0.631   3.071
11504TIP3    H158491   4.261   0.627   3.145
11504TIP3    H258492   4.323   0.725   3.042
11505TIP3   OH258493   4.323   0.639   2.565
11505TIP3    H158494   4.229   0.615   2.553
11505TIP3    H258495   4.361   0.611   2.480
11506TIP3   OH258496   4.876   0.691   2.442
11506TIP3    H158497   4.838   0.774   2.405
11506TIP3    H258498   4.945   0.673   2.376
11507TIP3   OH258499   4.980   0.641   2.727
11507TIP3    H158500   4.950   0.697   2.653
11507TIP3    H258501   4.988   0.555   2.680
11508TIP3   OH258502   4.097   0.664   3.238
11508TIP3    H158503   4.107   0.696   3.330
11508TIP3    H258504   4.054   0.579   3.256
11509TIP3   OH258505   4.425   0.402   1.936
11509TIP3    H158506   4.385   0.346   2.006
11509TIP3    H258507   4.357   0.427   1.873
11510TIP3   OH258508   3.758   0.372   2.645
11510TIP3    H158509   3.824   0.365   2.717
11510TIP3    H258510   3.801   0.330   2.569
11511TIP3   OH258511   3.885   0.442   2.184
11511TIP3    H158512   3.927   0.504   2.123
11511TIP3    H258513   3.811   0.501   2.214
11512TIP3   OH258514   4.898   0.797   3.186
11512TIP3    H158515   4.936   0.730   3.125
11512TIP3    H258516   4.847   0.739   3.246
11513TIP3   OH258517   4.580   0.399   2.668
11513TIP3    H158518   4.486   0.393   2.695
11513TIP3    H258519   4.627   0.377   2.749
11514TIP3   OH258520   4.062   0.552   2.549
11514TIP3    H158521   3.971   0.564   2.514
11514TIP3    H258522   4.087   0.465   2.514
11515TIP3   OH258523   4.422   0.556   2.314
11515TIP3    H158524   4.518   0.564   2.332
11515TIP3    H258525   4.403   0.629   2.252
11516TIP3   OH258526   5.022   0.320   2.991
11516TIP3    H158527   4.952   0.324   3.059
11516TIP3    H258528   4.974   0.288   2.914
11517TIP3   OH258529   4.303   0.677   2.072
11517TIP3    H158530   4.252   0.674   1.990
11517TIP3    H258531   4.389   0.703   2.032
11518TIP3   OH258532   4.706   0.671   2.855
11518TIP3    H158533   4.767   0.618   2.803
11518TIP3    H258534   4.693   0.616   2.934
11519TIP3   OH258535   4.204   0.287   2.491
11519TIP3    H158536   4.176   0.194   2.501
11519TIP3    H258537   4.288   0.275   2.445
11520TIP3   OH258538   4.574   0.507   3.095
11520TIP3    H158539   4.491   0.558   3.104
11520TIP3    H258540   4.626   0.537   3.171
11521TIP3   OH258541   4.630   1.127   2.266
11521TIP3    H158542   4.550   1.080   2.233
11521TIP3    H258543   4.607   1.139   2.360
11522TIP3   OH258544   5.349   1.040   3.145
11522TIP3    H158545   5.406   1.096   3.090
11522TIP3    H258546   5.264   1.051   3.101
11523TIP3   OH258547   5.010   0.406   2.085
11523TIP3    H158548   4.916   0.425   2.068
11523TIP3    H258549   5.047   0.491   2.118
11524TIP3   OH258550   5.086   0.599   2.245
11524TIP3    H158551   5.173   0.587   2.287
11524TIP3    H258552   5.097   0.681   2.194
11525TIP3   OH258553   4.140   1.067   2.845
11525TIP3    H158554   4.209   1.058   2.777
11525TIP3    H258555   4.146   0.981   2.890
11526TIP3   OH258556   4.839   1.273   2.168
11526TIP3    H158557   4.806   1.357   2.205
11526TIP3    H258558   4.766   1.211   2.192
11527TIP3   OH258559   5.575   0.616   2.224
11527TIP3    H158560   5.521   0.585   2.149
11527TIP3    H258561   5.583   0.710   2.199
11528TIP3   OH258562   5.401   1.496   2.262
11528TIP3    H158563   5.369   1.413   2.298
11528TIP3    H258564   5.436   1.473   2.174
11529TIP3   OH258565   5.126   0.981   2.973
11529TIP3    H158566   5.032   0.957   2.965
11529TIP3    H258567   5.169   0.903   2.935
11530TIP3   OH258568   4.379   1.411   2.583
11530TIP3    H158569   4.430   1.492   2.566
11530TIP3    H258570   4.290   1.433   2.554
11531TIP3   OH258571   3.956   0.892   2.045
11531TIP3    H158572   4.012   0.963   2.083
11531TIP3    H258573   3.866   0.925   2.064
11532TIP3   OH258574   4.520   1.178   2.535
11532TIP3    H158575   4.489   1.269   2.546
11532TIP3    H258576   4.449   1.128   2.580
11533TIP3   OH258577   4.570   1.593   3.170
11533TIP3    H158578   4.609   1.679   3.150
11533TIP3    H258579   4.621   1.569   3.247
11534TIP3   OH258580   4.380   1.682   2.482
11534TIP3    H158581   4.293   1.693   2.524
11534TIP3    H258582   4.429   1.757   2.522
11535TIP3   OH258583   4.913   1.195   3.139
11535TIP3    H158584   4.892   1.177   3.231
11535TIP3    H258585   4.983   1.130   3.123
11536TIP3   OH258586   5.152   1.304   2.046
11536TIP3    H158587   5.181   1.257   2.127
11536TIP3    H258588   5.057   1.285   2.056
11537TIP3   OH258589   5.597   1.739   2.074
11537TIP3    H158590   5.665   1.806   2.053
11537TIP3    H258591   5.526   1.800   2.102
11538TIP3   OH258592   5.228   1.168   2.272
11538TIP3    H158593   5.204   1.088   2.325
11538TIP3    H258594   5.324   1.171   2.289
11539TIP3   OH258595   4.558   1.413   1.896
11539TIP3    H158596   4.575   1.336   1.838
11539TIP3    H258597   4.522   1.365   1.974
11540TIP3   OH258598   4.433   1.366   2.147
11540TIP3    H158599   4.474   1.309   2.216
11540TIP3    H258600   4.455   1.456   2.177
11541TIP3   OH258601   4.093   1.088   2.186
11541TIP3    H158602   4.023   1.124   2.245
11541TIP3    H258603   4.148   1.163   2.164
11542TIP3   OH258604   4.873   0.358   3.227
11542TIP3    H158605   4.951   0.354   3.281
11542TIP3    H258606   4.834   0.268   3.237
11543TIP3   OH258607   4.961   0.308   2.335
11543TIP3    H158608   4.974   0.359   2.252
11543TIP3    H258609   5.009   0.365   2.398
11544TIP3   OH258610   4.718   1.529   2.212
11544TIP3    H158611   4.641   1.586   2.224
11544TIP3    H258612   4.775   1.585   2.156
11545TIP3   OH258613   4.676   0.488   2.415
11545TIP3    H158614   4.753   0.548   2.420
11545TIP3    H258615   4.647   0.477   2.508
11546TIP3   OH258616   4.750   0.605   3.321
11546TIP3    H158617   4.728   0.643   3.407
11546TIP3    H258618   4.783   0.515   3.340
11547TIP3   OH258619   4.764   0.196   2.507
11547TIP3    H158620   4.728   0.264   2.566
11547TIP3    H258621   4.830   0.250   2.459
11548TIP3   OH258622   4.444   1.636   2.215
11548TIP3    H158623   4.478   1.713   2.161
11548TIP3    H258624   4.447   1.671   2.306
11549TIP3   OH258625   4.322   0.311   2.169
11549TIP3    H158626   4.326   0.393   2.222
11549TIP3    H258627   4.412   0.279   2.196
11550TIP3   OH258628   5.210   0.758   2.813
11550TIP3    H158629   5.126   0.713   2.791
11550TIP3    H258630   5.259   0.691   2.867
11551TIP3   OH258631   4.151   1.365   2.065
11551TIP3    H158632   4.226   1.401   2.115
11551TIP3    H258633   4.200   1.296   2.013
11552TIP3   OH258634   3.986   0.618   1.992
11552TIP3    H158635   3.983   0.715   2.012
11552TIP3    H258636   3.896   0.601   1.961
11553TIP3   OH258637   5.314   1.681   2.978
11553TIP3    H158638   5.307   1.754   2.916
11553TIP3    H258639   5.408   1.689   3.005
11554TIP3   OH258640   4.054   0.121   2.853
11554TIP3    H158641   4.037   0.107   2.756
11554TIP3    H258642   4.031   0.032   2.887
11555TIP3   OH258643   3.961   1.493   2.486
11555TIP3    H158644   3.872   1.528   2.480
11555TIP3    H258645   3.997   1.529   2.406
11556TIP3   OH258646   4.763   1.597   1.910
11556TIP3    H158647   4.695   1.530   1.933
11556TIP3    H258648   4.834   1.537   1.887
11557TIP3   OH258649   5.217   1.567   1.924
11557TIP3    H158650   5.248   1.495   1.981
11557TIP3    H258651   5.297   1.594   1.877
11558TIP3   OH258652   4.307   1.168   1.910
11558TIP3    H158653   4.320   1.090   1.968
11558TIP3    H258654   4.382   1.152   1.850
11559TIP3   OH258655   4.853   1.277   1.887
11559TIP3    H158656   4.822   1.284   1.980
11559TIP3    H258657   4.832   1.181   1.873
11560TIP3   OH258658   4.427   0.967   2.154
11560TIP3    H158659   4.377   0.912   2.217
11560TIP3    H258660   4.460   0.901   2.089
11561TIP3   OH258661   4.351   0.743   3.374
11561TIP3    H158662   4.297   0.814   3.412
11561TIP3    H258663   4.397   0.783   3.300
11562TIP3   OH258664   4.535   0.785   1.973
11562TIP3    H158665   4.523   0.782   1.876
11562TIP3    H258666   4.633   0.794   1.981
11563TIP3   OH258667   5.465   1.021   1.914
11563TIP3    H158668   5.450   0.982   1.826
11563TIP3    H258669   5.479   1.116   1.896
11564TIP3   OH258670   4.420   0.351   3.246
11564TIP3    H158671   4.487   0.373   3.178
11564TIP3    H258672   4.344   0.316   3.196
11565TIP3   OH258673   4.526   0.127   3.216
11565TIP3    H158674   4.499   0.201   3.277
11565TIP3    H258675   4.467   0.056   3.251
11566TIP3   OH258676   4.517   1.856   2.080
11566TIP3    H158677   4.614   1.867   2.089
11566TIP3    H258678   4.506   1.919   2.007
11567TIP3   OH258679   3.876   1.321   2.025
11567TIP3    H158680   3.971   1.320   2.047
11567TIP3    H258681   3.875   1.251   1.955
11568TIP3   OH258682   3.756   1.851   2.521
11568TIP3    H158683   3.679   1.806   2.479
11568TIP3    H258684   3.777   1.790   2.593
11569TIP3   OH258685   3.840   1.666   2.709
11569TIP3    H158686   3.798   1.582   2.733
11569TIP3    H258687   3.857   1.702   2.798
11570TIP3   OH258688   5.587   1.751   3.005
11570TIP3    H158689   5.590   1.759   3.103
11570TIP3    H258690   5.662   1.804   2.976
11571TIP3   OH258691   5.553   1.706   3.293
11571TIP3    H158692   5.498   1.630   3.261
11571TIP3    H258693   5.596   1.665   3.368
11572TIP3   OH258694   5.522   1.113   2.309
11572TIP3    H158695   5.609   1.151   2.328
11572TIP3    H258696   5.519   1.041   2.376
11573TIP3   OH258697   5.557   0.921   2.499
11573TIP3    H158698   5.482   0.871   2.539
11573TIP3    H258699   5.617   0.932   2.575
11574TIP3   OH258700   5.530   1.188   2.991
11574TIP3    H158701   5.614   1.150   2.961
11574TIP3    H258702   5.545   1.284   2.982
11575TIP3   OH258703   5.389   1.489   3.223
11575TIP3    H158704   5.320   1.507   3.289
11575TIP3    H258705   5.337   1.436   3.160
11576TIP3   OH258706   5.588   0.902   2.137
11576TIP3    H158707   5.530   0.935   2.065
11576TIP3    H258708   5.577   0.973   2.203
11577TIP3   OH258709   5.425   0.626   1.987
11577TIP3    H158710   5.433   0.691   1.917
11577TIP3    H258711   5.405   0.543   1.938
11578TIP3   OH258712   5.339   0.767   2.558
11578TIP3    H158713   5.325   0.672   2.551
11578TIP3    H258714   5.307   0.787   2.648
11579TIP3   OH258715   3.839   0.974   2.962
11579TIP3    H158716   3.857   0.968   2.866
11579TIP3    H258717   3.928   0.960   2.998
11580TIP3   OH258718   5.348   0.376   1.907
11580TIP3    H158719   5.410   0.329   1.966
11580TIP3    H258720   5.264   0.328   1.917
11581TIP3   OH258721   5.303   0.529   2.397
11581TIP3    H158722   5.334   0.436   2.413
11581TIP3    H258723   5.387   0.567   2.367
11582TIP3   OH258724   5.369   0.582   2.941
11582TIP3    H158725   5.466   0.602   2.945
11582TIP3    H258726   5.351   0.592   3.037
11583TIP3   OH258727   5.370   0.656   3.205
11583TIP3    H158728   5.292   0.681   3.260
11583TIP3    H258729   5.427   0.736   3.208
11584TIP3   OH258730   5.368   0.258   2.405
11584TIP3    H158731   5.393   0.213   2.489
11584TIP3    H258732   5.312   0.191   2.361
11585TIP3   OH258733   3.917   0.341   2.864
11585TIP3    H158734   3.963   0.257   2.886
11585TIP3    H258735   3.978   0.406   2.901
11586TIP3   OH258736   3.751   0.634   2.966
11586TIP3    H158737   3.806   0.610   2.888
11586TIP3    H258738   3.796   0.716   2.991
11587TIP3   OH258739   5.558   0.256   2.068
11587TIP3    H158740   5.594   0.186   2.008
11587TIP3    H258741   5.627   0.324   2.066
11588TIP3   OH258742   3.786   0.259   2.375
11588TIP3    H158743   3.692   0.279   2.359
11588TIP3    H258744   3.829   0.308   2.303
11589TIP3   OH258745   5.260   1.756   2.566
11589TIP3    H158746   5.329   1.726   2.505
11589TIP3    H258747   5.312   1.805   2.632
11590TIP3   OH258748   3.789   0.141   3.197
11590TIP3    H158749   3.728   0.119   3.268
11590TIP3    H258750   3.736   0.204   3.145
11591TIP3   OH258751   4.294   1.542   3.235
11591TIP3    H158752   4.260   1.632   3.225
11591TIP3    H258753   4.388   1.559   3.222
11592TIP3   OH258754   5.432   0.087   3.385
11592TIP3    H158755   5.356   0.118   3.337
11592TIP3    H258756   5.453  -0.000   3.350
11593TIP3   OH258757   4.031   1.863   3.243
11593TIP3    H158758   3.963   1.925   3.212
11593TIP3    H258759   4.010   1.854   3.338
11594TIP3   OH258760   4.283   1.831   3.142
11594TIP3    H158761   4.202   1.843   3.198
11594TIP3    H258762   4.276   1.896   3.072
11595TIP3   OH258763   4.758   1.821   3.070
11595TIP3    H158764   4.710   1.874   3.004
11595TIP3    H258765   4.764   1.885   3.144
11596TIP3   OH258766   4.985   1.704   3.170
11596TIP3    H158767   4.898   1.725   3.135
11596TIP3    H258768   5.030   1.787   3.156
11597TIP3   OH258769   3.986   1.736   2.938
11597TIP3    H158770   3.978   1.695   3.026
11597TIP3    H258771   4.067   1.696   2.903
11598TIP3   OH258772   4.194   1.606   2.801
11598TIP3    H158773   4.176   1.514   2.829
11598TIP3    H258774   4.276   1.622   2.853
11599TIP3   OH258775   4.452   1.654   2.892
11599TIP3    H158776   4.467   1.561   2.868
11599TIP3    H258777   4.456   1.649   2.989
11600TIP3   OH258778   4.793   0.227   2.803
11600TIP3    H158779   4.731   0.159   2.833
11600TIP3    H258780   4.855   0.171   2.754
11601TIP3   OH258781   5.315   0.052   2.828
11601TIP3    H158782   5.374   0.090   2.759
11601TIP3    H258783   5.225   0.059   2.790
11602TIP3   OH258784   5.479   0.155   2.636
11602TIP3    H158785   5.543   0.093   2.600
11602TIP3    H258786   5.531   0.237   2.652
11603TIP3   OH258787   4.029   0.079   2.591
11603TIP3    H158788   3.952   0.066   2.535
11603TIP3    H258789   4.078  -0.004   2.583
11604TIP3   OH258790   3.940   0.106   2.177
11604TIP3    H158791   3.953   0.151   2.093
11604TIP3    H258792   3.850   0.130   2.205
11605TIP3   OH258793   4.476   0.087   2.571
11605TIP3    H158794   4.569   0.113   2.561
11605TIP3    H258795   4.483   0.054   2.662
11606TIP3   OH258796   5.051   0.079   2.736
11606TIP3    H158797   5.048   0.086   2.639
11606TIP3    H258798   5.018  -0.012   2.747
11607TIP3   OH258799   5.160   0.093   2.267
11607TIP3    H158800   5.089   0.155   2.284
11607TIP3    H258801   5.139   0.014   2.318
11608TIP3   OH258802   3.915   1.657   2.263
11608TIP3    H158803   3.836   1.648   2.204
11608TIP3    H258804   3.895   1.750   2.285
11609TIP3   OH258805   4.104   0.271   2.007
11609TIP3    H158806   4.141   0.193   1.961
11609TIP3    H258807   4.159   0.266   2.088
11610TIP3   OH258808   4.589   0.281   2.256
11610TIP3    H158809   4.622   0.220   2.324
11610TIP3    H258810   4.606   0.366   2.302
11611TIP3   OH258811   4.790   1.784   2.100
11611TIP3    H158812   4.882   1.805   2.078
11611TIP3    H258813   4.768   1.731   2.020
11612TIP3   OH258814   5.458   1.733   2.373
11612TIP3    H158815   5.440   1.655   2.316
11612TIP3    H258816   5.452   1.807   2.308
11613TIP3   OH258817   4.081   1.739   1.966
11613TIP3    H158818   4.048   1.786   2.045
11613TIP3    H258819   4.171   1.714   1.993
11614TIP3   OH258820   6.829   0.997   2.577
11614TIP3    H158821   6.826   1.095   2.574
11614TIP3    H258822   6.756   0.973   2.518
11615TIP3   OH258823   6.714   0.923   2.929
11615TIP3    H158824   6.712   0.857   3.000
11615TIP3    H258825   6.681   0.872   2.853
11616TIP3   OH258826   5.951   0.887   3.086
11616TIP3    H158827   5.954   0.826   3.161
11616TIP3    H258828   6.024   0.947   3.107
11617TIP3   OH258829   7.089   1.215   2.758
11617TIP3    H158830   7.037   1.147   2.802
11617TIP3    H258831   7.084   1.289   2.821
11618TIP3   OH258832   6.041   1.335   2.929
11618TIP3    H158833   6.011   1.246   2.900
11618TIP3    H258834   6.137   1.318   2.937
11619TIP3   OH258835   5.705   0.689   2.482
11619TIP3    H158836   5.662   0.776   2.475
11619TIP3    H258837   5.649   0.635   2.425
11620TIP3   OH258838   5.777   0.915   2.697
11620TIP3    H158839   5.804   0.831   2.740
11620TIP3    H258840   5.846   0.924   2.629
11621TIP3   OH258841   6.812   1.732   2.788
11621TIP3    H158842   6.863   1.656   2.753
11621TIP3    H258843   6.768   1.699   2.866
11622TIP3   OH258844   6.554   1.163   2.980
11622TIP3    H158845   6.581   1.100   2.910
11622TIP3    H258846   6.637   1.174   3.024
11623TIP3   OH258847   7.421   0.323   3.053
11623TIP3    H158848   7.423   0.393   3.119
11623TIP3    H258849   7.467   0.367   2.980
11624TIP3   OH258850   6.862   0.603   3.009
11624TIP3    H158851   6.891   0.510   3.003
11624TIP3    H258852   6.857   0.625   2.914
11625TIP3   OH258853   6.181   0.419   2.727
11625TIP3    H158854   6.192   0.503   2.677
11625TIP3    H258855   6.140   0.362   2.659
11626TIP3   OH258856   6.960   0.465   2.585
11626TIP3    H158857   7.014   0.396   2.629
11626TIP3    H258858   7.013   0.479   2.506
11627TIP3   OH258859   5.841   0.659   2.801
11627TIP3    H158860   5.910   0.605   2.845
11627TIP3    H258861   5.852   0.628   2.709
11628TIP3   OH258862   6.358   0.814   2.733
11628TIP3    H158863   6.425   0.756   2.773
11628TIP3    H258864   6.307   0.749   2.681
11629TIP3   OH258865   6.071   0.313   3.122
11629TIP3    H158866   6.041   0.375   3.054
11629TIP3    H258867   6.008   0.330   3.195
11630TIP3   OH258868   6.799   1.254   2.486
11630TIP3    H158869   6.774   1.228   2.397
11630TIP3    H258870   6.769   1.348   2.491
11631TIP3   OH258871   6.327   1.075   3.156
11631TIP3    H158872   6.251   1.135   3.176
11631TIP3    H258873   6.391   1.138   3.120
11632TIP3   OH258874   7.134   0.363   2.771
11632TIP3    H158875   7.112   0.284   2.821
11632TIP3    H258876   7.205   0.403   2.822
11633TIP3   OH258877   6.024   0.500   2.929
11633TIP3    H158878   6.090   0.562   2.967
11633TIP3    H258879   6.079   0.454   2.860
11634TIP3   OH258880   6.171   1.272   3.238
11634TIP3    H158881   6.162   1.363   3.204
11634TIP3    H258882   6.080   1.265   3.277
11635TIP3   OH258883   5.775   1.232   2.316
11635TIP3    H158884   5.750   1.268   2.229
11635TIP3    H258885   5.783   1.314   2.369
11636TIP3   OH258886   7.135   1.400   2.990
11636TIP3    H158887   7.039   1.415   3.001
11636TIP3    H258888   7.163   1.492   2.972
11637TIP3   OH258889   7.157   0.240   3.137
11637TIP3    H158890   7.088   0.303   3.117
11637TIP3    H258891   7.234   0.266   3.082
11638TIP3   OH258892   6.460   0.051   2.847
11638TIP3    H158893   6.464  -0.040   2.879
11638TIP3    H258894   6.383   0.078   2.901
11639TIP3   OH258895   6.965   1.576   2.652
11639TIP3    H158896   7.005   1.507   2.597
11639TIP3    H258897   7.003   1.658   2.614
11640TIP3   OH258898   7.083   1.371   2.503
11640TIP3    H158899   7.053   1.302   2.443
11640TIP3    H258900   7.087   1.322   2.587
11641TIP3   OH258901   7.239   1.227   3.354
11641TIP3    H158902   7.256   1.166   3.282
11641TIP3    H258903   7.263   1.314   3.317
11642TIP3   OH258904   6.694   0.924   2.329
11642TIP3    H158905   6.626   0.980   2.290
11642TIP3    H258906   6.766   0.926   2.263
11643TIP3   OH258907   6.703   0.779   2.029
11643TIP3    H158908   6.773   0.776   2.096
11643TIP3    H258909   6.733   0.705   1.974
11644TIP3   OH258910   7.439   0.845   3.171
11644TIP3    H158911   7.373   0.913   3.191
11644TIP3    H258912   7.494   0.867   3.094
11645TIP3   OH258913   7.041   0.940   2.421
11645TIP3    H158914   6.966   0.965   2.481
11645TIP3    H258915   7.088   0.874   2.474
11646TIP3   OH258916   7.040   0.766   3.323
11646TIP3    H158917   7.035   0.834   3.391
11646TIP3    H258918   6.963   0.788   3.269
11647TIP3   OH258919   6.200   1.007   2.612
11647TIP3    H158920   6.168   0.968   2.527
11647TIP3    H258921   6.261   0.938   2.646
11648TIP3   OH258922   6.334   1.347   2.881
11648TIP3    H158923   6.331   1.295   2.799
11648TIP3    H258924   6.412   1.311   2.925
11649TIP3   OH258925   6.231   0.885   2.975
11649TIP3    H158926   6.289   0.893   2.896
11649TIP3    H258927   6.272   0.947   3.040
11650TIP3   OH258928   6.867   1.433   3.052
11650TIP3    H158929   6.849   1.507   3.113
11650TIP3    H258930   6.851   1.352   3.099
11651TIP3   OH258931   6.318   1.317   3.458
11651TIP3    H158932   6.291   1.405   3.485
11651TIP3    H258933   6.262   1.307   3.376
11652TIP3   OH258934   6.928   0.862   2.187
11652TIP3    H158935   6.983   0.879   2.267
11652TIP3    H258936   6.973   0.911   2.115
11653TIP3   OH258937   6.698   1.532   2.535
11653TIP3    H158938   6.739   1.565   2.616
11653TIP3    H258939   6.642   1.608   2.512
11654TIP3   OH258940   7.302   0.041   2.184
11654TIP3    H158941   7.206   0.052   2.192
11654TIP3    H258942   7.326   0.118   2.129
11655TIP3   OH258943   6.096   0.908   2.375
11655TIP3    H158944   6.068   0.987   2.324
11655TIP3    H258945   6.032   0.842   2.350
11656TIP3   OH258946   7.411   1.470   2.013
11656TIP3    H158947   7.428   1.564   2.030
11656TIP3    H258948   7.503   1.438   2.013
11657TIP3   OH258949   5.716   1.150   3.255
11657TIP3    H158950   5.660   1.142   3.176
11657TIP3    H258951   5.709   1.058   3.289
11658TIP3   OH258952   5.684   1.428   2.944
11658TIP3    H158953   5.779   1.413   2.942
11658TIP3    H258954   5.675   1.508   2.997
11659TIP3   OH258955   6.648   1.823   2.374
11659TIP3    H158956   6.634   1.819   2.279
11659TIP3    H258957   6.646   1.919   2.395
11660TIP3   OH258958   6.012   1.713   2.560
11660TIP3    H158959   6.026   1.671   2.648
11660TIP3    H258960   5.927   1.672   2.535
11661TIP3   OH258961   6.952   1.746   2.074
11661TIP3    H158962   6.998   1.670   2.031
11661TIP3    H258963   6.956   1.721   2.169
11662TIP3   OH258964   6.922   1.737   2.349
11662TIP3    H158965   6.826   1.748   2.368
11662TIP3    H258966   6.943   1.665   2.411
11663TIP3   OH258967   5.935   1.280   3.360
11663TIP3    H158968   5.948   1.241   3.446
11663TIP3    H258969   5.846   1.245   3.333
11664TIP3   OH258970   6.205   0.135   2.949
11664TIP3    H158971   6.116   0.133   2.908
11664TIP3    H258972   6.192   0.215   3.002
11665TIP3   OH258973   7.071   0.965   1.972
11665TIP3    H158974   7.068   0.944   1.876
11665TIP3    H258975   7.158   1.010   1.974
11666TIP3   OH258976   6.631   0.358   2.019
11666TIP3    H158977   6.603   0.349   2.112
11666TIP3    H258978   6.598   0.271   1.989
11667TIP3   OH258979   6.211   0.629   3.072
11667TIP3    H158980   6.147   0.627   3.145
11667TIP3    H258981   6.210   0.723   3.043
11668TIP3   OH258982   6.209   0.638   2.566
11668TIP3    H158983   6.115   0.615   2.552
11668TIP3    H258984   6.246   0.611   2.479
11669TIP3   OH258985   6.761   0.695   2.444
11669TIP3    H158986   6.722   0.775   2.404
11669TIP3    H258987   6.829   0.670   2.378
11670TIP3   OH258988   6.857   0.645   2.735
11670TIP3    H158989   6.835   0.697   2.655
11670TIP3    H258990   6.877   0.561   2.685
11671TIP3   OH258991   6.311   0.396   1.933
11671TIP3    H158992   6.266   0.352   2.008
11671TIP3    H258993   6.239   0.438   1.884
11672TIP3   OH258994   5.643   0.372   2.644
11672TIP3    H158995   5.710   0.366   2.715
11672TIP3    H258996   5.686   0.330   2.568
11673TIP3   OH258997   5.767   0.440   2.183
11673TIP3    H158998   5.820   0.497   2.123
11673TIP3    H258999   5.699   0.504   2.212
11674TIP3   OH259000   6.781   0.801   3.183
11674TIP3    H159001   6.821   0.731   3.126
11674TIP3    H259002   6.736   0.746   3.251
11675TIP3   OH259003   6.463   0.401   2.668
11675TIP3    H159004   6.369   0.394   2.695
11675TIP3    H259005   6.513   0.377   2.748
11676TIP3   OH259006   5.945   0.551   2.553
11676TIP3    H159007   5.857   0.565   2.512
11676TIP3    H259008   5.975   0.468   2.512
11677TIP3   OH259009   6.309   0.556   2.316
11677TIP3    H159010   6.405   0.564   2.331
11677TIP3    H259011   6.288   0.624   2.249
11678TIP3   OH259012   6.904   0.327   2.993
11678TIP3    H159013   6.834   0.324   3.058
11678TIP3    H259014   6.862   0.292   2.912
11679TIP3   OH259015   6.181   0.673   2.074
11679TIP3    H159016   6.127   0.635   2.002
11679TIP3    H259017   6.263   0.695   2.026
11680TIP3   OH259018   6.590   0.669   2.853
11680TIP3    H159019   6.653   0.618   2.801
11680TIP3    H259020   6.579   0.616   2.932
11681TIP3   OH259021   6.093   0.285   2.497
11681TIP3    H159022   6.062   0.194   2.499
11681TIP3    H259023   6.172   0.277   2.443
11682TIP3   OH259024   6.463   0.500   3.098
11682TIP3    H159025   6.379   0.553   3.099
11682TIP3    H259026   6.511   0.542   3.172
11683TIP3   OH259027   6.515   1.126   2.266
11683TIP3    H159028   6.435   1.079   2.233
11683TIP3    H259029   6.492   1.140   2.360
11684TIP3   OH259030   7.213   1.052   3.148
11684TIP3    H159031   7.255   1.123   3.099
11684TIP3    H259032   7.125   1.047   3.101
11685TIP3   OH259033   6.902   0.415   2.071
11685TIP3    H159034   6.804   0.423   2.072
11685TIP3    H259035   6.933   0.493   2.120
11686TIP3   OH259036   6.973   0.598   2.242
11686TIP3    H159037   7.059   0.585   2.288
11686TIP3    H259038   6.984   0.682   2.194
11687TIP3   OH259039   6.026   1.066   2.848
11687TIP3    H159040   6.093   1.057   2.777
11687TIP3    H259041   6.032   0.980   2.893
11688TIP3   OH259042   6.724   1.273   2.169
11688TIP3    H159043   6.689   1.358   2.205
11688TIP3    H259044   6.651   1.211   2.192
11689TIP3   OH259045   5.723   0.908   3.372
11689TIP3    H159046   5.752   0.857   3.450
11689TIP3    H259047   5.663   0.845   3.331
11690TIP3   OH259048   7.458   0.616   2.225
11690TIP3    H159049   7.406   0.585   2.149
11690TIP3    H259050   7.470   0.710   2.198
11691TIP3   OH259051   7.287   1.496   2.262
11691TIP3    H159052   7.255   1.413   2.298
11691TIP3    H259053   7.324   1.474   2.175
11692TIP3   OH259054   7.012   0.979   2.976
11692TIP3    H159055   6.917   0.958   2.965
11692TIP3    H259056   7.050   0.900   2.931
11693TIP3   OH259057   6.264   1.411   2.583
11693TIP3    H159058   6.314   1.493   2.566
11693TIP3    H259059   6.176   1.435   2.551
11694TIP3   OH259060   5.841   0.895   2.040
11694TIP3    H159061   5.898   0.962   2.082
11694TIP3    H259062   5.752   0.926   2.066
11695TIP3   OH259063   6.404   1.178   2.534
11695TIP3    H159064   6.372   1.270   2.545
11695TIP3    H259065   6.334   1.128   2.580
11696TIP3   OH259066   6.460   1.588   3.175
11696TIP3    H159067   6.490   1.678   3.149
11696TIP3    H259068   6.513   1.571   3.253
11697TIP3   OH259069   6.273   1.676   2.486
11697TIP3    H159070   6.178   1.692   2.504
11697TIP3    H259071   6.312   1.757   2.523
11698TIP3   OH259072   7.038   1.305   2.048
11698TIP3    H159073   7.067   1.257   2.128
11698TIP3    H259074   6.942   1.286   2.055
11699TIP3   OH259075   7.082   1.653   3.386
11699TIP3    H159076   7.012   1.613   3.335
11699TIP3    H259077   7.105   1.726   3.327
11700TIP3   OH259078   7.483   1.739   2.073
11700TIP3    H159079   7.552   1.806   2.053
11700TIP3    H259080   7.411   1.800   2.102
11701TIP3   OH259081   7.114   1.168   2.273
11701TIP3    H159082   7.090   1.088   2.326
11701TIP3    H259083   7.209   1.171   2.289
11702TIP3   OH259084   5.860   1.563   3.167
11702TIP3    H159085   5.882   1.468   3.169
11702TIP3    H259086   5.883   1.589   3.257
11703TIP3   OH259087   6.450   1.413   1.899
11703TIP3    H159088   6.460   1.337   1.840
11703TIP3    H259089   6.404   1.369   1.974
11704TIP3   OH259090   6.326   1.364   2.143
11704TIP3    H159091   6.355   1.312   2.220
11704TIP3    H259092   6.336   1.456   2.176
11705TIP3   OH259093   5.981   1.088   2.191
11705TIP3    H159094   5.909   1.128   2.244
11705TIP3    H259095   6.031   1.166   2.161
11706TIP3   OH259096   6.807   0.362   2.306
11706TIP3    H159097   6.864   0.374   2.228
11706TIP3    H259098   6.874   0.352   2.377
11707TIP3   OH259099   6.607   1.531   2.213
11707TIP3    H159100   6.525   1.584   2.222
11707TIP3    H259101   6.661   1.585   2.154
11708TIP3   OH259102   6.554   0.496   2.415
11708TIP3    H159103   6.640   0.544   2.418
11708TIP3    H259104   6.535   0.474   2.507
11709TIP3   OH259105   6.631   0.606   3.316
11709TIP3    H159106   6.616   0.651   3.401
11709TIP3    H259107   6.681   0.528   3.343
11710TIP3   OH259108   6.633   0.197   2.502
11710TIP3    H159109   6.613   0.265   2.569
11710TIP3    H259110   6.713   0.240   2.464
11711TIP3   OH259111   6.348   1.633   2.217
11711TIP3    H159112   6.356   1.714   2.160
11711TIP3    H259113   6.321   1.671   2.304
11712TIP3   OH259114   6.209   0.304   2.170
11712TIP3    H159115   6.205   0.393   2.211
11712TIP3    H259116   6.301   0.282   2.197
11713TIP3   OH259117   7.235   0.384   3.419
11713TIP3    H159118   7.141   0.410   3.410
11713TIP3    H259119   7.260   0.375   3.326
11714TIP3   OH259120   7.096   0.759   2.815
11714TIP3    H159121   7.013   0.714   2.791
11714TIP3    H259122   7.143   0.690   2.866
11715TIP3   OH259123   6.035   1.349   2.077
11715TIP3    H159124   6.102   1.411   2.109
11715TIP3    H259125   6.087   1.302   2.009
11716TIP3   OH259126   5.869   0.617   1.992
11716TIP3    H159127   5.871   0.712   2.014
11716TIP3    H259128   5.780   0.600   1.960
11717TIP3   OH259129   7.202   1.682   2.985
11717TIP3    H159130   7.190   1.750   2.916
11717TIP3    H259131   7.297   1.688   3.001
11718TIP3   OH259132   5.935   0.122   2.853
11718TIP3    H159133   5.921   0.107   2.756
11718TIP3    H259134   5.918   0.032   2.887
11719TIP3   OH259135   5.847   1.487   2.482
11719TIP3    H159136   5.761   1.531   2.476
11719TIP3    H259137   5.893   1.532   2.410
11720TIP3   OH259138   6.650   1.596   1.910
11720TIP3    H159139   6.580   1.530   1.931
11720TIP3    H259140   6.721   1.536   1.885
11721TIP3   OH259141   7.105   1.570   1.928
11721TIP3    H159142   7.134   1.492   1.979
11721TIP3    H259143   7.181   1.591   1.873
11722TIP3   OH259144   6.191   1.162   1.907
11722TIP3    H159145   6.205   1.090   1.971
11722TIP3    H259146   6.272   1.152   1.854
11723TIP3   OH259147   6.736   1.276   1.888
11723TIP3    H159148   6.710   1.283   1.981
11723TIP3    H259149   6.718   1.180   1.873
11724TIP3   OH259150   6.313   0.967   2.154
11724TIP3    H159151   6.262   0.912   2.216
11724TIP3    H259152   6.344   0.900   2.089
11725TIP3   OH259153   6.422   0.789   1.973
11725TIP3    H159154   6.407   0.779   1.877
11725TIP3    H259155   6.519   0.793   1.980
11726TIP3   OH259156   7.352   1.020   1.914
11726TIP3    H159157   7.334   0.984   1.826
11726TIP3    H259158   7.362   1.117   1.896
11727TIP3   OH259159   6.321   0.316   3.245
11727TIP3    H159160   6.368   0.371   3.180
11727TIP3    H259161   6.231   0.312   3.206
11728TIP3   OH259162   6.477   0.874   3.268
11728TIP3    H159163   6.550   0.851   3.209
11728TIP3    H259164   6.435   0.951   3.229
11729TIP3   OH259165   6.404   1.859   2.082
11729TIP3    H159166   6.501   1.866   2.088
11729TIP3    H259167   6.390   1.918   2.007
11730TIP3   OH259168   5.758   1.315   2.029
11730TIP3    H159169   5.855   1.325   2.046
11730TIP3    H259170   5.763   1.252   1.953
11731TIP3   OH259171   5.638   1.854   2.523
11731TIP3    H159172   5.565   1.805   2.478
11731TIP3    H259173   5.665   1.789   2.591
11732TIP3   OH259174   5.719   1.667   2.711
11732TIP3    H159175   5.683   1.580   2.733
11732TIP3    H259176   5.742   1.700   2.799
11733TIP3   OH259177   7.478   1.740   3.009
11733TIP3    H159178   7.471   1.772   3.098
11733TIP3    H259179   7.539   1.805   2.970
11734TIP3   OH259180   7.408   1.113   2.308
11734TIP3    H159181   7.494   1.151   2.328
11734TIP3    H259182   7.405   1.042   2.376
11735TIP3   OH259183   7.440   0.922   2.499
11735TIP3    H159184   7.366   0.868   2.536
11735TIP3    H259185   7.504   0.929   2.572
11736TIP3   OH259186   7.425   1.202   2.994
11736TIP3    H159187   7.509   1.172   2.954
11736TIP3    H259188   7.435   1.298   2.976
11737TIP3   OH259189   7.271   1.476   3.222
11737TIP3    H159190   7.206   1.513   3.285
11737TIP3    H259191   7.214   1.441   3.152
11738TIP3   OH259192   7.474   0.902   2.137
11738TIP3    H159193   7.416   0.935   2.065
11738TIP3    H259194   7.462   0.973   2.203
11739TIP3   OH259195   7.312   0.625   1.988
11739TIP3    H159196   7.318   0.691   1.919
11739TIP3    H259197   7.291   0.543   1.940
11740TIP3   OH259198   7.226   0.766   2.559
11740TIP3    H159199   7.208   0.671   2.550
11740TIP3    H259200   7.190   0.785   2.647
11741TIP3   OH259201   5.727   0.978   2.963
11741TIP3    H159202   5.743   0.967   2.867
11741TIP3    H259203   5.814   0.956   3.002
11742TIP3   OH259204   7.234   0.375   1.907
11742TIP3    H159205   7.295   0.329   1.966
11742TIP3    H259206   7.149   0.328   1.917
11743TIP3   OH259207   7.190   0.531   2.395
11743TIP3    H159208   7.218   0.438   2.413
11743TIP3    H259209   7.274   0.568   2.365
11744TIP3   OH259210   7.255   0.584   2.942
11744TIP3    H159211   7.352   0.596   2.941
11744TIP3    H259212   7.238   0.588   3.039
11745TIP3   OH259213   7.256   0.652   3.207
11745TIP3    H159214   7.175   0.680   3.259
11745TIP3    H259215   7.306   0.735   3.202
11746TIP3   OH259216   7.259   0.257   2.401
11746TIP3    H159217   7.277   0.216   2.489
11746TIP3    H259218   7.194   0.195   2.364
11747TIP3   OH259219   5.801   0.342   2.867
11747TIP3    H159220   5.848   0.258   2.883
11747TIP3    H259221   5.864   0.407   2.900
11748TIP3   OH259222   5.633   0.633   2.962
11748TIP3    H159223   5.693   0.611   2.887
11748TIP3    H259224   5.679   0.712   2.996
11749TIP3   OH259225   7.444   0.256   2.068
11749TIP3    H159226   7.479   0.186   2.008
11749TIP3    H259227   7.512   0.325   2.065
11750TIP3   OH259228   5.672   0.259   2.376
11750TIP3    H159229   5.579   0.280   2.358
11750TIP3    H259230   5.716   0.307   2.303
11751TIP3   OH259231   7.144   1.758   2.567
11751TIP3    H159232   7.213   1.726   2.506
11751TIP3    H259233   7.196   1.806   2.633
11752TIP3   OH259234   5.665   0.134   3.191
11752TIP3    H159235   5.614   0.125   3.272
11752TIP3    H259236   5.616   0.204   3.144
11753TIP3   OH259237   6.184   1.542   3.245
11753TIP3    H159238   6.147   1.630   3.225
11753TIP3    H259239   6.275   1.557   3.215
11754TIP3   OH259240   7.326   0.128   3.299
11754TIP3    H159241   7.233   0.120   3.328
11754TIP3    H259242   7.355   0.037   3.315
11755TIP3   OH259243   6.165   1.826   3.149
11755TIP3    H159244   6.084   1.842   3.201
11755TIP3    H259245   6.167   1.888   3.074
11756TIP3   OH259246   6.651   1.820   3.069
11756TIP3    H159247   6.592   1.866   3.004
11756TIP3    H259248   6.648   1.883   3.143
11757TIP3   OH259249   6.872   1.699   3.166
11757TIP3    H159250   6.786   1.731   3.133
11757TIP3    H259251   6.917   1.785   3.164
11758TIP3   OH259252   7.136   1.856   3.195
11758TIP3    H159253   7.122   1.951   3.172
11758TIP3    H259254   7.149   1.818   3.107
11759TIP3   OH259255   5.872   1.738   2.939
11759TIP3    H159256   5.859   1.684   3.021
11759TIP3    H259257   5.952   1.695   2.901
11760TIP3   OH259258   6.073   1.606   2.808
11760TIP3    H159259   6.062   1.511   2.830
11760TIP3    H259260   6.162   1.623   2.851
11761TIP3   OH259261   6.322   1.645   2.895
11761TIP3    H159262   6.356   1.559   2.868
11761TIP3    H259263   6.344   1.652   2.988
11762TIP3   OH259264   6.680   0.226   2.810
11762TIP3    H159265   6.615   0.156   2.828
11762TIP3    H259266   6.739   0.178   2.751
11763TIP3   OH259267   7.203   0.048   2.828
11763TIP3    H159268   7.258   0.093   2.761
11763TIP3    H259269   7.111   0.058   2.795
11764TIP3   OH259270   7.366   0.154   2.640
11764TIP3    H159271   7.431   0.094   2.600
11764TIP3    H259272   7.414   0.239   2.649
11765TIP3   OH259273   5.915   0.080   2.592
11765TIP3    H159274   5.837   0.065   2.536
11765TIP3    H259275   5.963  -0.003   2.583
11766TIP3   OH259276   5.823   0.102   2.177
11766TIP3    H159277   5.843   0.153   2.097
11766TIP3    H259278   5.735   0.133   2.205
11767TIP3   OH259279   6.361   0.085   2.572
11767TIP3    H159280   6.454   0.113   2.559
11767TIP3    H259281   6.369   0.054   2.662
11768TIP3   OH259282   6.936   0.067   2.755
11768TIP3    H159283   6.933   0.094   2.660
11768TIP3    H259284   6.898  -0.020   2.749
11769TIP3   OH259285   7.044   0.087   2.240
11769TIP3    H159286   6.996   0.165   2.277
11769TIP3    H259287   7.023   0.045   2.323
11770TIP3   OH259288   5.788   1.652   2.269
11770TIP3    H159289   5.722   1.651   2.197
11770TIP3    H259290   5.788   1.748   2.284
11771TIP3   OH259291   5.976   0.255   2.011
11771TIP3    H159292   6.030   0.193   1.959
11771TIP3    H259293   6.042   0.280   2.079
11772TIP3   OH259294   6.478   0.279   2.257
11772TIP3    H159295   6.511   0.220   2.327
11772TIP3    H259296   6.494   0.365   2.302
11773TIP3   OH259297   6.676   1.785   2.100
11773TIP3    H159298   6.768   1.805   2.078
11773TIP3    H259299   6.654   1.732   2.021
11774TIP3   OH259300   7.345   1.733   2.372
11774TIP3    H159301   7.325   1.655   2.316
11774TIP3    H259302   7.337   1.807   2.308
11775TIP3   OH259303   5.967   1.751   1.962
11775TIP3    H159304   5.941   1.777   2.051
11775TIP3    H259305   6.045   1.695   1.977
11776TIP3   OH259306   7.828   0.894   3.095
11776TIP3    H159307   7.851   0.814   3.146
11776TIP3    H259308   7.911   0.944   3.102
11777TIP3   OH259309   7.904   1.323   2.936
11777TIP3    H159310   7.894   1.234   2.898
11777TIP3    H259311   8.002   1.324   2.940
11778TIP3   OH259312   7.586   0.690   2.480
11778TIP3    H159313   7.545   0.778   2.475
11778TIP3    H259314   7.530   0.636   2.425
11779TIP3   OH259315   7.664   0.915   2.700
11779TIP3    H159316   7.693   0.830   2.740
11779TIP3    H259317   7.734   0.922   2.631
11780TIP3   OH259318   7.715   0.650   2.803
11780TIP3    H159319   7.796   0.613   2.844
11780TIP3    H259320   7.745   0.632   2.711
11781TIP3   OH259321   7.939   0.305   3.128
11781TIP3    H159322   7.927   0.371   3.054
11781TIP3    H259323   7.878   0.337   3.197
11782TIP3   OH259324   7.900   0.484   2.932
11782TIP3    H159325   7.958   0.557   2.964
11782TIP3    H259326   7.953   0.457   2.854
11783TIP3   OH259327   8.020   1.296   3.190
11783TIP3    H159328   8.034   1.389   3.199
11783TIP3    H259329   7.956   1.275   3.263
11784TIP3   OH259330   7.666   1.234   2.317
11784TIP3    H159331   7.636   1.266   2.230
11784TIP3    H259332   7.667   1.316   2.369
11785TIP3   OH259333   7.982   0.915   2.368
11785TIP3    H159334   7.948   0.994   2.323
11785TIP3    H259335   7.916   0.846   2.354
11786TIP3   OH259336   7.596   1.149   3.254
11786TIP3    H159337   7.548   1.143   3.172
11786TIP3    H259338   7.598   1.059   3.289
11787TIP3   OH259339   7.571   1.429   2.947
11787TIP3    H159340   7.667   1.415   2.937
11787TIP3    H259341   7.562   1.513   2.991
11788TIP3   OH259342   7.884   1.703   2.559
11788TIP3    H159343   7.901   1.665   2.648
11788TIP3    H259344   7.798   1.662   2.540
11789TIP3   OH259345   7.820   1.281   3.364
11789TIP3    H159346   7.831   1.244   3.453
11789TIP3    H259347   7.734   1.241   3.337
11790TIP3   OH259348   7.859   0.662   3.256
11790TIP3    H159349   7.858   0.697   3.346
11790TIP3    H259350   7.825   0.572   3.265
11791TIP3   OH259351   7.526   0.368   2.644
11791TIP3    H159352   7.594   0.368   2.714
11791TIP3    H259353   7.574   0.331   2.568
11792TIP3   OH259354   7.649   0.440   2.185
11792TIP3    H159355   7.703   0.497   2.126
11792TIP3    H259356   7.580   0.505   2.211
11793TIP3   OH259357   7.818   0.552   2.544
11793TIP3    H159358   7.731   0.559   2.505
11793TIP3    H259359   7.856   0.467   2.520
11794TIP3   OH259360   7.925   0.281   2.477
11794TIP3    H159361   7.927   0.188   2.506
11794TIP3    H259362   8.020   0.298   2.475
11795TIP3   OH259363   7.906   1.066   2.840
11795TIP3    H159364   7.980   1.057   2.779
11795TIP3    H259365   7.917   0.981   2.887
11796TIP3   OH259366   7.732   0.894   2.043
11796TIP3    H159367   7.785   0.964   2.085
11796TIP3    H259368   7.640   0.922   2.064
11797TIP3   OH259369   7.775   0.382   3.338
11797TIP3    H159370   7.687   0.407   3.308
11797TIP3    H259371   7.764   0.290   3.365
11798TIP3   OH259372   7.865   1.089   2.187
11798TIP3    H159373   7.795   1.125   2.244
11798TIP3    H259374   7.917   1.169   2.169
11799TIP3   OH259375   7.917   1.350   2.071
11799TIP3    H159376   7.981   1.411   2.111
11799TIP3    H259377   7.978   1.306   2.011
11800TIP3   OH259378   7.756   0.615   1.998
11800TIP3    H159379   7.759   0.712   2.009
11800TIP3    H259380   7.670   0.599   1.960
11801TIP3   OH259381   7.814   0.125   2.851
11801TIP3    H159382   7.815   0.105   2.755
11801TIP3    H259383   7.803   0.035   2.888
11802TIP3   OH259384   7.726   1.487   2.480
11802TIP3    H159385   7.642   1.536   2.474
11802TIP3    H259386   7.779   1.531   2.413
11803TIP3   OH259387   7.647   1.317   2.027
11803TIP3    H159388   7.743   1.326   2.045
11803TIP3    H259389   7.651   1.252   1.953
11804TIP3   OH259390   7.522   1.852   2.525
11804TIP3    H159391   7.449   1.804   2.480
11804TIP3    H259392   7.552   1.788   2.592
11805TIP3   OH259393   7.605   1.665   2.710
11805TIP3    H159394   7.569   1.578   2.732
11805TIP3    H259395   7.631   1.700   2.797
11806TIP3   OH259396   7.606   0.974   2.959
11806TIP3    H159397   7.634   0.964   2.865
11806TIP3    H259398   7.696   0.959   3.000
11807TIP3   OH259399   7.681   0.342   2.868
11807TIP3    H159400   7.735   0.260   2.878
11807TIP3    H259401   7.749   0.407   2.894
11808TIP3   OH259402   7.516   0.636   2.964
11808TIP3    H159403   7.577   0.607   2.891
11808TIP3    H259404   7.571   0.710   2.993
11809TIP3   OH259405   7.552   0.257   2.374
11809TIP3    H159406   7.460   0.283   2.358
11809TIP3    H259407   7.599   0.308   2.304
11810TIP3   OH259408   7.563   0.138   3.209
11810TIP3    H159409   7.487   0.109   3.260
11810TIP3    H259410   7.515   0.195   3.145
11811TIP3   OH259411   8.023   1.794   3.120
11811TIP3    H159412   7.981   1.839   3.194
11811TIP3    H259413   8.062   1.874   3.080
11812TIP3   OH259414   7.747   1.735   2.945
11812TIP3    H159415   7.757   1.687   3.026
11812TIP3    H259416   7.829   1.703   2.899
11813TIP3   OH259417   7.942   1.604   2.825
11813TIP3    H159418   7.939   1.507   2.833
11813TIP3    H259419   8.033   1.617   2.855
11814TIP3   OH259420   7.795   0.074   2.593
11814TIP3    H159421   7.719   0.058   2.535
11814TIP3    H259422   7.852  -0.004   2.584
11815TIP3   OH259423   7.706   0.101   2.179
11815TIP3    H159424   7.727   0.154   2.100
11815TIP3    H259425   7.618   0.132   2.207
11816TIP3   OH259426   7.676   1.653   2.264
11816TIP3    H159427   7.605   1.651   2.196
11816TIP3    H259428   7.677   1.748   2.282
11817TIP3   OH259429   7.862   0.252   2.015
11817TIP3    H159430   7.918   0.195   1.958
11817TIP3    H259431   7.926   0.285   2.079
11818TIP3   OH259432   7.859   1.758   1.961
11818TIP3    H159433   7.829   1.781   2.051
11818TIP3    H259434   7.929   1.695   1.979
11819TIP3   OH259435   1.170   2.882   2.578
11819TIP3    H159436   1.170   2.980   2.574
11819TIP3    H259437   1.099   2.857   2.515
11820TIP3   OH259438   1.053   2.811   2.931
11820TIP3    H159439   1.059   2.743   3.001
11820TIP3    H259440   1.026   2.757   2.854
11821TIP3   OH259441   0.300   2.770   3.077
11821TIP3    H159442   0.299   2.703   3.148
11821TIP3    H259443   0.370   2.832   3.102
11822TIP3   OH259444   1.422   3.101   2.755
11822TIP3    H159445   1.386   3.029   2.808
11822TIP3    H259446   1.431   3.171   2.822
11823TIP3   OH259447   0.383   3.218   2.936
11823TIP3    H159448   0.352   3.132   2.900
11823TIP3    H259449   0.477   3.200   2.936
11824TIP3   OH259450   0.054   2.577   2.476
11824TIP3    H159451   0.009   2.663   2.478
11824TIP3    H259452  -0.010   2.522   2.431
11825TIP3   OH259453   0.121   2.799   2.698
11825TIP3    H159454   0.143   2.714   2.740
11825TIP3    H259455   0.189   2.805   2.630
11826TIP3   OH259456   1.134   3.615   2.780
11826TIP3    H159457   1.204   3.551   2.752
11826TIP3    H259458   1.121   3.588   2.871
11827TIP3   OH259459   0.899   3.062   2.977
11827TIP3    H159460   0.923   2.989   2.916
11827TIP3    H259461   0.979   3.055   3.032
11828TIP3   OH259462   1.759   2.214   3.051
11828TIP3    H159463   1.766   2.279   3.120
11828TIP3    H259464   1.810   2.255   2.980
11829TIP3   OH259465   1.209   2.494   3.003
11829TIP3    H159466   1.230   2.399   3.006
11829TIP3    H259467   1.199   2.508   2.907
11830TIP3   OH259468   0.523   2.303   2.727
11830TIP3    H159469   0.534   2.386   2.677
11830TIP3    H259470   0.485   2.245   2.658
11831TIP3   OH259471   1.299   2.308   2.560
11831TIP3    H159472   1.360   2.279   2.631
11831TIP3    H259473   1.355   2.372   2.514
11832TIP3   OH259474   0.195   2.545   2.799
11832TIP3    H159475   0.258   2.486   2.844
11832TIP3    H259476   0.199   2.511   2.708
11833TIP3   OH259477   0.699   2.699   2.735
11833TIP3    H159478   0.768   2.641   2.772
11833TIP3    H259479   0.651   2.634   2.678
11834TIP3   OH259480   0.416   2.198   3.127
11834TIP3    H159481   0.382   2.254   3.054
11834TIP3    H259482   0.349   2.207   3.198
11835TIP3   OH259483   1.131   3.139   2.487
11835TIP3    H159484   1.123   3.113   2.394
11835TIP3    H259485   1.119   3.236   2.490
11836TIP3   OH259486   1.474   2.245   2.764
11836TIP3    H159487   1.457   2.168   2.820
11836TIP3    H259488   1.543   2.290   2.816
11837TIP3   OH259489   0.371   2.379   2.930
11837TIP3    H159490   0.435   2.446   2.963
11837TIP3    H259491   0.426   2.338   2.858
11838TIP3   OH259492   0.519   3.164   3.231
11838TIP3    H159493   0.502   3.252   3.198
11838TIP3    H259494   0.432   3.149   3.276
11839TIP3   OH259495   0.109   3.121   2.312
11839TIP3    H159496   0.104   3.148   2.218
11839TIP3    H259497   0.154   3.196   2.357
11840TIP3   OH259498   1.478   3.289   2.987
11840TIP3    H159499   1.383   3.299   3.003
11840TIP3    H259500   1.506   3.381   2.975
11841TIP3   OH259501   1.509   2.116   3.134
11841TIP3    H159502   1.437   2.178   3.122
11841TIP3    H259503   1.582   2.157   3.086
11842TIP3   OH259504   0.807   1.927   2.876
11842TIP3    H159505   0.791   1.830   2.871
11842TIP3    H259506   0.720   1.957   2.911
11843TIP3   OH259507   1.301   3.464   2.647
11843TIP3    H159508   1.349   3.392   2.602
11843TIP3    H259509   1.350   3.543   2.614
11844TIP3   OH259510   1.422   3.258   2.503
11844TIP3    H159511   1.400   3.186   2.442
11844TIP3    H259512   1.429   3.208   2.587
11845TIP3   OH259513   1.597   3.116   3.357
11845TIP3    H159514   1.600   3.052   3.284
11845TIP3    H259515   1.609   3.200   3.311
11846TIP3   OH259516   1.042   2.816   2.334
11846TIP3    H159517   0.967   2.857   2.289
11846TIP3    H259518   1.108   2.813   2.262
11847TIP3   OH259519   1.061   2.672   2.025
11847TIP3    H159520   1.119   2.658   2.100
11847TIP3    H259521   1.074   2.590   1.976
11848TIP3   OH259522   1.381   2.827   2.421
11848TIP3    H159523   1.307   2.851   2.482
11848TIP3    H259524   1.430   2.761   2.473
11849TIP3   OH259525   0.550   2.894   2.609
11849TIP3    H159526   0.510   2.851   2.529
11849TIP3    H259527   0.605   2.820   2.645
11850TIP3   OH259528   0.683   3.232   2.885
11850TIP3    H159529   0.664   3.185   2.802
11850TIP3    H259530   0.757   3.178   2.914
11851TIP3   OH259531   0.577   2.770   2.980
11851TIP3    H159532   0.629   2.774   2.895
11851TIP3    H259533   0.619   2.836   3.035
11852TIP3   OH259534   1.207   3.317   3.053
11852TIP3    H159535   1.196   3.387   3.119
11852TIP3    H259536   1.198   3.235   3.103
11853TIP3   OH259537   1.273   2.746   2.188
11853TIP3    H159538   1.328   2.767   2.268
11853TIP3    H259539   1.315   2.796   2.115
11854TIP3   OH259540   1.023   3.416   2.540
11854TIP3    H159541   1.086   3.445   2.609
11854TIP3    H259542   0.990   3.503   2.512
11855TIP3   OH259543   1.640   1.919   2.176
11855TIP3    H159544   1.547   1.930   2.205
11855TIP3    H259545   1.670   2.004   2.141
11856TIP3   OH259546   0.441   2.795   2.380
11856TIP3    H159547   0.415   2.870   2.322
11856TIP3    H259548   0.379   2.727   2.353
11857TIP3   OH259549   1.754   3.355   2.013
11857TIP3    H159550   1.772   3.449   2.030
11857TIP3    H259551   1.846   3.323   2.014
11858TIP3   OH259552   0.042   3.042   3.260
11858TIP3    H159553   0.009   3.028   3.170
11858TIP3    H259554   0.052   2.947   3.287
11859TIP3   OH259555   0.052   3.332   2.929
11859TIP3    H159556   0.142   3.302   2.947
11859TIP3    H259557   0.030   3.392   3.000
11860TIP3   OH259558   0.990   3.709   2.374
11860TIP3    H159559   0.980   3.705   2.277
11860TIP3    H259560   0.990   3.806   2.392
11861TIP3   OH259561   0.358   3.595   2.556
11861TIP3    H159562   0.369   3.559   2.647
11861TIP3    H259563   0.272   3.557   2.534
11862TIP3   OH259564   1.296   3.632   2.072
11862TIP3    H159565   1.342   3.556   2.030
11862TIP3    H259566   1.298   3.606   2.167
11863TIP3   OH259567   1.265   3.624   2.351
11863TIP3    H159568   1.169   3.635   2.369
11863TIP3    H259569   1.289   3.552   2.410
11864TIP3   OH259570   0.275   3.176   3.364
11864TIP3    H159571   0.297   3.136   3.450
11864TIP3    H259572   0.192   3.132   3.338
11865TIP3   OH259573   0.545   2.019   2.954
11865TIP3    H159574   0.454   2.005   2.918
11865TIP3    H259575   0.532   2.101   3.003
11866TIP3   OH259576   1.415   2.852   1.971
11866TIP3    H159577   1.412   2.833   1.874
11866TIP3    H259578   1.501   2.895   1.975
11867TIP3   OH259579   0.982   2.236   2.021
11867TIP3    H159580   0.941   2.239   2.110
11867TIP3    H259581   0.940   2.153   1.990
11868TIP3   OH259582   0.553   2.514   3.077
11868TIP3    H159583   0.480   2.511   3.141
11868TIP3    H259584   0.549   2.606   3.042
11869TIP3   OH259585   0.552   2.528   2.569
11869TIP3    H159586   0.459   2.503   2.552
11869TIP3    H259587   0.590   2.498   2.483
11870TIP3   OH259588   1.104   2.579   2.442
11870TIP3    H159589   1.062   2.659   2.402
11870TIP3    H259590   1.171   2.559   2.375
11871TIP3   OH259591   1.208   2.526   2.725
11871TIP3    H159592   1.179   2.582   2.652
11871TIP3    H259593   1.217   2.441   2.679
11872TIP3   OH259594   0.324   2.546   3.251
11872TIP3    H159595   0.316   2.579   3.342
11872TIP3    H259596   0.272   2.464   3.259
11873TIP3   OH259597   0.654   2.276   1.928
11873TIP3    H159598   0.611   2.238   2.008
11873TIP3    H259599   0.581   2.319   1.883
11874TIP3   OH259600   0.014   2.281   2.653
11874TIP3    H159601   0.065   2.246   2.729
11874TIP3    H259602   0.025   2.213   2.588
11875TIP3   OH259603   0.112   2.336   2.188
11875TIP3    H159604   0.163   2.384   2.119
11875TIP3    H259605   0.040   2.395   2.208
11876TIP3   OH259606   1.111   2.687   3.177
11876TIP3    H159607   1.165   2.623   3.127
11876TIP3    H259608   1.084   2.629   3.250
11877TIP3   OH259609   0.807   2.281   2.669
11877TIP3    H159610   0.712   2.282   2.697
11877TIP3    H259611   0.856   2.264   2.750
11878TIP3   OH259612   0.293   2.434   2.552
11878TIP3    H159613   0.205   2.453   2.514
11878TIP3    H259614   0.313   2.348   2.513
11879TIP3   OH259615   0.640   2.428   2.343
11879TIP3    H159616   0.737   2.443   2.335
11879TIP3    H259617   0.626   2.492   2.267
11880TIP3   OH259618   1.251   2.210   2.992
11880TIP3    H159619   1.181   2.211   3.061
11880TIP3    H259620   1.201   2.179   2.914
11881TIP3   OH259621   0.483   2.572   2.057
11881TIP3    H159622   0.456   2.514   1.985
11881TIP3    H259623   0.580   2.575   2.044
11882TIP3   OH259624   0.933   2.554   2.852
11882TIP3    H159625   0.998   2.504   2.801
11882TIP3    H259626   0.924   2.500   2.932
11883TIP3   OH259627   0.442   2.172   2.501
11883TIP3    H159628   0.405   2.081   2.496
11883TIP3    H259629   0.517   2.165   2.440
11884TIP3   OH259630   0.801   2.389   3.094
11884TIP3    H159631   0.720   2.441   3.102
11884TIP3    H259632   0.856   2.420   3.169
11885TIP3   OH259633   0.852   3.021   2.269
11885TIP3    H159634   0.782   2.962   2.229
11885TIP3    H259635   0.834   3.010   2.364
11886TIP3   OH259636   1.570   2.941   3.149
11886TIP3    H159637   1.635   2.979   3.087
11886TIP3    H259638   1.490   2.935   3.095
11887TIP3   OH259639   1.245   2.292   2.081
11887TIP3    H159640   1.148   2.305   2.071
11887TIP3    H259641   1.272   2.379   2.120
11888TIP3   OH259642   1.318   2.483   2.239
11888TIP3    H159643   1.402   2.477   2.289
11888TIP3    H259644   1.322   2.570   2.197
11889TIP3   OH259645   0.373   2.954   2.846
11889TIP3    H159646   0.434   2.942   2.771
11889TIP3    H259647   0.375   2.867   2.888
11890TIP3   OH259648   1.069   3.159   2.175
11890TIP3    H159649   1.033   3.245   2.202
11890TIP3    H259650   0.995   3.095   2.188
11891TIP3   OH259651   0.083   2.783   3.358
11891TIP3    H159652   0.090   2.754   3.451
11891TIP3    H259653   0.005   2.733   3.332
11892TIP3   OH259654   1.787   2.498   2.228
11892TIP3    H159655   1.748   2.472   2.143
11892TIP3    H259656   1.817   2.589   2.204
11893TIP3   OH259657   1.629   3.382   2.262
11893TIP3    H159658   1.598   3.298   2.298
11893TIP3    H259659   1.667   3.359   2.175
11894TIP3   OH259660   1.353   2.867   2.970
11894TIP3    H159661   1.259   2.843   2.968
11894TIP3    H259662   1.397   2.788   2.934
11895TIP3   OH259663   0.615   3.298   2.579
11895TIP3    H159664   0.647   3.389   2.570
11895TIP3    H259665   0.521   3.315   2.556
11896TIP3   OH259666   0.185   2.778   2.043
11896TIP3    H159667   0.248   2.841   2.082
11896TIP3    H259668   0.099   2.812   2.071
11897TIP3   OH259669   0.749   3.071   2.533
11897TIP3    H159670   0.702   3.153   2.554
11897TIP3    H259671   0.684   3.008   2.574
11898TIP3   OH259672   0.804   3.478   3.168
11898TIP3    H159673   0.841   3.567   3.150
11898TIP3    H259674   0.851   3.458   3.251
11899TIP3   OH259675   0.619   3.559   2.490
11899TIP3    H159676   0.522   3.575   2.501
11899TIP3    H259677   0.652   3.646   2.522
11900TIP3   OH259678   1.380   3.191   2.048
11900TIP3    H159679   1.409   3.142   2.128
11900TIP3    H259680   1.286   3.171   2.055
11901TIP3   OH259681   1.826   3.625   2.074
11901TIP3    H159682   1.894   3.691   2.053
11901TIP3    H259683   1.754   3.685   2.102
11902TIP3   OH259684   1.456   3.053   2.273
11902TIP3    H159685   1.433   2.974   2.326
11902TIP3    H259686   1.552   3.057   2.289
11903TIP3   OH259687   0.795   3.299   1.901
11903TIP3    H159688   0.802   3.224   1.839
11903TIP3    H259689   0.746   3.254   1.972
11904TIP3   OH259690   0.670   3.252   2.144
11904TIP3    H159691   0.694   3.195   2.217
11904TIP3    H259692   0.678   3.345   2.175
11905TIP3   OH259693   0.324   2.973   2.192
11905TIP3    H159694   0.254   3.011   2.246
11905TIP3    H259695   0.372   3.051   2.159
11906TIP3   OH259696   1.108   2.240   3.218
11906TIP3    H159697   1.174   2.247   3.288
11906TIP3    H259698   1.066   2.157   3.243
11907TIP3   OH259699   1.192   2.192   2.329
11907TIP3    H159700   1.199   2.250   2.251
11907TIP3    H259701   1.236   2.243   2.398
11908TIP3   OH259702   0.947   3.415   2.220
11908TIP3    H159703   0.867   3.473   2.215
11908TIP3    H259704   1.003   3.466   2.158
11909TIP3   OH259705   0.908   2.372   2.415
11909TIP3    H159706   0.983   2.434   2.419
11909TIP3    H259707   0.877   2.364   2.507
11910TIP3   OH259708   0.963   2.487   3.322
11910TIP3    H159709   0.972   2.531   3.406
11910TIP3    H259710   1.015   2.405   3.338
11911TIP3   OH259711   0.989   2.080   2.500
11911TIP3    H159712   0.956   2.145   2.564
11911TIP3    H259713   1.060   2.133   2.458
11912TIP3   OH259714   0.695   3.517   2.221
11912TIP3    H159715   0.698   3.596   2.160
11912TIP3    H259716   0.660   3.559   2.302
11913TIP3   OH259717   0.557   2.195   2.172
11913TIP3    H159718   0.552   2.283   2.212
11913TIP3    H259719   0.646   2.166   2.200
11914TIP3   OH259720   1.439   2.641   2.813
11914TIP3    H159721   1.354   2.598   2.792
11914TIP3    H259722   1.486   2.576   2.870
11915TIP3   OH259723   0.379   3.233   2.080
11915TIP3    H159724   0.446   3.298   2.105
11915TIP3    H259725   0.429   3.185   2.010
11916TIP3   OH259726   0.210   2.501   1.988
11916TIP3    H159727   0.214   2.595   2.013
11916TIP3    H259728   0.120   2.487   1.958
11917TIP3   OH259729   1.543   3.570   2.985
11917TIP3    H159730   1.535   3.637   2.915
11917TIP3    H259731   1.639   3.573   3.001
11918TIP3   OH259732   0.292   1.984   2.860
11918TIP3    H159733   0.271   1.980   2.764
11918TIP3    H259734   0.256   1.898   2.891
11919TIP3   OH259735   0.177   3.359   2.468
11919TIP3    H159736   0.112   3.429   2.482
11919TIP3    H259737   0.240   3.414   2.417
11920TIP3   OH259738   0.993   3.482   1.912
11920TIP3    H159739   0.922   3.416   1.928
11920TIP3    H259740   1.064   3.422   1.885
11921TIP3   OH259741   1.448   3.455   1.928
11921TIP3    H159742   1.477   3.378   1.979
11921TIP3    H259743   1.524   3.477   1.873
11922TIP3   OH259744   0.536   3.050   1.909
11922TIP3    H159745   0.551   2.974   1.968
11922TIP3    H259746   0.613   3.038   1.849
11923TIP3   OH259747   1.081   3.160   1.886
11923TIP3    H159748   1.054   3.168   1.979
11923TIP3    H259749   1.061   3.064   1.871
11924TIP3   OH259750   0.656   2.858   2.157
11924TIP3    H159751   0.610   2.795   2.215
11924TIP3    H259752   0.694   2.792   2.095
11925TIP3   OH259753   0.803   2.736   1.919
11925TIP3    H159754   0.747   2.666   1.883
11925TIP3    H259755   0.856   2.684   1.985
11926TIP3   OH259756   1.696   2.905   1.914
11926TIP3    H159757   1.678   2.867   1.826
11926TIP3    H259758   1.706   3.001   1.895
11927TIP3   OH259759   0.664   2.210   3.247
11927TIP3    H159760   0.714   2.255   3.177
11927TIP3    H259761   0.575   2.197   3.207
11928TIP3   OH259762   0.819   2.764   3.266
11928TIP3    H159763   0.894   2.733   3.211
11928TIP3    H259764   0.795   2.846   3.228
11929TIP3   OH259765   0.749   1.955   3.273
11929TIP3    H159766   0.725   2.049   3.279
11929TIP3    H259767   0.665   1.919   3.242
11930TIP3   OH259768   0.748   3.742   2.083
11930TIP3    H159769   0.844   3.753   2.088
11930TIP3    H259770   0.733   3.801   2.008
11931TIP3   OH259771   0.107   3.197   2.034
11931TIP3    H159772   0.205   3.212   2.044
11931TIP3    H259773   0.110   3.136   1.957
11932TIP3   OH259774  -0.002   3.752   2.515
11932TIP3    H159775  -0.083   3.707   2.485
11932TIP3    H259776   0.014   3.690   2.589
11933TIP3   OH259777   0.086   3.555   2.700
11933TIP3    H159778   0.036   3.474   2.720
11933TIP3    H259779   0.096   3.592   2.790
11934TIP3   OH259780   1.818   3.634   3.005
11934TIP3    H159781   1.822   3.650   3.099
11934TIP3    H259782   1.888   3.691   2.973
11935TIP3   OH259783   1.750   3.001   2.309
11935TIP3    H159784   1.838   3.036   2.327
11935TIP3    H259785   1.748   2.927   2.375
11936TIP3   OH259786   1.778   2.823   2.504
11936TIP3    H159787   1.714   2.755   2.536
11936TIP3    H259788   1.847   2.817   2.573
11937TIP3   OH259789   1.758   3.077   2.998
11937TIP3    H159790   1.840   3.034   2.964
11937TIP3    H259791   1.776   3.170   2.978
11938TIP3   OH259792   1.616   3.367   3.226
11938TIP3    H159793   1.544   3.393   3.284
11938TIP3    H259794   1.568   3.322   3.154
11939TIP3   OH259795   1.818   2.789   2.136
11939TIP3    H159796   1.758   2.820   2.065
11939TIP3    H259797   1.806   2.858   2.203
11940TIP3   OH259798   1.648   2.510   1.986
11940TIP3    H159799   1.664   2.581   1.923
11940TIP3    H259800   1.642   2.431   1.930
11941TIP3   OH259801   1.562   2.654   2.554
11941TIP3    H159802   1.556   2.557   2.550
11941TIP3    H259803   1.536   2.673   2.646
11942TIP3   OH259804   0.069   2.858   2.963
11942TIP3    H159805   0.086   2.855   2.867
11942TIP3    H259806   0.158   2.844   2.999
11943TIP3   OH259807   1.595   2.283   1.874
11943TIP3    H159808   1.659   2.233   1.928
11943TIP3    H259809   1.509   2.238   1.864
11944TIP3   OH259810   1.532   2.408   2.392
11944TIP3    H159811   1.567   2.319   2.417
11944TIP3    H259812   1.615   2.453   2.369
11945TIP3   OH259813   1.600   2.462   2.948
11945TIP3    H159814   1.694   2.491   2.944
11945TIP3    H259815   1.578   2.479   3.040
11946TIP3   OH259816   1.603   2.138   2.402
11946TIP3    H159817   1.625   2.099   2.491
11946TIP3    H259818   1.542   2.071   2.365
11947TIP3   OH259819   0.152   2.219   2.869
11947TIP3    H159820   0.200   2.137   2.892
11947TIP3    H259821   0.207   2.289   2.906
11948TIP3   OH259822   0.002   2.528   2.977
11948TIP3    H159823   0.045   2.504   2.892
11948TIP3    H259824   0.034   2.618   2.989
11949TIP3   OH259825   1.776   2.145   2.058
11949TIP3    H159826   1.827   2.075   2.011
11949TIP3    H259827   1.850   2.209   2.072
11950TIP3   OH259828   0.037   2.128   2.324
11950TIP3    H159829  -0.057   2.153   2.339
11950TIP3    H259830   0.075   2.208   2.281
11951TIP3   OH259831   1.489   3.641   2.569
11951TIP3    H159832   1.557   3.612   2.506
11951TIP3    H259833   1.541   3.692   2.633
11952TIP3   OH259834   0.027   2.025   3.217
11952TIP3    H159835  -0.044   1.999   3.275
11952TIP3    H259836  -0.024   2.087   3.160
11953TIP3   OH259837   0.975   3.699   3.071
11953TIP3    H159838   0.941   3.760   3.003
11953TIP3    H259839   0.998   3.767   3.141
11954TIP3   OH259840   1.210   3.584   3.170
11954TIP3    H159841   1.126   3.618   3.135
11954TIP3    H259842   1.261   3.666   3.162
11955TIP3   OH259843   1.476   3.745   3.201
11955TIP3    H159844   1.467   3.840   3.174
11955TIP3    H259845   1.491   3.706   3.112
11956TIP3   OH259846   0.218   3.625   2.938
11956TIP3    H159847   0.202   3.579   3.021
11956TIP3    H259848   0.295   3.581   2.897
11957TIP3   OH259849   0.419   3.489   2.809
11957TIP3    H159850   0.403   3.395   2.830
11957TIP3    H259851   0.506   3.507   2.850
11958TIP3   OH259852   0.673   3.540   2.893
11958TIP3    H159853   0.694   3.451   2.863
11958TIP3    H259854   0.691   3.537   2.988
11959TIP3   OH259855   1.026   2.105   2.808
11959TIP3    H159856   0.958   2.042   2.835
11959TIP3    H259857   1.080   2.052   2.748
11960TIP3   OH259858   1.542   1.909   2.813
11960TIP3    H159859   1.602   1.970   2.764
11960TIP3    H259860   1.453   1.946   2.793
11961TIP3   OH259861   1.705   2.034   2.641
11961TIP3    H159862   1.775   1.978   2.601
11961TIP3    H259863   1.756   2.118   2.652
11962TIP3   OH259864   0.266   1.967   2.591
11962TIP3    H159865   0.187   1.948   2.536
11962TIP3    H259866   0.313   1.881   2.583
11963TIP3   OH259867   0.132   1.940   2.159
11963TIP3    H159868   0.194   2.000   2.112
11963TIP3    H259869   0.090   2.002   2.222
11964TIP3   OH259870   0.710   1.960   2.572
11964TIP3    H159871   0.799   1.996   2.563
11964TIP3    H259872   0.707   1.940   2.666
11965TIP3   OH259873   1.283   1.962   2.732
11965TIP3    H159874   1.276   1.973   2.637
11965TIP3    H259875   1.244   1.872   2.745
11966TIP3   OH259876   1.407   1.967   2.296
11966TIP3    H159877   1.328   2.024   2.291
11966TIP3    H259878   1.368   1.882   2.327
11967TIP3   OH259879   0.123   3.544   2.273
11967TIP3    H159880   0.074   3.543   2.190
11967TIP3    H259881   0.132   3.640   2.282
11968TIP3   OH259882   0.326   2.165   2.008
11968TIP3    H159883   0.364   2.080   1.975
11968TIP3    H259884   0.392   2.171   2.080
11969TIP3   OH259885   0.830   2.162   2.253
11969TIP3    H159886   0.849   2.105   2.329
11969TIP3    H259887   0.832   2.248   2.299
11970TIP3   OH259888   1.019   3.666   2.102
11970TIP3    H159889   1.110   3.691   2.079
11970TIP3    H259890   0.997   3.618   2.020
11971TIP3   OH259891   1.688   3.618   2.373
11971TIP3    H159892   1.669   3.540   2.316
11971TIP3    H259893   1.681   3.692   2.308
11972TIP3   OH259894   0.307   3.631   1.959
11972TIP3    H159895   0.287   3.663   2.048
11972TIP3    H259896   0.391   3.582   1.973
11973TIP3   OH259897   3.059   2.883   2.575
11973TIP3    H159898   3.056   2.981   2.576
11973TIP3    H259899   2.985   2.860   2.516
11974TIP3   OH259900   2.945   2.805   2.928
11974TIP3    H159901   2.940   2.740   2.999
11974TIP3    H259902   2.909   2.756   2.853
11975TIP3   OH259903   2.143   2.771   3.089
11975TIP3    H159904   2.153   2.707   3.163
11975TIP3    H259905   2.185   2.855   3.112
11976TIP3   OH259906   3.308   3.103   2.752
11976TIP3    H159907   3.270   3.032   2.804
11976TIP3    H259908   3.315   3.173   2.821
11977TIP3   OH259909   2.269   3.220   2.931
11977TIP3    H159910   2.241   3.131   2.902
11977TIP3    H259911   2.366   3.207   2.937
11978TIP3   OH259912   1.895   2.584   2.524
11978TIP3    H159913   1.892   2.669   2.478
11978TIP3    H259914   1.894   2.527   2.444
11979TIP3   OH259915   2.012   2.801   2.701
11979TIP3    H159916   2.031   2.712   2.737
11979TIP3    H259917   2.071   2.806   2.625
11980TIP3   OH259918   3.023   3.618   2.780
11980TIP3    H159919   3.088   3.549   2.750
11980TIP3    H259920   3.001   3.583   2.866
11981TIP3   OH259921   2.778   3.041   2.977
11981TIP3    H159922   2.817   2.987   2.907
11981TIP3    H259923   2.859   3.066   3.024
11982TIP3   OH259924   3.642   2.212   3.050
11982TIP3    H159925   3.657   2.273   3.124
11982TIP3    H259926   3.696   2.254   2.981
11983TIP3   OH259927   3.094   2.493   3.008
11983TIP3    H159928   3.116   2.399   3.006
11983TIP3    H259929   3.086   2.509   2.912
11984TIP3   OH259930   2.409   2.303   2.728
11984TIP3    H159931   2.419   2.385   2.677
11984TIP3    H259932   2.368   2.246   2.659
11985TIP3   OH259933   3.182   2.310   2.565
11985TIP3    H159934   3.246   2.279   2.632
11985TIP3    H259935   3.238   2.369   2.513
11986TIP3   OH259936   2.074   2.548   2.805
11986TIP3    H159937   2.137   2.485   2.844
11986TIP3    H259938   2.079   2.515   2.712
11987TIP3   OH259939   2.584   2.698   2.734
11987TIP3    H159940   2.656   2.641   2.768
11987TIP3    H259941   2.536   2.634   2.678
11988TIP3   OH259942   3.690   2.362   3.273
11988TIP3    H159943   3.617   2.428   3.263
11988TIP3    H259944   3.681   2.335   3.366
11989TIP3   OH259945   2.291   2.191   3.126
11989TIP3    H159946   2.270   2.253   3.053
11989TIP3    H259947   2.232   2.221   3.198
11990TIP3   OH259948   3.027   3.141   2.486
11990TIP3    H159949   3.002   3.114   2.396
11990TIP3    H259950   2.997   3.234   2.491
11991TIP3   OH259951   3.363   2.246   2.765
11991TIP3    H159952   3.341   2.169   2.818
11991TIP3    H259953   3.431   2.289   2.820
11992TIP3   OH259954   2.253   2.381   2.932
11992TIP3    H159955   2.320   2.443   2.965
11992TIP3    H259956   2.304   2.335   2.861
11993TIP3   OH259957   2.004   3.117   2.315
11993TIP3    H159958   1.979   3.153   2.228
11993TIP3    H259959   2.011   3.200   2.367
11994TIP3   OH259960   3.359   3.285   2.982
11994TIP3    H159961   3.265   3.299   3.006
11994TIP3    H259962   3.390   3.378   2.975
11995TIP3   OH259963   3.391   2.116   3.133
11995TIP3    H159964   3.322   2.183   3.118
11995TIP3    H259965   3.466   2.155   3.085
11996TIP3   OH259966   2.694   1.927   2.876
11996TIP3    H159967   2.678   1.831   2.871
11996TIP3    H259968   2.607   1.958   2.908
11997TIP3   OH259969   3.190   3.465   2.650
11997TIP3    H159970   3.234   3.393   2.601
11997TIP3    H259971   3.238   3.543   2.614
11998TIP3   OH259972   3.307   3.256   2.502
11998TIP3    H159973   3.280   3.185   2.442
11998TIP3    H259974   3.315   3.208   2.586
11999TIP3   OH259975   2.922   2.805   2.329
11999TIP3    H159976   2.854   2.864   2.292
11999TIP3    H259977   2.994   2.815   2.263
12000TIP3   OH259978   2.930   2.663   2.031
12000TIP3    H159979   3.003   2.662   2.094
12000TIP3    H259980   2.960   2.592   1.974
12001TIP3   OH259981   3.664   2.747   3.162
12001TIP3    H159982   3.598   2.821   3.167
12001TIP3    H259983   3.708   2.775   3.079
12002TIP3   OH259984   3.270   2.826   2.421
12002TIP3    H159985   3.195   2.851   2.480
12002TIP3    H259986   3.317   2.759   2.474
12003TIP3   OH259987   3.254   2.640   3.333
12003TIP3    H159988   3.270   2.723   3.380
12003TIP3    H259989   3.197   2.670   3.259
12004TIP3   OH259990   2.427   2.892   2.615
12004TIP3    H159991   2.395   2.853   2.530
12004TIP3    H259992   2.491   2.824   2.645
12005TIP3   OH259993   2.558   3.228   2.880
12005TIP3    H159994   2.563   3.179   2.797
12005TIP3    H259995   2.638   3.197   2.926
12006TIP3   OH259996   2.479   2.771   2.971
12006TIP3    H159997   2.526   2.778   2.884
12006TIP3    H259998   2.523   2.841   3.019
12007TIP3   OH259999   3.105   3.325   3.053
12007TIP3    H160000   3.072   3.390   3.117
12007TIP3    H260001   3.077   3.240   3.092
12008TIP3   OH260002   3.155   2.750   2.189
12008TIP3    H160003   3.212   2.766   2.269
12008TIP3    H260004   3.201   2.797   2.116
12009TIP3   OH260005   2.252   2.833   3.351
12009TIP3    H160006   2.258   2.886   3.433
12009TIP3    H260007   2.154   2.838   3.343
12010TIP3   OH260008   2.927   3.419   2.535
12010TIP3    H160009   2.970   3.450   2.615
12010TIP3    H260010   2.872   3.494   2.510
12011TIP3   OH260011   3.529   1.919   2.177
12011TIP3    H160012   3.434   1.930   2.201
12011TIP3    H260013   3.549   2.004   2.134
12012TIP3   OH260014   2.324   2.794   2.377
12012TIP3    H160015   2.295   2.870   2.324
12012TIP3    H260016   2.261   2.725   2.350
12013TIP3   OH260017   3.639   3.356   2.012
12013TIP3    H160018   3.657   3.450   2.029
12013TIP3    H260019   3.731   3.323   2.014
12014TIP3   OH260020   1.947   3.031   3.250
12014TIP3    H160021   1.885   3.030   3.175
12014TIP3    H260022   1.934   2.944   3.290
12015TIP3   OH260023   1.914   3.315   2.940
12015TIP3    H160024   2.009   3.298   2.942
12015TIP3    H260025   1.903   3.392   2.997
12016TIP3   OH260026   2.833   3.343   3.393
12016TIP3    H160027   2.839   3.417   3.456
12016TIP3    H260028   2.747   3.306   3.416
12017TIP3   OH260029   2.875   3.709   2.375
12017TIP3    H160030   2.864   3.702   2.279
12017TIP3    H260031   2.875   3.806   2.392
12018TIP3   OH260032   2.239   3.598   2.559
12018TIP3    H160033   2.254   3.557   2.647
12018TIP3    H260034   2.154   3.557   2.535
12019TIP3   OH260035   3.181   3.631   2.074
12019TIP3    H160036   3.227   3.555   2.031
12019TIP3    H260037   3.185   3.606   2.169
12020TIP3   OH260038   3.149   3.625   2.351
12020TIP3    H160039   3.053   3.632   2.368
12020TIP3    H260040   3.173   3.551   2.409
12021TIP3   OH260041   2.431   2.018   2.951
12021TIP3    H160042   2.340   2.006   2.915
12021TIP3    H260043   2.420   2.101   3.001
12022TIP3   OH260044   3.205   2.362   3.376
12022TIP3    H160045   3.175   2.357   3.467
12022TIP3    H260046   3.214   2.458   3.359
12023TIP3   OH260047   3.301   2.850   1.971
12023TIP3    H160048   3.298   2.830   1.874
12023TIP3    H260049   3.386   2.896   1.974
12024TIP3   OH260050   2.860   2.243   2.020
12024TIP3    H160051   2.828   2.236   2.112
12024TIP3    H260052   2.829   2.155   1.989
12025TIP3   OH260053   2.440   2.513   3.075
12025TIP3    H160054   2.371   2.509   3.144
12025TIP3    H260055   2.443   2.601   3.034
12026TIP3   OH260056   2.440   2.524   2.566
12026TIP3    H160057   2.346   2.503   2.553
12026TIP3    H260058   2.476   2.498   2.480
12027TIP3   OH260059   2.990   2.577   2.443
12027TIP3    H160060   2.951   2.659   2.405
12027TIP3    H260061   3.058   2.558   2.376
12028TIP3   OH260062   3.094   2.526   2.727
12028TIP3    H160063   3.065   2.582   2.653
12028TIP3    H260064   3.103   2.441   2.680
12029TIP3   OH260065   2.206   2.548   3.246
12029TIP3    H160066   2.213   2.581   3.338
12029TIP3    H260067   2.166   2.461   3.265
12030TIP3   OH260068   2.540   2.278   1.932
12030TIP3    H160069   2.493   2.238   2.009
12030TIP3    H260070   2.469   2.322   1.883
12031TIP3   OH260071   1.868   2.244   2.643
12031TIP3    H160072   1.939   2.248   2.710
12031TIP3    H260073   1.916   2.216   2.564
12032TIP3   OH260074   1.972   2.310   2.148
12032TIP3    H160075   2.048   2.369   2.127
12032TIP3    H260076   1.935   2.374   2.213
12033TIP3   OH260077   3.015   2.684   3.187
12033TIP3    H160078   3.049   2.617   3.124
12033TIP3    H260079   2.962   2.626   3.247
12034TIP3   OH260080   2.693   2.283   2.666
12034TIP3    H160081   2.599   2.282   2.695
12034TIP3    H260082   2.741   2.263   2.748
12035TIP3   OH260083   2.170   2.420   2.578
12035TIP3    H160084   2.103   2.458   2.516
12035TIP3    H260085   2.207   2.357   2.514
12036TIP3   OH260086   2.539   2.440   2.314
12036TIP3    H160087   2.633   2.454   2.330
12036TIP3    H260088   2.512   2.509   2.251
12037TIP3   OH260089   3.135   2.204   2.991
12037TIP3    H160090   3.064   2.213   3.058
12037TIP3    H260091   3.085   2.179   2.911
12038TIP3   OH260092   2.413   2.558   2.073
12038TIP3    H160093   2.356   2.521   2.003
12038TIP3    H260094   2.493   2.580   2.024
12039TIP3   OH260095   2.817   2.558   2.857
12039TIP3    H160096   2.878   2.507   2.802
12039TIP3    H260097   2.808   2.500   2.934
12040TIP3   OH260098   2.326   2.169   2.502
12040TIP3    H160099   2.291   2.078   2.496
12040TIP3    H260100   2.401   2.165   2.442
12041TIP3   OH260101   2.687   2.391   3.096
12041TIP3    H160102   2.603   2.439   3.107
12041TIP3    H260103   2.741   2.421   3.170
12042TIP3   OH260104   2.745   3.011   2.267
12042TIP3    H160105   2.664   2.966   2.232
12042TIP3    H260106   2.721   3.025   2.360
12043TIP3   OH260107   3.463   2.918   3.137
12043TIP3    H160108   3.520   2.982   3.090
12043TIP3    H260109   3.378   2.937   3.095
12044TIP3   OH260110   3.126   2.293   2.084
12044TIP3    H160111   3.031   2.309   2.069
12044TIP3    H260112   3.161   2.378   2.119
12045TIP3   OH260113   3.199   2.487   2.249
12045TIP3    H160114   3.288   2.472   2.288
12045TIP3    H260115   3.211   2.568   2.196
12046TIP3   OH260116   2.266   2.951   2.856
12046TIP3    H160117   2.320   2.948   2.774
12046TIP3    H260118   2.258   2.858   2.878
12047TIP3   OH260119   2.953   3.158   2.169
12047TIP3    H160120   2.919   3.243   2.204
12047TIP3    H260121   2.880   3.097   2.192
12048TIP3   OH260122   1.971   2.776   3.361
12048TIP3    H160123   1.967   2.755   3.457
12048TIP3    H260124   1.886   2.737   3.333
12049TIP3   OH260125   3.111   3.271   3.392
12049TIP3    H160126   3.025   3.307   3.364
12049TIP3    H260127   3.125   3.312   3.478
12050TIP3   OH260128   3.691   2.497   2.222
12050TIP3    H160129   3.634   2.472   2.147
12050TIP3    H260130   3.699   2.593   2.202
12051TIP3   OH260131   3.518   3.381   2.263
12051TIP3    H160132   3.483   3.299   2.298
12051TIP3    H260133   3.550   3.359   2.174
12052TIP3   OH260134   3.237   2.863   2.975
12052TIP3    H160135   3.144   2.841   2.959
12052TIP3    H260136   3.283   2.789   2.930
12053TIP3   OH260137   2.493   3.297   2.585
12053TIP3    H160138   2.543   3.378   2.564
12053TIP3    H260139   2.405   3.320   2.552
12054TIP3   OH260140   2.069   2.787   2.033
12054TIP3    H160141   2.127   2.844   2.086
12054TIP3    H260142   1.980   2.808   2.069
12055TIP3   OH260143   2.632   3.065   2.533
12055TIP3    H160144   2.601   3.156   2.546
12055TIP3    H260145   2.563   3.014   2.580
12056TIP3   OH260146   2.680   3.488   3.179
12056TIP3    H160147   2.731   3.560   3.144
12056TIP3    H260148   2.742   3.444   3.241
12057TIP3   OH260149   2.502   3.562   2.488
12057TIP3    H160150   2.406   3.577   2.502
12057TIP3    H260151   2.539   3.646   2.522
12058TIP3   OH260152   3.025   3.077   3.135
12058TIP3    H160153   3.004   3.068   3.228
12058TIP3    H260154   3.098   3.014   3.121
12059TIP3   OH260155   3.266   3.191   2.047
12059TIP3    H160156   3.295   3.142   2.127
12059TIP3    H260157   3.171   3.171   2.055
12060TIP3   OH260158   3.307   3.535   3.390
12060TIP3    H160159   3.240   3.490   3.339
12060TIP3    H260160   3.332   3.607   3.330
12061TIP3   OH260161   3.708   3.625   2.070
12061TIP3    H160162   3.778   3.689   2.051
12061TIP3    H260163   3.639   3.686   2.104
12062TIP3   OH260164   2.120   2.267   3.321
12062TIP3    H160165   2.029   2.299   3.318
12062TIP3    H260166   2.122   2.188   3.374
12063TIP3   OH260167   3.343   3.053   2.273
12063TIP3    H160168   3.319   2.974   2.325
12063TIP3    H260169   3.438   3.057   2.290
12064TIP3   OH260170   2.081   3.447   3.171
12064TIP3    H160171   2.107   3.353   3.171
12064TIP3    H260172   2.109   3.472   3.260
12065TIP3   OH260173   2.679   3.297   1.898
12065TIP3    H160174   2.688   3.221   1.839
12065TIP3    H260175   2.633   3.254   1.974
12066TIP3   OH260176   2.554   3.249   2.143
12066TIP3    H160177   2.583   3.198   2.220
12066TIP3    H260178   2.565   3.342   2.176
12067TIP3   OH260179   2.210   2.974   2.193
12067TIP3    H160180   2.137   3.012   2.245
12067TIP3    H260181   2.259   3.052   2.162
12068TIP3   OH260182   2.992   2.240   3.221
12068TIP3    H160183   3.067   2.248   3.283
12068TIP3    H260184   2.948   2.159   3.241
12069TIP3   OH260185   3.069   2.196   2.331
12069TIP3    H160186   3.090   2.245   2.249
12069TIP3    H260187   3.124   2.243   2.395
12070TIP3   OH260188   2.836   3.415   2.212
12070TIP3    H160189   2.754   3.468   2.220
12070TIP3    H260190   2.890   3.471   2.154
12071TIP3   OH260191   2.790   2.373   2.414
12071TIP3    H160192   2.867   2.433   2.419
12071TIP3    H260193   2.763   2.361   2.507
12072TIP3   OH260194   2.871   2.499   3.324
12072TIP3    H160195   2.838   2.528   3.411
12072TIP3    H260196   2.894   2.407   3.343
12073TIP3   OH260197   2.875   2.079   2.501
12073TIP3    H160198   2.841   2.144   2.566
12073TIP3    H260199   2.944   2.134   2.458
12074TIP3   OH260200   2.576   3.518   2.216
12074TIP3    H160201   2.585   3.600   2.160
12074TIP3    H260202   2.548   3.555   2.302
12075TIP3   OH260203   2.441   2.190   2.172
12075TIP3    H160204   2.432   2.280   2.212
12075TIP3    H260205   2.532   2.168   2.201
12076TIP3   OH260206   3.460   2.265   3.418
12076TIP3    H160207   3.370   2.297   3.404
12076TIP3    H260208   3.494   2.263   3.328
12077TIP3   OH260209   3.325   2.643   2.817
12077TIP3    H160210   3.242   2.598   2.791
12077TIP3    H260211   3.373   2.575   2.869
12078TIP3   OH260212   2.263   3.235   2.077
12078TIP3    H160213   2.331   3.296   2.109
12078TIP3    H260214   2.316   3.188   2.009
12079TIP3   OH260215   2.102   2.505   1.976
12079TIP3    H160216   2.102   2.593   2.021
12079TIP3    H260217   2.009   2.484   1.967
12080TIP3   OH260218   3.430   3.578   2.987
12080TIP3    H160219   3.423   3.638   2.911
12080TIP3    H260220   3.526   3.575   3.002
12081TIP3   OH260221   2.179   1.981   2.866
12081TIP3    H160222   2.162   1.983   2.770
12081TIP3    H260223   2.140   1.894   2.888
12082TIP3   OH260224   2.075   3.373   2.482
12082TIP3    H160225   1.990   3.417   2.475
12082TIP3    H260226   2.122   3.418   2.410
12083TIP3   OH260227   2.878   3.482   1.910
12083TIP3    H160228   2.808   3.416   1.931
12083TIP3    H260229   2.950   3.421   1.885
12084TIP3   OH260230   3.333   3.455   1.927
12084TIP3    H160231   3.363   3.379   1.980
12084TIP3    H260232   3.410   3.477   1.874
12085TIP3   OH260233   2.422   3.050   1.909
12085TIP3    H160234   2.436   2.974   1.968
12085TIP3    H260235   2.497   3.038   1.848
12086TIP3   OH260236   2.965   3.161   1.888
12086TIP3    H160237   2.938   3.168   1.981
12086TIP3    H260238   2.947   3.065   1.873
12087TIP3   OH260239   2.544   2.853   2.155
12087TIP3    H160240   2.489   2.798   2.214
12087TIP3    H260241   2.572   2.785   2.089
12088TIP3   OH260242   2.448   2.635   3.362
12088TIP3    H160243   2.420   2.707   3.422
12088TIP3    H260244   2.523   2.669   3.311
12089TIP3   OH260245   2.650   2.675   1.973
12089TIP3    H160246   2.635   2.666   1.876
12089TIP3    H260247   2.748   2.679   1.980
12090TIP3   OH260248   3.581   2.908   1.915
12090TIP3    H160249   3.565   2.868   1.828
12090TIP3    H260250   3.591   3.004   1.895
12091TIP3   OH260251   2.547   2.197   3.238
12091TIP3    H160252   2.601   2.255   3.180
12091TIP3    H260253   2.458   2.201   3.199
12092TIP3   OH260254   2.697   2.762   3.256
12092TIP3    H160255   2.779   2.736   3.210
12092TIP3    H260256   2.677   2.851   3.229
12093TIP3   OH260257   2.637   1.950   3.274
12093TIP3    H160258   2.613   2.046   3.282
12093TIP3    H260259   2.554   1.915   3.238
12094TIP3   OH260260   2.633   3.745   2.081
12094TIP3    H160261   2.729   3.752   2.088
12094TIP3    H260262   2.619   3.803   2.006
12095TIP3   OH260263   1.987   3.201   2.029
12095TIP3    H160264   2.084   3.210   2.046
12095TIP3    H260265   1.992   3.137   1.953
12096TIP3   OH260266   1.866   3.740   2.524
12096TIP3    H160267   1.794   3.691   2.479
12096TIP3    H260268   1.894   3.675   2.591
12097TIP3   OH260269   1.949   3.554   2.712
12097TIP3    H160270   1.913   3.466   2.733
12097TIP3    H260271   1.973   3.586   2.800
12098TIP3   OH260272   3.663   3.584   3.306
12098TIP3    H160273   3.609   3.511   3.270
12098TIP3    H260274   3.715   3.540   3.373
12099TIP3   OH260275   3.635   2.996   2.309
12099TIP3    H160276   3.721   3.036   2.327
12099TIP3    H260277   3.633   2.925   2.377
12100TIP3   OH260278   3.672   2.806   2.500
12100TIP3    H160279   3.596   2.757   2.539
12100TIP3    H260280   3.732   2.818   2.576
12101TIP3   OH260281   3.647   3.072   2.994
12101TIP3    H160282   3.732   3.036   2.962
12101TIP3    H260283   3.662   3.168   2.984
12102TIP3   OH260284   3.501   3.367   3.224
12102TIP3    H160285   3.435   3.396   3.289
12102TIP3    H260286   3.449   3.321   3.157
12103TIP3   OH260287   3.701   2.787   2.137
12103TIP3    H160288   3.644   2.822   2.066
12103TIP3    H260289   3.691   2.858   2.203
12104TIP3   OH260290   3.540   2.509   1.989
12104TIP3    H160291   3.547   2.577   1.921
12104TIP3    H260292   3.521   2.427   1.938
12105TIP3   OH260293   3.454   2.652   2.557
12105TIP3    H160294   3.439   2.557   2.551
12105TIP3    H260295   3.422   2.672   2.647
12106TIP3   OH260296   1.950   2.877   2.954
12106TIP3    H160297   1.968   2.853   2.861
12106TIP3    H260298   2.030   2.843   2.998
12107TIP3   OH260299   3.465   2.255   1.902
12107TIP3    H160300   3.524   2.214   1.967
12107TIP3    H260301   3.377   2.218   1.919
12108TIP3   OH260302   3.418   2.411   2.397
12108TIP3    H160303   3.450   2.319   2.413
12108TIP3    H260304   3.501   2.451   2.367
12109TIP3   OH260305   3.486   2.465   2.945
12109TIP3    H160306   3.581   2.488   2.945
12109TIP3    H260307   3.466   2.480   3.039
12110TIP3   OH260308   3.492   2.536   3.217
12110TIP3    H160309   3.406   2.564   3.257
12110TIP3    H260310   3.536   2.623   3.200
12111TIP3   OH260311   3.489   2.140   2.406
12111TIP3    H160312   3.510   2.097   2.492
12111TIP3    H260313   3.429   2.075   2.363
12112TIP3   OH260314   2.035   2.218   2.865
12112TIP3    H160315   2.085   2.137   2.885
12112TIP3    H260316   2.091   2.289   2.898
12113TIP3   OH260317   1.869   2.514   2.971
12113TIP3    H160318   1.919   2.496   2.889
12113TIP3    H260319   1.907   2.601   2.992
12114TIP3   OH260320   3.667   2.144   2.060
12114TIP3    H160321   3.708   2.074   2.004
12114TIP3    H260322   3.738   2.210   2.065
12115TIP3   OH260323   1.899   2.141   2.366
12115TIP3    H160324   1.807   2.169   2.359
12115TIP3    H260325   1.943   2.199   2.301
12116TIP3   OH260326   3.376   3.642   2.569
12116TIP3    H160327   3.444   3.613   2.505
12116TIP3    H260328   3.430   3.689   2.633
12117TIP3   OH260329   3.574   1.963   3.370
12117TIP3    H160330   3.485   1.986   3.338
12117TIP3    H260331   3.584   1.879   3.325
12118TIP3   OH260332   2.152   3.759   3.255
12118TIP3    H160333   2.079   3.803   3.206
12118TIP3    H260334   2.113   3.732   3.338
12119TIP3   OH260335   2.401   3.724   3.155
12119TIP3    H160336   2.311   3.723   3.193
12119TIP3    H260337   2.390   3.774   3.072
12120TIP3   OH260338   2.864   3.704   3.069
12120TIP3    H160339   2.827   3.761   2.999
12120TIP3    H260340   2.887   3.768   3.139
12121TIP3   OH260341   3.096   3.588   3.173
12121TIP3    H160342   3.011   3.614   3.133
12121TIP3    H260343   3.148   3.670   3.164
12122TIP3   OH260344   3.350   3.749   3.189
12122TIP3    H160345   3.356   3.842   3.170
12122TIP3    H260346   3.384   3.704   3.109
12123TIP3   OH260347   2.101   3.621   2.938
12123TIP3    H160348   2.092   3.573   3.023
12123TIP3    H260349   2.183   3.582   2.902
12124TIP3   OH260350   2.307   3.490   2.803
12124TIP3    H160351   2.291   3.397   2.828
12124TIP3    H260352   2.391   3.507   2.851
12125TIP3   OH260353   2.568   3.540   2.894
12125TIP3    H160354   2.581   3.446   2.868
12125TIP3    H260355   2.568   3.530   2.991
12126TIP3   OH260356   2.913   2.105   2.809
12126TIP3    H160357   2.843   2.042   2.834
12126TIP3    H260358   2.966   2.052   2.748
12127TIP3   OH260359   3.427   1.909   2.813
12127TIP3    H160360   3.487   1.969   2.762
12127TIP3    H260361   3.338   1.945   2.791
12128TIP3   OH260362   3.592   2.035   2.640
12128TIP3    H160363   3.661   1.978   2.599
12128TIP3    H260364   3.643   2.119   2.652
12129TIP3   OH260365   2.149   1.968   2.589
12129TIP3    H160366   2.068   1.948   2.539
12129TIP3    H260367   2.194   1.881   2.585
12130TIP3   OH260368   2.020   1.945   2.158
12130TIP3    H160369   2.078   2.009   2.113
12130TIP3    H260370   1.972   2.002   2.220
12131TIP3   OH260371   2.595   1.960   2.571
12131TIP3    H160372   2.685   1.996   2.561
12131TIP3    H260373   2.593   1.939   2.664
12132TIP3   OH260374   3.169   1.962   2.732
12132TIP3    H160375   3.162   1.974   2.636
12132TIP3    H260376   3.129   1.872   2.745
12133TIP3   OH260377   3.293   1.965   2.302
12133TIP3    H160378   3.219   2.024   2.286
12133TIP3    H260379   3.249   1.880   2.326
12134TIP3   OH260380   2.016   3.538   2.268
12134TIP3    H160381   1.951   3.536   2.195
12134TIP3    H260382   2.017   3.633   2.284
12135TIP3   OH260383   2.208   2.135   2.016
12135TIP3    H160384   2.262   2.076   1.962
12135TIP3    H260385   2.274   2.170   2.078
12136TIP3   OH260386   2.709   2.161   2.256
12136TIP3    H160387   2.736   2.104   2.330
12136TIP3    H260388   2.719   2.249   2.300
12137TIP3   OH260389   2.905   3.670   2.100
12137TIP3    H160390   2.997   3.691   2.078
12137TIP3    H260391   2.883   3.617   2.021
12138TIP3   OH260392   3.579   3.618   2.373
12138TIP3    H160393   3.555   3.540   2.317
12138TIP3    H260394   3.569   3.691   2.309
12139TIP3   OH260395   2.196   3.637   1.961
12139TIP3    H160396   2.170   3.663   2.051
12139TIP3    H260397   2.274   3.580   1.976
12140TIP3   OH260398   4.945   2.883   2.574
12140TIP3    H160399   4.939   2.981   2.576
12140TIP3    H260400   4.869   2.860   2.518
12141TIP3   OH260401   4.826   2.807   2.931
12141TIP3    H160402   4.824   2.734   2.992
12141TIP3    H260403   4.796   2.762   2.849
12142TIP3   OH260404   4.067   2.765   3.083
12142TIP3    H160405   4.076   2.715   3.163
12142TIP3    H260406   4.134   2.834   3.099
12143TIP3   OH260407   5.194   3.103   2.753
12143TIP3    H160408   5.155   3.032   2.804
12143TIP3    H260409   5.202   3.171   2.822
12144TIP3   OH260410   3.819   2.574   2.483
12144TIP3    H160411   3.778   2.662   2.475
12144TIP3    H260412   3.763   2.521   2.424
12145TIP3   OH260413   3.892   2.798   2.697
12145TIP3    H160414   3.918   2.714   2.740
12145TIP3    H260415   3.961   2.807   2.630
12146TIP3   OH260416   4.911   3.622   2.784
12146TIP3    H160417   4.972   3.552   2.750
12146TIP3    H260418   4.887   3.585   2.868
12147TIP3   OH260419   5.538   2.208   3.050
12147TIP3    H160420   5.539   2.275   3.122
12147TIP3    H260421   5.579   2.259   2.979
12148TIP3   OH260422   4.977   2.494   3.009
12148TIP3    H160423   5.000   2.399   3.008
12148TIP3    H260424   4.973   2.508   2.912
12149TIP3   OH260425   4.293   2.301   2.727
12149TIP3    H160426   4.305   2.385   2.678
12149TIP3    H260427   4.254   2.245   2.657
12150TIP3   OH260428   5.067   2.310   2.564
12150TIP3    H160429   5.132   2.279   2.632
12150TIP3    H260430   5.124   2.370   2.512
12151TIP3   OH260431   3.956   2.544   2.801
12151TIP3    H160432   4.024   2.489   2.844
12151TIP3    H260433   3.966   2.514   2.710
12152TIP3   OH260434   4.471   2.699   2.737
12152TIP3    H160435   4.541   2.641   2.771
12152TIP3    H260436   4.422   2.636   2.680
12153TIP3   OH260437   5.571   2.353   3.277
12153TIP3    H160438   5.509   2.428   3.265
12153TIP3    H260439   5.570   2.342   3.374
12154TIP3   OH260440   4.185   2.197   3.127
12154TIP3    H160441   4.154   2.252   3.052
12154TIP3    H260442   4.119   2.207   3.197
12155TIP3   OH260443   4.920   3.141   2.485
12155TIP3    H160444   4.882   3.113   2.401
12155TIP3    H260445   4.884   3.232   2.493
12156TIP3   OH260446   5.250   2.246   2.764
12156TIP3    H160447   5.228   2.169   2.818
12156TIP3    H260448   5.316   2.290   2.819
12157TIP3   OH260449   4.141   2.380   2.935
12157TIP3    H160450   4.208   2.447   2.962
12157TIP3    H260451   4.191   2.337   2.860
12158TIP3   OH260452   3.888   3.117   2.312
12158TIP3    H160453   3.861   3.155   2.226
12158TIP3    H260454   3.890   3.196   2.368
12159TIP3   OH260455   5.251   3.286   2.985
12159TIP3    H160456   5.155   3.298   3.002
12159TIP3    H260457   5.280   3.379   2.974
12160TIP3   OH260458   4.578   1.928   2.875
12160TIP3    H160459   4.564   1.831   2.871
12160TIP3    H260460   4.491   1.958   2.909
12161TIP3   OH260461   5.075   3.466   2.650
12161TIP3    H160462   5.118   3.392   2.601
12161TIP3    H260463   5.123   3.543   2.613
12162TIP3   OH260464   5.196   3.258   2.503
12162TIP3    H160465   5.166   3.188   2.443
12162TIP3    H260466   5.201   3.208   2.587
12163TIP3   OH260467   4.810   2.803   2.329
12163TIP3    H160468   4.737   2.857   2.296
12163TIP3    H260469   4.879   2.817   2.262
12164TIP3   OH260470   4.818   2.664   2.029
12164TIP3    H160471   4.888   2.661   2.096
12164TIP3    H260472   4.847   2.590   1.973
12165TIP3   OH260473   5.552   2.745   3.157
12165TIP3    H160474   5.486   2.818   3.162
12165TIP3    H260475   5.597   2.772   3.075
12166TIP3   OH260476   5.154   2.825   2.420
12166TIP3    H160477   5.081   2.851   2.481
12166TIP3    H260478   5.202   2.759   2.473
12167TIP3   OH260479   5.133   2.644   3.333
12167TIP3    H160480   5.153   2.724   3.386
12167TIP3    H260481   5.090   2.679   3.255
12168TIP3   OH260482   4.310   2.890   2.619
12168TIP3    H160483   4.286   2.858   2.529
12168TIP3    H260484   4.378   2.824   2.645
12169TIP3   OH260485   4.352   2.765   2.982
12169TIP3    H160486   4.402   2.773   2.897
12169TIP3    H260487   4.386   2.836   3.036
12170TIP3   OH260488   4.994   3.328   3.052
12170TIP3    H160489   4.953   3.387   3.114
12170TIP3    H260490   4.963   3.241   3.087
12171TIP3   OH260491   5.042   2.748   2.187
12171TIP3    H160492   5.097   2.765   2.267
12171TIP3    H260493   5.088   2.797   2.115
12172TIP3   OH260494   4.128   2.816   3.374
12172TIP3    H160495   4.142   2.892   3.433
12172TIP3    H260496   4.039   2.840   3.342
12173TIP3   OH260497   4.816   3.421   2.533
12173TIP3    H160498   4.855   3.449   2.616
12173TIP3    H260499   4.756   3.493   2.511
12174TIP3   OH260500   5.414   1.920   2.179
12174TIP3    H160501   5.319   1.931   2.202
12174TIP3    H260502   5.434   2.004   2.134
12175TIP3   OH260503   4.211   2.795   2.375
12175TIP3    H160504   4.185   2.873   2.322
12175TIP3    H260505   4.147   2.728   2.349
12176TIP3   OH260506   5.525   3.355   2.013
12176TIP3    H160507   5.543   3.449   2.030
12176TIP3    H260508   5.617   3.323   2.014
12177TIP3   OH260509   3.831   3.035   3.244
12177TIP3    H160510   3.770   3.031   3.170
12177TIP3    H260511   3.818   2.948   3.287
12178TIP3   OH260512   3.795   3.313   2.944
12178TIP3    H160513   3.891   3.300   2.940
12178TIP3    H260514   3.790   3.391   3.000
12179TIP3   OH260515   4.773   3.711   2.375
12179TIP3    H160516   4.748   3.699   2.281
12179TIP3    H260517   4.758   3.806   2.392
12180TIP3   OH260518   5.066   3.632   2.074
12180TIP3    H160519   5.111   3.555   2.032
12180TIP3    H260520   5.066   3.605   2.168
12181TIP3   OH260521   5.037   3.624   2.352
12181TIP3    H160522   4.940   3.633   2.368
12181TIP3    H260523   5.058   3.549   2.410
12182TIP3   OH260524   4.317   2.021   2.944
12182TIP3    H160525   4.225   2.007   2.913
12182TIP3    H260526   4.305   2.097   3.004
12183TIP3   OH260527   4.787   1.991   3.289
12183TIP3    H160528   4.813   1.945   3.368
12183TIP3    H260529   4.688   1.977   3.293
12184TIP3   OH260530   5.096   2.357   3.378
12184TIP3    H160531   5.058   2.359   3.467
12184TIP3    H260532   5.102   2.453   3.357
12185TIP3   OH260533   5.187   2.850   1.971
12185TIP3    H160534   5.183   2.832   1.875
12185TIP3    H260535   5.272   2.895   1.974
12186TIP3   OH260536   4.745   2.243   2.020
12186TIP3    H160537   4.714   2.236   2.112
12186TIP3    H260538   4.715   2.155   1.989
12187TIP3   OH260539   4.324   2.514   3.078
12187TIP3    H160540   4.255   2.513   3.144
12187TIP3    H260541   4.321   2.603   3.037
12188TIP3   OH260542   4.324   2.525   2.564
12188TIP3    H160543   4.229   2.503   2.552
12188TIP3    H260544   4.361   2.498   2.478
12189TIP3   OH260545   4.874   2.576   2.442
12189TIP3    H160546   4.837   2.660   2.405
12189TIP3    H260547   4.943   2.559   2.376
12190TIP3   OH260548   4.980   2.527   2.726
12190TIP3    H160549   4.950   2.582   2.652
12190TIP3    H260550   4.989   2.441   2.680
12191TIP3   OH260551   4.426   2.278   1.932
12191TIP3    H160552   4.380   2.237   2.008
12191TIP3    H260553   4.355   2.323   1.883
12192TIP3   OH260554   3.756   2.249   2.646
12192TIP3    H160555   3.824   2.245   2.716
12192TIP3    H260556   3.800   2.212   2.567
12193TIP3   OH260557   3.882   2.321   2.182
12193TIP3    H160558   3.934   2.382   2.125
12193TIP3    H260559   3.814   2.384   2.212
12194TIP3   OH260560   4.579   2.283   2.667
12194TIP3    H160561   4.485   2.282   2.695
12194TIP3    H260562   4.627   2.264   2.749
12195TIP3   OH260563   4.060   2.436   2.553
12195TIP3    H160564   3.972   2.452   2.513
12195TIP3    H260565   4.088   2.352   2.512
12196TIP3   OH260566   4.424   2.440   2.315
12196TIP3    H160567   4.519   2.452   2.331
12196TIP3    H260568   4.399   2.509   2.250
12197TIP3   OH260569   5.019   2.203   2.993
12197TIP3    H160570   4.947   2.212   3.059
12197TIP3    H260571   4.972   2.180   2.912
12198TIP3   OH260572   4.296   2.559   2.074
12198TIP3    H160573   4.242   2.522   2.003
12198TIP3    H260574   4.378   2.580   2.026
12199TIP3   OH260575   4.708   2.558   2.859
12199TIP3    H160576   4.764   2.505   2.800
12199TIP3    H260577   4.692   2.498   2.932
12200TIP3   OH260578   4.208   2.171   2.498
12200TIP3    H160579   4.177   2.079   2.499
12200TIP3    H260580   4.288   2.165   2.443
12201TIP3   OH260581   4.573   2.391   3.091
12201TIP3    H160582   4.490   2.440   3.105
12201TIP3    H260583   4.626   2.415   3.167
12202TIP3   OH260584   5.348   2.925   3.146
12202TIP3    H160585   5.406   2.981   3.090
12202TIP3    H260586   5.263   2.937   3.099
12203TIP3   OH260587   5.012   2.293   2.084
12203TIP3    H160588   4.917   2.309   2.070
12203TIP3    H260589   5.047   2.378   2.119
12204TIP3   OH260590   5.086   2.486   2.245
12204TIP3    H160591   5.173   2.473   2.287
12204TIP3    H260592   5.097   2.569   2.194
12205TIP3   OH260593   4.146   2.953   2.846
12205TIP3    H160594   4.208   2.940   2.772
12205TIP3    H260595   4.142   2.866   2.888
12206TIP3   OH260596   4.842   3.157   2.169
12206TIP3    H160597   4.804   3.239   2.206
12206TIP3    H260598   4.767   3.100   2.190
12207TIP3   OH260599   3.843   2.804   3.368
12207TIP3    H160600   3.854   2.764   3.455
12207TIP3    H260601   3.773   2.748   3.328
12208TIP3   OH260602   5.577   2.498   2.223
12208TIP3    H160603   5.519   2.471   2.149
12208TIP3    H260604   5.584   2.593   2.200
12209TIP3   OH260605   5.403   3.382   2.262
12209TIP3    H160606   5.369   3.299   2.298
12209TIP3    H260607   5.436   3.359   2.174
12210TIP3   OH260608   5.122   2.863   2.981
12210TIP3    H160609   5.030   2.846   2.954
12210TIP3    H260610   5.169   2.792   2.932
12211TIP3   OH260611   3.955   2.779   2.042
12211TIP3    H160612   4.013   2.846   2.083
12211TIP3    H260613   3.866   2.811   2.065
12212TIP3   OH260614   4.914   3.083   3.139
12212TIP3    H160615   4.890   3.064   3.230
12212TIP3    H260616   4.983   3.016   3.121
12213TIP3   OH260617   5.151   3.190   2.048
12213TIP3    H160618   5.183   3.142   2.127
12213TIP3    H260619   5.055   3.171   2.057
12214TIP3   OH260620   5.202   3.554   3.383
12214TIP3    H160621   5.142   3.493   3.338
12214TIP3    H260622   5.236   3.612   3.313
12215TIP3   OH260623   5.597   3.625   2.074
12215TIP3    H160624   5.666   3.691   2.053
12215TIP3    H260625   5.526   3.685   2.102
12216TIP3   OH260626   5.227   3.053   2.273
12216TIP3    H160627   5.205   2.974   2.326
12216TIP3    H260628   5.323   3.057   2.289
12217TIP3   OH260629   3.971   3.443   3.172
12217TIP3    H160630   3.992   3.349   3.176
12217TIP3    H260631   3.993   3.470   3.262
12218TIP3   OH260632   4.560   3.298   1.897
12218TIP3    H160633   4.573   3.221   1.838
12218TIP3    H260634   4.522   3.254   1.974
12219TIP3   OH260635   4.096   2.972   2.193
12219TIP3    H160636   4.023   3.012   2.244
12219TIP3    H260637   4.147   3.049   2.162
12220TIP3   OH260638   4.872   2.246   3.225
12220TIP3    H160639   4.945   2.253   3.287
12220TIP3    H260640   4.835   2.157   3.244
12221TIP3   OH260641   4.952   2.199   2.333
12221TIP3    H160642   4.975   2.244   2.249
12221TIP3    H260643   5.009   2.246   2.395
12222TIP3   OH260644   4.676   2.374   2.414
12222TIP3    H160645   4.753   2.434   2.419
12222TIP3    H260646   4.648   2.361   2.507
12223TIP3   OH260647   4.759   2.080   2.501
12223TIP3    H160648   4.728   2.144   2.567
12223TIP3    H260649   4.830   2.134   2.458
12224TIP3   OH260650   4.326   2.191   2.172
12224TIP3    H160651   4.320   2.280   2.212
12224TIP3    H260652   4.417   2.168   2.198
12225TIP3   OH260653   5.209   2.645   2.818
12225TIP3    H160654   5.128   2.598   2.791
12225TIP3    H260655   5.259   2.576   2.869
12226TIP3   OH260656   4.149   3.234   2.075
12226TIP3    H160657   4.215   3.298   2.106
12226TIP3    H260658   4.203   3.186   2.009
12227TIP3   OH260659   3.984   2.502   1.992
12227TIP3    H160660   3.985   2.598   2.011
12227TIP3    H260661   3.896   2.485   1.958
12228TIP3   OH260662   5.315   3.569   2.987
12228TIP3    H160663   5.307   3.636   2.916
12228TIP3    H260664   5.412   3.574   3.004
12229TIP3   OH260665   4.064   1.982   2.868
12229TIP3    H160666   4.046   1.986   2.772
12229TIP3    H260667   4.025   1.894   2.889
12230TIP3   OH260668   4.763   3.483   1.908
12230TIP3    H160669   4.695   3.418   1.935
12230TIP3    H260670   4.836   3.423   1.885
12231TIP3   OH260671   5.218   3.454   1.929
12231TIP3    H160672   5.250   3.378   1.980
12231TIP3    H260673   5.294   3.478   1.874
12232TIP3   OH260674   4.309   3.054   1.915
12232TIP3    H160675   4.320   2.974   1.969
12232TIP3    H260676   4.382   3.040   1.852
12233TIP3   OH260677   4.851   3.161   1.889
12233TIP3    H160678   4.824   3.169   1.982
12233TIP3    H260679   4.832   3.066   1.874
12234TIP3   OH260680   5.107   3.009   3.365
12234TIP3    H160681   5.192   3.053   3.385
12234TIP3    H260682   5.047   3.068   3.412
12235TIP3   OH260683   4.426   2.850   2.149
12235TIP3    H160684   4.379   2.799   2.217
12235TIP3    H260685   4.459   2.781   2.089
12236TIP3   OH260686   4.351   2.638   3.373
12236TIP3    H160687   4.295   2.709   3.410
12236TIP3    H260688   4.391   2.673   3.293
12237TIP3   OH260689   4.536   2.671   1.972
12237TIP3    H160690   4.521   2.665   1.875
12237TIP3    H260691   4.633   2.679   1.980
12238TIP3   OH260692   5.467   2.905   1.914
12238TIP3    H160693   5.450   2.868   1.826
12238TIP3    H260694   5.477   3.002   1.896
12239TIP3   OH260695   4.431   2.210   3.246
12239TIP3    H160696   4.486   2.253   3.179
12239TIP3    H260697   4.345   2.199   3.202
12240TIP3   OH260698   4.525   1.958   3.264
12240TIP3    H160699   4.492   2.050   3.279
12240TIP3    H260700   4.440   1.914   3.245
12241TIP3   OH260701   4.516   3.743   2.080
12241TIP3    H160702   4.613   3.749   2.089
12241TIP3    H260703   4.504   3.803   2.005
12242TIP3   OH260704   3.875   3.199   2.030
12242TIP3    H160705   3.972   3.210   2.044
12242TIP3    H260706   3.877   3.138   1.953
12243TIP3   OH260707   5.590   3.632   3.002
12243TIP3    H160708   5.588   3.646   3.099
12243TIP3    H260709   5.660   3.693   2.977
12244TIP3   OH260710   5.552   3.592   3.285
12244TIP3    H160711   5.497   3.516   3.257
12244TIP3    H260712   5.597   3.560   3.364
12245TIP3   OH260713   5.522   2.998   2.309
12245TIP3    H160714   5.609   3.037   2.328
12245TIP3    H260715   5.520   2.927   2.376
12246TIP3   OH260716   5.557   2.806   2.499
12246TIP3    H160717   5.482   2.757   2.538
12246TIP3    H260718   5.618   2.818   2.575
12247TIP3   OH260719   5.530   3.071   2.988
12247TIP3    H160720   5.616   3.035   2.961
12247TIP3    H260721   5.547   3.167   2.981
12248TIP3   OH260722   5.390   3.371   3.221
12248TIP3    H160723   5.326   3.392   3.290
12248TIP3    H260724   5.337   3.321   3.156
12249TIP3   OH260725   5.587   2.788   2.138
12249TIP3    H160726   5.530   2.821   2.065
12249TIP3    H260727   5.577   2.859   2.203
12250TIP3   OH260728   5.426   2.510   1.988
12250TIP3    H160729   5.433   2.576   1.919
12250TIP3    H260730   5.406   2.428   1.939
12251TIP3   OH260731   5.339   2.653   2.557
12251TIP3    H160732   5.325   2.557   2.551
12251TIP3    H260733   5.307   2.673   2.647
12252TIP3   OH260734   3.838   2.856   2.964
12252TIP3    H160735   3.856   2.853   2.867
12252TIP3    H260736   3.928   2.849   2.998
12253TIP3   OH260737   5.350   2.258   1.902
12253TIP3    H160738   5.409   2.214   1.966
12253TIP3    H260739   5.264   2.217   1.917
12254TIP3   OH260740   5.304   2.411   2.396
12254TIP3    H160741   5.335   2.319   2.413
12254TIP3    H260742   5.386   2.452   2.367
12255TIP3   OH260743   5.368   2.467   2.944
12255TIP3    H160744   5.464   2.488   2.943
12255TIP3    H260745   5.351   2.477   3.039
12256TIP3   OH260746   5.373   2.538   3.220
12256TIP3    H160747   5.290   2.569   3.262
12256TIP3    H260748   5.423   2.621   3.206
12257TIP3   OH260749   5.374   2.140   2.406
12257TIP3    H160750   5.396   2.098   2.492
12257TIP3    H260751   5.315   2.075   2.363
12258TIP3   OH260752   3.920   2.221   2.867
12258TIP3    H160753   3.967   2.137   2.886
12258TIP3    H260754   3.980   2.289   2.898
12259TIP3   OH260755   3.756   2.517   2.970
12259TIP3    H160756   3.804   2.496   2.888
12259TIP3    H260757   3.793   2.604   2.988
12260TIP3   OH260758   5.555   2.144   2.062
12260TIP3    H160759   5.597   2.073   2.008
12260TIP3    H260760   5.626   2.210   2.067
12261TIP3   OH260761   3.787   2.149   2.374
12261TIP3    H160762   3.693   2.164   2.357
12261TIP3    H260763   3.828   2.196   2.300
12262TIP3   OH260764   5.261   3.641   2.569
12262TIP3    H160765   5.329   3.612   2.506
12262TIP3    H260766   5.312   3.691   2.633
12263TIP3   OH260767   3.782   2.011   3.201
12263TIP3    H160768   3.717   1.998   3.274
12263TIP3    H260769   3.733   2.078   3.148
12264TIP3   OH260770   4.759   3.706   3.068
12264TIP3    H160771   4.711   3.757   3.000
12264TIP3    H260772   4.766   3.767   3.142
12265TIP3   OH260773   5.228   3.746   3.190
12265TIP3    H160774   5.243   3.840   3.167
12265TIP3    H260775   5.268   3.704   3.110
12266TIP3   OH260776   4.797   2.106   2.806
12266TIP3    H160777   4.731   2.042   2.836
12266TIP3    H260778   4.854   2.051   2.750
12267TIP3   OH260779   5.312   1.911   2.812
12267TIP3    H160780   5.373   1.970   2.762
12267TIP3    H260781   5.223   1.946   2.791
12268TIP3   OH260782   5.476   2.037   2.637
12268TIP3    H160783   5.546   1.978   2.600
12268TIP3    H260784   5.529   2.120   2.651
12269TIP3   OH260785   4.036   1.967   2.591
12269TIP3    H160786   3.954   1.951   2.541
12269TIP3    H260787   4.079   1.880   2.591
12270TIP3   OH260788   3.919   1.940   2.166
12270TIP3    H160789   3.959   2.010   2.110
12270TIP3    H260790   3.855   1.996   2.215
12271TIP3   OH260791   4.481   1.954   2.571
12271TIP3    H160792   4.568   1.996   2.561
12271TIP3    H260793   4.479   1.941   2.666
12272TIP3   OH260794   5.054   1.961   2.735
12272TIP3    H160795   5.048   1.974   2.639
12272TIP3    H260796   5.015   1.872   2.746
12273TIP3   OH260797   5.179   1.965   2.301
12273TIP3    H160798   5.104   2.024   2.286
12273TIP3    H260799   5.136   1.880   2.326
12274TIP3   OH260800   4.092   2.134   2.018
12274TIP3    H160801   4.148   2.081   1.959
12274TIP3    H260802   4.159   2.172   2.077
12275TIP3   OH260803   4.596   2.161   2.255
12275TIP3    H160804   4.622   2.104   2.329
12275TIP3    H260805   4.605   2.249   2.300
12276TIP3   OH260806   4.788   3.672   2.101
12276TIP3    H160807   4.881   3.687   2.080
12276TIP3    H260808   4.765   3.614   2.026
12277TIP3   OH260809   5.458   3.619   2.373
12277TIP3    H160810   5.440   3.540   2.316
12277TIP3    H260811   5.452   3.692   2.308
12278TIP3   OH260812   4.079   3.633   1.960
12278TIP3    H160813   4.061   3.666   2.049
12278TIP3    H260814   4.162   3.583   1.970
12279TIP3   OH260815   6.830   2.883   2.576
12279TIP3    H160816   6.827   2.981   2.576
12279TIP3    H260817   6.756   2.859   2.518
12280TIP3   OH260818   6.713   2.808   2.924
12280TIP3    H160819   6.713   2.746   3.000
12280TIP3    H260820   6.677   2.753   2.852
12281TIP3   OH260821   5.945   2.781   3.097
12281TIP3    H160822   5.962   2.700   3.148
12281TIP3    H260823   6.029   2.830   3.098
12282TIP3   OH260824   7.082   3.104   2.757
12282TIP3    H160825   7.042   3.031   2.805
12282TIP3    H260826   7.084   3.173   2.826
12283TIP3   OH260827   6.045   3.222   2.933
12283TIP3    H160828   6.012   3.135   2.903
12283TIP3    H260829   6.140   3.203   2.936
12284TIP3   OH260830   5.705   2.575   2.482
12284TIP3    H160831   5.662   2.662   2.475
12284TIP3    H260832   5.649   2.521   2.424
12285TIP3   OH260833   5.777   2.797   2.696
12285TIP3    H160834   5.805   2.717   2.743
12285TIP3    H260835   5.846   2.809   2.629
12286TIP3   OH260836   6.795   3.618   2.780
12286TIP3    H160837   6.859   3.549   2.751
12286TIP3    H260838   6.777   3.586   2.868
12287TIP3   OH260839   6.553   3.049   2.982
12287TIP3    H160840   6.581   2.986   2.913
12287TIP3    H260841   6.638   3.057   3.029
12288TIP3   OH260842   7.415   2.211   3.044
12288TIP3    H160843   7.428   2.270   3.122
12288TIP3    H260844   7.470   2.257   2.980
12289TIP3   OH260845   6.867   2.491   3.009
12289TIP3    H160846   6.887   2.397   3.009
12289TIP3    H260847   6.858   2.508   2.914
12290TIP3   OH260848   6.173   2.304   2.729
12290TIP3    H160849   6.189   2.387   2.678
12290TIP3    H260850   6.144   2.245   2.657
12291TIP3   OH260851   6.955   2.313   2.563
12291TIP3    H160852   7.017   2.278   2.632
12291TIP3    H260853   7.014   2.371   2.512
12292TIP3   OH260854   5.840   2.542   2.801
12292TIP3    H160855   5.910   2.492   2.846
12292TIP3    H260856   5.853   2.512   2.709
12293TIP3   OH260857   6.358   2.700   2.733
12293TIP3    H160858   6.425   2.642   2.773
12293TIP3    H260859   6.307   2.635   2.681
12294TIP3   OH260860   7.447   2.350   3.275
12294TIP3    H160861   7.395   2.433   3.263
12294TIP3    H260862   7.470   2.357   3.367
12295TIP3   OH260863   6.065   2.192   3.128
12295TIP3    H160864   6.050   2.257   3.056
12295TIP3    H260865   6.018   2.232   3.205
12296TIP3   OH260866   6.799   3.141   2.486
12296TIP3    H160867   6.773   3.114   2.396
12296TIP3    H260868   6.767   3.233   2.491
12297TIP3   OH260869   6.320   2.959   3.159
12297TIP3    H160870   6.251   3.026   3.177
12297TIP3    H260871   6.391   3.014   3.123
12298TIP3   OH260872   7.136   2.246   2.763
12298TIP3    H160873   7.113   2.170   2.819
12298TIP3    H260874   7.202   2.290   2.819
12299TIP3   OH260875   6.026   2.378   2.935
12299TIP3    H160876   6.090   2.448   2.964
12299TIP3    H260877   6.079   2.338   2.860
12300TIP3   OH260878   6.171   3.156   3.235
12300TIP3    H160879   6.163   3.249   3.207
12300TIP3    H260880   6.085   3.151   3.281
12301TIP3   OH260881   5.775   3.118   2.316
12301TIP3    H160882   5.750   3.154   2.229
12301TIP3    H260883   5.783   3.200   2.369
12302TIP3   OH260884   7.134   3.286   2.984
12302TIP3    H160885   7.039   3.298   3.005
12302TIP3    H260886   7.162   3.380   2.978
12303TIP3   OH260887   7.165   2.119   3.142
12303TIP3    H160888   7.092   2.178   3.119
12303TIP3    H260889   7.236   2.154   3.083
12304TIP3   OH260890   6.423   1.894   2.959
12304TIP3    H160891   6.453   1.844   2.880
12304TIP3    H260892   6.372   1.962   2.912
12305TIP3   OH260893   6.964   3.463   2.653
12305TIP3    H160894   7.000   3.390   2.599
12305TIP3    H260895   7.001   3.544   2.613
12306TIP3   OH260896   7.092   3.259   2.504
12306TIP3    H160897   7.054   3.192   2.443
12306TIP3    H260898   7.085   3.207   2.587
12307TIP3   OH260899   7.246   3.118   3.357
12307TIP3    H160900   7.258   3.051   3.286
12307TIP3    H260901   7.266   3.200   3.311
12308TIP3   OH260902   6.693   2.805   2.328
12308TIP3    H160903   6.625   2.864   2.292
12308TIP3    H260904   6.765   2.814   2.262
12309TIP3   OH260905   6.703   2.664   2.029
12309TIP3    H160906   6.773   2.662   2.096
12309TIP3    H260907   6.733   2.591   1.974
12310TIP3   OH260908   7.435   2.747   3.154
12310TIP3    H160909   7.372   2.821   3.163
12310TIP3    H260910   7.480   2.774   3.073
12311TIP3   OH260911   7.041   2.825   2.420
12311TIP3    H160912   6.966   2.851   2.480
12311TIP3    H260913   7.088   2.759   2.474
12312TIP3   OH260914   6.200   2.892   2.613
12312TIP3    H160915   6.168   2.853   2.528
12312TIP3    H260916   6.262   2.823   2.645
12313TIP3   OH260917   6.333   3.229   2.884
12313TIP3    H160918   6.331   3.181   2.800
12313TIP3    H260919   6.413   3.193   2.924
12314TIP3   OH260920   6.231   2.768   2.976
12314TIP3    H160921   6.287   2.776   2.896
12314TIP3    H260922   6.273   2.832   3.038
12315TIP3   OH260923   6.873   3.320   3.048
12315TIP3    H160924   6.854   3.390   3.112
12315TIP3    H260925   6.854   3.236   3.096
12316TIP3   OH260926   6.928   2.748   2.187
12316TIP3    H160927   6.983   2.765   2.267
12316TIP3    H260928   6.973   2.797   2.115
12317TIP3   OH260929   6.699   3.420   2.535
12317TIP3    H160930   6.736   3.450   2.618
12317TIP3    H260931   6.643   3.494   2.510
12318TIP3   OH260932   7.301   1.919   2.179
12318TIP3    H160933   7.206   1.930   2.202
12318TIP3    H260934   7.320   2.003   2.134
12319TIP3   OH260935   6.096   2.794   2.377
12319TIP3    H160936   6.068   2.872   2.324
12319TIP3    H260937   6.032   2.727   2.350
12320TIP3   OH260938   7.412   3.354   2.018
12320TIP3    H160939   7.430   3.449   2.027
12320TIP3    H260940   7.504   3.322   2.012
12321TIP3   OH260941   5.681   3.314   2.941
12321TIP3    H160942   5.777   3.299   2.942
12321TIP3    H260943   5.673   3.393   2.994
12322TIP3   OH260944   6.647   3.710   2.375
12322TIP3    H160945   6.634   3.703   2.279
12322TIP3    H260946   6.645   3.806   2.391
12323TIP3   OH260947   6.010   3.598   2.559
12323TIP3    H160948   6.025   3.556   2.646
12323TIP3    H260949   5.925   3.557   2.535
12324TIP3   OH260950   6.954   3.632   2.075
12324TIP3    H160951   6.996   3.556   2.030
12324TIP3    H260952   6.954   3.604   2.168
12325TIP3   OH260953   6.924   3.624   2.355
12325TIP3    H160954   6.826   3.635   2.367
12325TIP3    H260955   6.938   3.547   2.410
12326TIP3   OH260956   5.939   3.152   3.355
12326TIP3    H160957   5.953   3.148   3.451
12326TIP3    H260958   5.845   3.139   3.339
12327TIP3   OH260959   6.193   2.024   2.949
12327TIP3    H160960   6.105   2.008   2.912
12327TIP3    H260961   6.188   2.105   3.002
12328TIP3   OH260962   6.992   2.379   3.376
12328TIP3    H160963   6.937   2.359   3.453
12328TIP3    H260964   6.975   2.472   3.356
12329TIP3   OH260965   7.072   2.851   1.971
12329TIP3    H160966   7.069   2.832   1.875
12329TIP3    H260967   7.158   2.895   1.974
12330TIP3   OH260968   6.631   2.243   2.020
12330TIP3    H160969   6.599   2.236   2.112
12330TIP3    H260970   6.601   2.155   1.989
12331TIP3   OH260971   6.210   2.511   3.076
12331TIP3    H160972   6.141   2.512   3.144
12331TIP3    H260973   6.209   2.602   3.040
12332TIP3   OH260974   6.210   2.524   2.566
12332TIP3    H160975   6.115   2.501   2.553
12332TIP3    H260976   6.246   2.497   2.480
12333TIP3   OH260977   6.762   2.577   2.442
12333TIP3    H160978   6.722   2.659   2.405
12333TIP3    H260979   6.830   2.558   2.376
12334TIP3   OH260980   6.865   2.526   2.726
12334TIP3    H160981   6.836   2.583   2.652
12334TIP3    H260982   6.874   2.441   2.680
12335TIP3   OH260983   5.971   2.543   3.256
12335TIP3    H160984   5.979   2.569   3.347
12335TIP3    H260985   5.930   2.455   3.267
12336TIP3   OH260986   6.311   2.278   1.932
12336TIP3    H160987   6.266   2.237   2.008
12336TIP3    H260988   6.241   2.323   1.883
12337TIP3   OH260989   5.643   2.248   2.647
12337TIP3    H160990   5.710   2.246   2.717
12337TIP3    H260991   5.687   2.212   2.568
12338TIP3   OH260992   5.767   2.321   2.180
12338TIP3    H160993   5.820   2.382   2.124
12338TIP3    H260994   5.699   2.384   2.211
12339TIP3   OH260995   6.767   2.684   3.172
12339TIP3    H160996   6.822   2.617   3.128
12339TIP3    H260997   6.741   2.636   3.253
12340TIP3   OH260998   6.463   2.290   2.667
12340TIP3    H160999   6.370   2.279   2.696
12340TIP3    H261000   6.513   2.261   2.746
12341TIP3   OH261001   5.945   2.436   2.553
12341TIP3    H161002   5.857   2.452   2.513
12341TIP3    H261003   5.973   2.352   2.513
12342TIP3   OH261004   6.309   2.442   2.315
12342TIP3    H161005   6.405   2.452   2.331
12342TIP3    H261006   6.286   2.510   2.249
12343TIP3   OH261007   6.909   2.211   2.990
12343TIP3    H161008   6.839   2.211   3.059
12343TIP3    H261009   6.857   2.177   2.915
12344TIP3   OH261010   6.181   2.559   2.074
12344TIP3    H161011   6.127   2.521   2.002
12344TIP3    H261012   6.263   2.580   2.026
12345TIP3   OH261013   6.591   2.556   2.851
12345TIP3    H161014   6.654   2.503   2.802
12345TIP3    H261015   6.581   2.506   2.934
12346TIP3   OH261016   6.093   2.172   2.498
12346TIP3    H161017   6.063   2.079   2.498
12346TIP3    H261018   6.173   2.164   2.444
12347TIP3   OH261019   6.459   2.388   3.098
12347TIP3    H161020   6.376   2.439   3.105
12347TIP3    H261021   6.512   2.424   3.172
12348TIP3   OH261022   6.516   3.011   2.266
12348TIP3    H161023   6.435   2.966   2.232
12348TIP3    H261024   6.492   3.025   2.360
12349TIP3   OH261025   7.234   2.930   3.145
12349TIP3    H161026   7.290   2.983   3.085
12349TIP3    H261027   7.146   2.935   3.102
12350TIP3   OH261028   6.898   2.293   2.083
12350TIP3    H161029   6.803   2.309   2.070
12350TIP3    H261030   6.932   2.378   2.119
12351TIP3   OH261031   6.648   3.043   3.378
12351TIP3    H161032   6.637   2.987   3.458
12351TIP3    H261033   6.657   3.129   3.415
12352TIP3   OH261034   6.971   2.486   2.244
12352TIP3    H161035   7.059   2.473   2.287
12352TIP3    H261036   6.983   2.569   2.194
12353TIP3   OH261037   6.027   2.953   2.847
12353TIP3    H161038   6.093   2.945   2.776
12353TIP3    H261039   6.032   2.866   2.889
12354TIP3   OH261040   6.724   3.158   2.169
12354TIP3    H161041   6.690   3.243   2.204
12354TIP3    H261042   6.651   3.097   2.191
12355TIP3   OH261043   6.886   3.273   3.396
12355TIP3    H161044   6.808   3.311   3.360
12355TIP3    H261045   6.897   3.313   3.482
12356TIP3   OH261046   7.460   2.498   2.224
12356TIP3    H161047   7.404   2.471   2.149
12356TIP3    H261048   7.471   2.592   2.199
12357TIP3   OH261049   7.289   3.383   2.270
12357TIP3    H161050   7.253   3.297   2.294
12357TIP3    H261051   7.323   3.365   2.179
12358TIP3   OH261052   7.013   2.864   2.974
12358TIP3    H161053   6.918   2.843   2.965
12358TIP3    H261054   7.054   2.787   2.934
12359TIP3   OH261055   6.264   3.298   2.585
12359TIP3    H161056   6.314   3.379   2.564
12359TIP3    H261057   6.176   3.320   2.551
12360TIP3   OH261058   5.841   2.781   2.042
12360TIP3    H161059   5.898   2.847   2.083
12360TIP3    H261060   5.751   2.812   2.066
12361TIP3   OH261061   6.404   3.064   2.534
12361TIP3    H161062   6.372   3.156   2.545
12361TIP3    H261063   6.334   3.014   2.580
12362TIP3   OH261064   6.273   3.562   2.488
12362TIP3    H161065   6.177   3.577   2.502
12362TIP3    H261066   6.310   3.646   2.522
12363TIP3   OH261067   6.799   3.083   3.142
12363TIP3    H161068   6.773   3.054   3.231
12363TIP3    H261069   6.865   3.015   3.122
12364TIP3   OH261070   7.037   3.190   2.048
12364TIP3    H161071   7.065   3.140   2.127
12364TIP3    H261072   6.942   3.172   2.055
12365TIP3   OH261073   7.482   3.625   2.077
12365TIP3    H161074   7.551   3.690   2.052
12365TIP3    H261075   7.411   3.688   2.100
12366TIP3   OH261076   5.885   2.257   3.315
12366TIP3    H161077   5.799   2.302   3.327
12366TIP3    H261078   5.880   2.187   3.384
12367TIP3   OH261079   7.114   3.056   2.276
12367TIP3    H161080   7.090   2.974   2.324
12367TIP3    H261081   7.210   3.055   2.288
12368TIP3   OH261082   5.855   3.446   3.170
12368TIP3    H161083   5.882   3.354   3.173
12368TIP3    H261084   5.876   3.476   3.259
12369TIP3   OH261085   6.450   3.297   1.898
12369TIP3    H161086   6.459   3.221   1.838
12369TIP3    H261087   6.404   3.254   1.974
12370TIP3   OH261088   6.325   3.249   2.143
12370TIP3    H161089   6.355   3.198   2.220
12370TIP3    H261090   6.336   3.342   2.176
12371TIP3   OH261091   5.981   2.974   2.192
12371TIP3    H161092   5.909   3.014   2.244
12371TIP3    H261093   6.031   3.052   2.161
12372TIP3   OH261094   6.765   2.239   3.218
12372TIP3    H161095   6.832   2.243   3.288
12372TIP3    H261096   6.721   2.158   3.246
12373TIP3   OH261097   6.841   2.199   2.330
12373TIP3    H161098   6.863   2.246   2.248
12373TIP3    H261099   6.895   2.243   2.396
12374TIP3   OH261100   6.607   3.415   2.212
12374TIP3    H161101   6.525   3.468   2.220
12374TIP3    H261102   6.661   3.471   2.154
12375TIP3   OH261103   6.560   2.378   2.412
12375TIP3    H161104   6.639   2.434   2.419
12375TIP3    H261105   6.535   2.360   2.505
12376TIP3   OH261106   6.631   2.486   3.320
12376TIP3    H161107   6.622   2.530   3.406
12376TIP3    H261108   6.672   2.401   3.342
12377TIP3   OH261109   6.645   2.087   2.484
12377TIP3    H161110   6.615   2.136   2.563
12377TIP3    H261111   6.721   2.141   2.454
12378TIP3   OH261112   6.350   3.518   2.216
12378TIP3    H161113   6.356   3.600   2.160
12378TIP3    H261114   6.320   3.555   2.302
12379TIP3   OH261115   6.212   2.191   2.173
12379TIP3    H161116   6.207   2.280   2.212
12379TIP3    H261117   6.302   2.166   2.200
12380TIP3   OH261118   7.096   2.642   2.816
12380TIP3    H161119   7.014   2.598   2.789
12380TIP3    H261120   7.143   2.575   2.871
12381TIP3   OH261121   6.035   3.235   2.077
12381TIP3    H161122   6.102   3.296   2.109
12381TIP3    H261123   6.087   3.188   2.009
12382TIP3   OH261124   5.869   2.502   1.992
12382TIP3    H161125   5.872   2.598   2.013
12382TIP3    H261126   5.780   2.486   1.961
12383TIP3   OH261127   7.204   3.566   2.980
12383TIP3    H161128   7.193   3.641   2.919
12383TIP3    H261129   7.298   3.576   3.005
12384TIP3   OH261130   5.941   1.984   2.870
12384TIP3    H161131   5.934   1.982   2.771
12384TIP3    H261132   5.911   1.892   2.889
12385TIP3   OH261133   5.847   3.373   2.482
12385TIP3    H161134   5.761   3.417   2.476
12385TIP3    H261135   5.893   3.418   2.410
12386TIP3   OH261136   6.650   3.482   1.910
12386TIP3    H161137   6.580   3.416   1.931
12386TIP3    H261138   6.721   3.421   1.885
12387TIP3   OH261139   7.105   3.455   1.928
12387TIP3    H161140   7.134   3.376   1.977
12387TIP3    H261141   7.181   3.477   1.873
12388TIP3   OH261142   6.193   3.050   1.910
12388TIP3    H161143   6.208   2.974   1.969
12388TIP3    H261144   6.268   3.038   1.849
12389TIP3   OH261145   6.737   3.161   1.888
12389TIP3    H161146   6.710   3.168   1.981
12389TIP3    H261147   6.718   3.066   1.873
12390TIP3   OH261148   6.313   2.852   2.154
12390TIP3    H161149   6.262   2.797   2.216
12390TIP3    H261150   6.344   2.785   2.089
12391TIP3   OH261151   6.421   2.674   1.973
12391TIP3    H161152   6.407   2.666   1.877
12391TIP3    H261153   6.519   2.679   1.980
12392TIP3   OH261154   7.352   2.906   1.914
12392TIP3    H161155   7.335   2.868   1.826
12392TIP3    H261156   7.362   3.002   1.896
12393TIP3   OH261157   6.318   2.198   3.236
12393TIP3    H161158   6.374   2.257   3.182
12393TIP3    H261159   6.229   2.205   3.200
12394TIP3   OH261160   6.471   2.756   3.267
12394TIP3    H161161   6.553   2.736   3.218
12394TIP3    H261162   6.441   2.839   3.229
12395TIP3   OH261163   6.398   1.949   3.285
12395TIP3    H161164   6.386   2.046   3.280
12395TIP3    H261165   6.326   1.918   3.230
12396TIP3   OH261166   6.403   3.745   2.082
12396TIP3    H161167   6.500   3.752   2.088
12396TIP3    H261168   6.390   3.803   2.006
12397TIP3   OH261169   5.758   3.200   2.029
12397TIP3    H161170   5.855   3.210   2.046
12397TIP3    H261171   5.763   3.137   1.953
12398TIP3   OH261172   5.638   3.739   2.524
12398TIP3    H161173   5.565   3.691   2.479
12398TIP3    H261174   5.666   3.675   2.591
12399TIP3   OH261175   5.720   3.554   2.712
12399TIP3    H161176   5.684   3.466   2.734
12399TIP3    H261177   5.743   3.587   2.801
12400TIP3   OH261178   7.471   3.632   3.005
12400TIP3    H161179   7.474   3.649   3.100
12400TIP3    H261180   7.542   3.690   2.975
12401TIP3   OH261181   7.443   3.589   3.301
12401TIP3    H161182   7.382   3.521   3.263
12401TIP3    H261183   7.485   3.539   3.371
12402TIP3   OH261184   7.406   3.002   2.311
12402TIP3    H161185   7.495   3.035   2.327
12402TIP3    H261186   7.404   2.927   2.375
12403TIP3   OH261187   7.441   2.806   2.497
12403TIP3    H161188   7.366   2.756   2.538
12403TIP3    H261189   7.502   2.817   2.574
12404TIP3   OH261190   7.418   3.072   3.001
12404TIP3    H161191   7.499   3.035   2.961
12404TIP3    H261192   7.429   3.166   2.981
12405TIP3   OH261193   7.276   3.366   3.223
12405TIP3    H161194   7.204   3.398   3.280
12405TIP3    H261195   7.222   3.325   3.152
12406TIP3   OH261196   7.474   2.789   2.137
12406TIP3    H161197   7.416   2.821   2.065
12406TIP3    H261198   7.462   2.859   2.203
12407TIP3   OH261199   7.312   2.510   1.988
12407TIP3    H161200   7.318   2.576   1.919
12407TIP3    H261201   7.292   2.428   1.939
12408TIP3   OH261202   7.225   2.652   2.557
12408TIP3    H161203   7.211   2.557   2.552
12408TIP3    H261204   7.193   2.672   2.647
12409TIP3   OH261205   5.726   2.860   2.962
12409TIP3    H161206   5.742   2.853   2.866
12409TIP3    H261207   5.815   2.843   2.998
12410TIP3   OH261208   7.236   2.258   1.902
12410TIP3    H161209   7.294   2.214   1.966
12410TIP3    H261210   7.149   2.217   1.917
12411TIP3   OH261211   7.189   2.411   2.396
12411TIP3    H161212   7.220   2.318   2.413
12411TIP3    H261213   7.272   2.451   2.367
12412TIP3   OH261214   7.255   2.465   2.946
12412TIP3    H161215   7.351   2.487   2.945
12412TIP3    H261216   7.237   2.481   3.041
12413TIP3   OH261217   7.257   2.539   3.221
12413TIP3    H161218   7.174   2.573   3.258
12413TIP3    H261219   7.309   2.621   3.205
12414TIP3   OH261220   7.257   2.141   2.406
12414TIP3    H161221   7.281   2.098   2.491
12414TIP3    H261222   7.199   2.075   2.362
12415TIP3   OH261223   5.804   2.219   2.875
12415TIP3    H161224   5.857   2.137   2.879
12415TIP3    H261225   5.865   2.291   2.895
12416TIP3   OH261226   5.636   2.513   2.967
12416TIP3    H161227   5.691   2.495   2.888
12416TIP3    H261228   5.676   2.597   2.992
12417TIP3   OH261229   7.440   2.143   2.061
12417TIP3    H161230   7.482   2.072   2.008
12417TIP3    H261231   7.510   2.210   2.067
12418TIP3   OH261232   5.673   2.149   2.374
12418TIP3    H161233   5.579   2.163   2.357
12418TIP3    H261234   5.714   2.196   2.300
12419TIP3   OH261235   7.143   3.642   2.578
12419TIP3    H161236   7.187   3.648   2.494
12419TIP3    H261237   7.189   3.703   2.640
12420TIP3   OH261238   5.670   2.019   3.203
12420TIP3    H161239   5.607   1.988   3.270
12420TIP3    H261240   5.615   2.080   3.149
12421TIP3   OH261241   6.180   3.431   3.236
12421TIP3    H161242   6.141   3.518   3.220
12421TIP3    H261243   6.271   3.446   3.219
12422TIP3   OH261244   7.341   1.965   3.381
12422TIP3    H161245   7.259   1.991   3.336
12422TIP3    H261246   7.353   1.884   3.329
12423TIP3   OH261247   5.918   3.751   3.243
12423TIP3    H161248   5.848   3.808   3.210
12423TIP3    H261249   5.890   3.739   3.336
12424TIP3   OH261250   6.169   3.711   3.143
12424TIP3    H161251   6.087   3.728   3.196
12424TIP3    H261252   6.162   3.780   3.075
12425TIP3   OH261253   6.640   3.704   3.072
12425TIP3    H161254   6.596   3.759   3.006
12425TIP3    H261255   6.654   3.769   3.145
12426TIP3   OH261256   6.869   3.580   3.158
12426TIP3    H161257   6.783   3.619   3.135
12426TIP3    H261258   6.919   3.664   3.169
12427TIP3   OH261259   7.138   3.745   3.195
12427TIP3    H161260   7.122   3.839   3.174
12427TIP3    H261261   7.149   3.704   3.108
12428TIP3   OH261262   5.871   3.621   2.936
12428TIP3    H161263   5.863   3.578   3.024
12428TIP3    H261264   5.953   3.581   2.900
12429TIP3   OH261265   6.078   3.492   2.806
12429TIP3    H161266   6.061   3.398   2.829
12429TIP3    H261267   6.163   3.508   2.851
12430TIP3   OH261268   6.337   3.541   2.891
12430TIP3    H161269   6.350   3.448   2.866
12430TIP3    H261270   6.340   3.539   2.988
12431TIP3   OH261271   6.708   2.129   2.824
12431TIP3    H161272   6.633   2.070   2.841
12431TIP3    H261273   6.740   2.070   2.753
12432TIP3   OH261274   7.197   1.910   2.814
12432TIP3    H161275   7.257   1.969   2.762
12432TIP3    H261276   7.107   1.944   2.790
12433TIP3   OH261277   7.363   2.035   2.639
12433TIP3    H161278   7.432   1.977   2.599
12433TIP3    H261279   7.415   2.119   2.651
12434TIP3   OH261280   5.919   1.967   2.594
12434TIP3    H161281   5.840   1.950   2.540
12434TIP3    H261282   5.965   1.882   2.584
12435TIP3   OH261283   5.796   1.943   2.163
12435TIP3    H161284   5.846   2.008   2.110
12435TIP3    H261285   5.741   2.000   2.218
12436TIP3   OH261286   6.349   1.976   2.564
12436TIP3    H161287   6.446   1.988   2.555
12436TIP3    H261288   6.361   1.936   2.651
12437TIP3   OH261289   6.945   1.960   2.730
12437TIP3    H161290   6.930   1.973   2.636
12437TIP3    H261291   6.895   1.875   2.746
12438TIP3   OH261292   7.065   1.964   2.301
12438TIP3    H161293   6.990   2.024   2.286
12438TIP3    H261294   7.020   1.880   2.327
12439TIP3   OH261295   5.788   3.538   2.268
12439TIP3    H161296   5.723   3.536   2.195
12439TIP3    H261297   5.788   3.633   2.284
12440TIP3   OH261298   5.979   2.137   2.015
12440TIP3    H161299   6.032   2.076   1.963
12440TIP3    H261300   6.046   2.170   2.078
12441TIP3   OH261301   6.482   2.162   2.255
12441TIP3    H161302   6.509   2.104   2.329
12441TIP3    H261303   6.491   2.248   2.302
12442TIP3   OH261304   6.676   3.670   2.100
12442TIP3    H161305   6.768   3.691   2.077
12442TIP3    H261306   6.654   3.617   2.021
12443TIP3   OH261307   7.359   3.623   2.353
12443TIP3    H161308   7.333   3.550   2.292
12443TIP3    H261309   7.342   3.702   2.294
12444TIP3   OH261310   5.967   3.637   1.961
12444TIP3    H161311   5.941   3.663   2.051
12444TIP3    H261312   6.045   3.580   1.976
12445TIP3   OH261313   7.830   2.775   3.088
12445TIP3    H161314   7.845   2.705   3.154
12445TIP3    H261315   7.908   2.829   3.105
12446TIP3   OH261316   7.909   3.207   2.947
12446TIP3    H161317   7.890   3.123   2.901
12446TIP3    H261318   8.007   3.208   2.941
12447TIP3   OH261319   7.589   2.575   2.481
12447TIP3    H161320   7.547   2.663   2.475
12447TIP3    H261321   7.530   2.521   2.425
12448TIP3   OH261322   7.663   2.799   2.697
12448TIP3    H161323   7.689   2.716   2.740
12448TIP3    H261324   7.732   2.807   2.630
12449TIP3   OH261325   7.724   2.542   2.800
12449TIP3    H161326   7.793   2.491   2.846
12449TIP3    H261327   7.742   2.513   2.709
12450TIP3   OH261328   7.937   2.187   3.124
12450TIP3    H161329   7.925   2.254   3.054
12450TIP3    H261330   7.881   2.225   3.196
12451TIP3   OH261331   7.901   2.364   2.927
12451TIP3    H161332   7.956   2.437   2.967
12451TIP3    H261333   7.959   2.335   2.854
12452TIP3   OH261334   7.670   3.122   2.318
12452TIP3    H161335   7.636   3.149   2.230
12452TIP3    H261336   7.661   3.204   2.369
12453TIP3   OH261337   7.900   2.842   3.361
12453TIP3    H161338   7.901   2.888   3.445
12453TIP3    H261339   7.806   2.831   3.342
12454TIP3   OH261340   7.979   2.802   2.373
12454TIP3    H161341   7.949   2.877   2.319
12454TIP3    H261342   7.916   2.732   2.352
12455TIP3   OH261343   7.603   3.035   3.251
12455TIP3    H161344   7.545   3.031   3.173
12455TIP3    H261345   7.591   2.945   3.284
12456TIP3   OH261346   7.568   3.317   2.939
12456TIP3    H161347   7.663   3.299   2.939
12456TIP3    H261348   7.560   3.393   2.997
12457TIP3   OH261349   7.888   3.586   2.560
12457TIP3    H161350   7.899   3.551   2.651
12457TIP3    H261351   7.799   3.554   2.540
12458TIP3   OH261352   7.524   2.248   2.646
12458TIP3    H161353   7.592   2.245   2.717
12458TIP3    H261354   7.572   2.214   2.568
12459TIP3   OH261355   7.649   2.321   2.181
12459TIP3    H161356   7.702   2.382   2.126
12459TIP3    H261357   7.579   2.384   2.210
12460TIP3   OH261358   7.827   2.440   2.551
12460TIP3    H161359   7.738   2.449   2.511
12460TIP3    H261360   7.860   2.354   2.521
12461TIP3   OH261361   7.929   2.166   2.479
12461TIP3    H161362   7.925   2.072   2.506
12461TIP3    H261363   8.026   2.174   2.472
12462TIP3   OH261364   7.910   2.953   2.841
12462TIP3    H161365   7.985   2.945   2.780
12462TIP3    H261366   7.915   2.868   2.888
12463TIP3   OH261367   7.731   2.779   2.042
12463TIP3    H161368   7.784   2.848   2.084
12463TIP3    H261369   7.639   2.808   2.064
12464TIP3   OH261370   7.777   2.259   3.326
12464TIP3    H161371   7.691   2.305   3.319
12464TIP3    H261372   7.758   2.181   3.377
12465TIP3   OH261373   7.872   2.976   2.194
12465TIP3    H161374   7.793   3.010   2.241
12465TIP3    H261375   7.913   3.057   2.161
12466TIP3   OH261376   7.921   3.235   2.075
12466TIP3    H161377   7.984   3.302   2.104
12466TIP3    H261378   7.976   3.191   2.008
12467TIP3   OH261379   7.757   2.500   1.999
12467TIP3    H161380   7.758   2.598   2.008
12467TIP3    H261381   7.670   2.484   1.960
12468TIP3   OH261382   7.834   1.982   2.867
12468TIP3    H161383   7.823   1.987   2.770
12468TIP3    H261384   7.798   1.895   2.890
12469TIP3   OH261385   7.731   3.370   2.478
12469TIP3    H161386   7.646   3.417   2.478
12469TIP3    H261387   7.777   3.422   2.410
12470TIP3   OH261388   7.649   3.201   2.028
12470TIP3    H161389   7.745   3.211   2.044
12470TIP3    H261390   7.652   3.137   1.953
12471TIP3   OH261391   7.521   3.740   2.528
12471TIP3    H161392   7.458   3.693   2.470
12471TIP3    H261393   7.556   3.675   2.592
12472TIP3   OH261394   7.597   3.552   2.711
12472TIP3    H161395   7.575   3.462   2.738
12472TIP3    H261396   7.632   3.585   2.797
12473TIP3   OH261397   7.612   2.864   2.960
12473TIP3    H161398   7.635   2.851   2.865
12473TIP3    H261399   7.699   2.842   3.001
12474TIP3   OH261400   7.688   2.221   2.865
12474TIP3    H161401   7.740   2.139   2.883
12474TIP3    H261402   7.751   2.288   2.896
12475TIP3   OH261403   7.515   2.519   2.960
12475TIP3    H161404   7.578   2.494   2.889
12475TIP3    H261405   7.562   2.597   2.994
12476TIP3   OH261406   7.557   2.146   2.372
12476TIP3    H161407   7.463   2.163   2.358
12476TIP3    H261408   7.598   2.197   2.300
12477TIP3   OH261409   7.546   2.008   3.203
12477TIP3    H161410   7.479   2.002   3.272
12477TIP3    H261411   7.510   2.083   3.150
12478TIP3   OH261412   7.810   3.757   3.254
12478TIP3    H161413   7.738   3.801   3.205
12478TIP3    H261414   7.771   3.732   3.339
12479TIP3   OH261415   8.036   3.679   3.127
12479TIP3    H161416   7.970   3.719   3.189
12479TIP3    H261417   8.057   3.760   3.077
12480TIP3   OH261418   7.746   3.619   2.940
12480TIP3    H161419   7.750   3.581   3.028
12480TIP3    H261420   7.831   3.587   2.901
12481TIP3   OH261421   7.945   3.487   2.818
12481TIP3    H161422   7.939   3.392   2.837
12481TIP3    H261423   8.032   3.505   2.857
12482TIP3   OH261424   7.798   1.962   2.594
12482TIP3    H161425   7.720   1.943   2.539
12482TIP3    H261426   7.851   1.881   2.590
12483TIP3   OH261427   7.680   1.943   2.160
12483TIP3    H161428   7.731   2.011   2.111
12483TIP3    H261429   7.626   1.999   2.219
12484TIP3   OH261430   7.673   3.538   2.268
12484TIP3    H161431   7.607   3.537   2.196
12484TIP3    H261432   7.678   3.635   2.279
12485TIP3   OH261433   7.864   2.132   2.023
12485TIP3    H161434   7.919   2.080   1.962
12485TIP3    H261435   7.929   2.176   2.078
12486TIP3   OH261436   7.856   3.644   1.959
12486TIP3    H161437   7.828   3.668   2.050
12486TIP3    H261438   7.929   3.584   1.976
12487TIP3   OH261439   1.174   4.768   2.576
12487TIP3    H161440   1.172   4.866   2.580
12487TIP3    H261441   1.098   4.750   2.519
12488TIP3   OH261442   1.060   4.692   2.928
12488TIP3    H161443   1.055   4.629   3.001
12488TIP3    H261444   1.022   4.642   2.854
12489TIP3   OH261445   0.298   4.662   3.082
12489TIP3    H161446   0.301   4.588   3.146
12489TIP3    H261447   0.377   4.713   3.105
12490TIP3   OH261448   1.422   4.988   2.753
12490TIP3    H161449   1.385   4.916   2.805
12490TIP3    H261450   1.429   5.058   2.821
12491TIP3   OH261451   0.382   5.102   2.940
12491TIP3    H161452   0.354   5.017   2.901
12491TIP3    H261453   0.478   5.090   2.932
12492TIP3   OH261454   0.055   4.461   2.475
12492TIP3    H161455   0.012   4.550   2.477
12492TIP3    H261456  -0.012   4.411   2.429
12493TIP3   OH261457   0.119   4.680   2.695
12493TIP3    H161458   0.146   4.598   2.741
12493TIP3    H261459   0.189   4.691   2.629
12494TIP3   OH261460   1.136   5.505   2.784
12494TIP3    H161461   1.201   5.437   2.752
12494TIP3    H261462   1.118   5.469   2.872
12495TIP3   OH261463   0.894   4.934   2.979
12495TIP3    H161464   0.929   4.873   2.911
12495TIP3    H261465   0.977   4.949   3.028
12496TIP3   OH261466   1.758   4.097   3.053
12496TIP3    H161467   1.767   4.164   3.123
12496TIP3    H261468   1.810   4.139   2.983
12497TIP3   OH261469   1.207   4.381   3.004
12497TIP3    H161470   1.231   4.286   3.006
12497TIP3    H261471   1.200   4.394   2.907
12498TIP3   OH261472   0.522   4.189   2.726
12498TIP3    H161473   0.536   4.273   2.678
12498TIP3    H261474   0.487   4.131   2.657
12499TIP3   OH261475   1.295   4.199   2.564
12499TIP3    H161476   1.358   4.164   2.631
12499TIP3    H261477   1.356   4.254   2.513
12500TIP3   OH261478   0.195   4.431   2.799
12500TIP3    H161479   0.258   4.373   2.846
12500TIP3    H261480   0.199   4.396   2.708
12501TIP3   OH261481   0.702   4.585   2.732
12501TIP3    H161482   0.767   4.526   2.774
12501TIP3    H261483   0.649   4.519   2.683
12502TIP3   OH261484   0.414   4.078   3.130
12502TIP3    H161485   0.388   4.139   3.059
12502TIP3    H261486   0.347   4.101   3.199
12503TIP3   OH261487   1.141   5.025   2.485
12503TIP3    H161488   1.116   5.001   2.395
12503TIP3    H261489   1.112   5.119   2.491
12504TIP3   OH261490   0.668   4.855   3.163
12504TIP3    H161491   0.588   4.908   3.161
12504TIP3    H261492   0.738   4.906   3.119
12505TIP3   OH261493   1.475   4.131   2.765
12505TIP3    H161494   1.457   4.055   2.821
12505TIP3    H261495   1.544   4.175   2.817
12506TIP3   OH261496   0.369   4.266   2.928
12506TIP3    H161497   0.433   4.330   2.968
12506TIP3    H261498   0.428   4.223   2.861
12507TIP3   OH261499   0.116   5.005   2.313
12507TIP3    H161500   0.091   5.039   2.227
12507TIP3    H261501   0.126   5.086   2.367
12508TIP3   OH261502   1.476   5.171   2.985
12508TIP3    H161503   1.381   5.184   3.007
12508TIP3    H261504   1.505   5.264   2.979
12509TIP3   OH261505   1.502   3.996   3.126
12509TIP3    H161506   1.438   4.068   3.129
12509TIP3    H261507   1.578   4.042   3.086
12510TIP3   OH261508   0.809   3.814   2.876
12510TIP3    H161509   0.794   3.719   2.868
12510TIP3    H261510   0.721   3.845   2.906
12511TIP3   OH261511   1.304   5.351   2.651
12511TIP3    H161512   1.347   5.279   2.601
12511TIP3    H261513   1.350   5.429   2.613
12512TIP3   OH261514   1.429   5.144   2.504
12512TIP3    H161515   1.396   5.075   2.443
12512TIP3    H261516   1.429   5.093   2.588
12513TIP3   OH261517   1.042   4.716   2.346
12513TIP3    H161518   0.969   4.771   2.306
12513TIP3    H261519   1.115   4.734   2.283
12514TIP3   OH261520   1.050   4.544   2.021
12514TIP3    H161521   1.136   4.552   2.067
12514TIP3    H261522   1.076   4.474   1.958
12515TIP3   OH261523   1.777   4.633   3.150
12515TIP3    H161524   1.713   4.706   3.163
12515TIP3    H261525   1.824   4.664   3.071
12516TIP3   OH261526   1.378   4.703   2.419
12516TIP3    H161527   1.311   4.738   2.483
12516TIP3    H261528   1.434   4.647   2.476
12517TIP3   OH261529   1.372   4.530   3.334
12517TIP3    H161530   1.381   4.612   3.383
12517TIP3    H261531   1.311   4.558   3.263
12518TIP3   OH261532   0.545   4.779   2.612
12518TIP3    H161533   0.511   4.739   2.528
12518TIP3    H261534   0.606   4.709   2.645
12519TIP3   OH261535   0.672   5.112   2.888
12519TIP3    H161536   0.675   5.068   2.801
12519TIP3    H261537   0.757   5.082   2.925
12520TIP3   OH261538   0.575   4.654   2.978
12520TIP3    H161539   0.630   4.661   2.897
12520TIP3    H261540   0.619   4.716   3.040
12521TIP3   OH261541   1.216   5.210   3.051
12521TIP3    H161542   1.188   5.275   3.117
12521TIP3    H261543   1.192   5.125   3.094
12522TIP3   OH261544   1.263   4.637   2.188
12522TIP3    H161545   1.325   4.650   2.266
12522TIP3    H261546   1.314   4.681   2.116
12523TIP3   OH261547   1.041   5.304   2.534
12523TIP3    H161548   1.084   5.335   2.615
12523TIP3    H261549   0.986   5.379   2.509
12524TIP3   OH261550   1.644   3.805   2.179
12524TIP3    H161551   1.548   3.815   2.202
12524TIP3    H261552   1.663   3.889   2.134
12525TIP3   OH261553   0.445   4.680   2.374
12525TIP3    H161554   0.413   4.758   2.325
12525TIP3    H261555   0.378   4.614   2.353
12526TIP3   OH261556   1.754   5.241   2.013
12526TIP3    H161557   1.772   5.335   2.030
12526TIP3    H261558   1.846   5.209   2.014
12527TIP3   OH261559   0.076   4.875   3.225
12527TIP3    H161560  -0.002   4.901   3.172
12527TIP3    H261561   0.037   4.811   3.284
12528TIP3   OH261562   0.049   5.212   2.933
12528TIP3    H161563   0.143   5.191   2.942
12528TIP3    H261564   0.031   5.279   3.001
12529TIP3   OH261565   0.950   5.226   3.393
12529TIP3    H161566   0.961   5.304   3.450
12529TIP3    H261567   0.867   5.193   3.427
12530TIP3   OH261568   0.990   5.595   2.375
12530TIP3    H161569   0.979   5.587   2.279
12530TIP3    H261570   0.990   5.691   2.392
12531TIP3   OH261571   0.358   5.480   2.556
12531TIP3    H161572   0.368   5.444   2.647
12531TIP3    H261573   0.272   5.442   2.533
12532TIP3   OH261574   1.295   5.517   2.074
12532TIP3    H161575   1.341   5.442   2.031
12532TIP3    H261576   1.299   5.492   2.169
12533TIP3   OH261577   1.265   5.511   2.352
12533TIP3    H161578   1.168   5.518   2.368
12533TIP3    H261579   1.287   5.436   2.409
12534TIP3   OH261580   0.547   3.901   2.953
12534TIP3    H161581   0.457   3.890   2.917
12534TIP3    H261582   0.535   3.982   3.004
12535TIP3   OH261583   1.007   3.851   3.285
12535TIP3    H161584   1.047   3.845   3.373
12535TIP3    H261585   0.912   3.861   3.308
12536TIP3   OH261586   1.416   4.733   1.972
12536TIP3    H161587   1.413   4.718   1.874
12536TIP3    H261588   1.500   4.781   1.975
12537TIP3   OH261589   0.974   4.130   2.022
12537TIP3    H161590   0.941   4.119   2.113
12537TIP3    H261591   0.945   4.042   1.988
12538TIP3   OH261592   0.553   4.397   3.074
12538TIP3    H161593   0.486   4.398   3.144
12538TIP3    H261594   0.554   4.490   3.043
12539TIP3   OH261595   0.554   4.409   2.566
12539TIP3    H161596   0.459   4.392   2.552
12539TIP3    H261597   0.590   4.383   2.479
12540TIP3   OH261598   1.097   4.458   2.434
12540TIP3    H161599   1.075   4.552   2.428
12540TIP3    H261600   1.182   4.445   2.386
12541TIP3   OH261601   1.207   4.409   2.729
12541TIP3    H161602   1.180   4.468   2.657
12541TIP3    H261603   1.218   4.326   2.680
12542TIP3   OH261604   0.310   4.435   3.249
12542TIP3    H161605   0.329   4.459   3.340
12542TIP3    H261606   0.278   4.344   3.264
12543TIP3   OH261607   0.654   4.164   1.932
12543TIP3    H161608   0.609   4.123   2.008
12543TIP3    H261609   0.584   4.208   1.883
12544TIP3   OH261610   0.015   4.177   2.659
12544TIP3    H161611   0.058   4.135   2.737
12544TIP3    H261612  -0.023   4.108   2.605
12545TIP3   OH261613   0.115   4.222   2.191
12545TIP3    H161614   0.163   4.269   2.119
12545TIP3    H261615   0.039   4.279   2.202
12546TIP3   OH261616   1.125   4.573   3.179
12546TIP3    H161617   1.164   4.502   3.125
12546TIP3    H261618   1.083   4.517   3.247
12547TIP3   OH261619   0.808   4.167   2.665
12547TIP3    H161620   0.714   4.167   2.695
12547TIP3    H261621   0.856   4.149   2.747
12548TIP3   OH261622   0.288   4.314   2.558
12548TIP3    H161623   0.206   4.344   2.513
12548TIP3    H261624   0.321   4.241   2.505
12549TIP3   OH261625   0.652   4.327   2.315
12549TIP3    H161626   0.747   4.336   2.332
12549TIP3    H261627   0.626   4.395   2.249
12550TIP3   OH261628   1.246   4.093   2.995
12550TIP3    H161629   1.177   4.092   3.062
12550TIP3    H261630   1.199   4.064   2.916
12551TIP3   OH261631   0.526   4.444   2.074
12551TIP3    H161632   0.470   4.407   2.003
12551TIP3    H261633   0.604   4.465   2.022
12552TIP3   OH261634   0.935   4.441   2.855
12552TIP3    H161635   0.997   4.389   2.804
12552TIP3    H261636   0.922   4.387   2.935
12553TIP3   OH261637   0.432   4.055   2.493
12553TIP3    H161638   0.413   3.960   2.498
12553TIP3    H261639   0.517   4.052   2.446
12554TIP3   OH261640   0.804   4.274   3.100
12554TIP3    H161641   0.720   4.323   3.107
12554TIP3    H261642   0.854   4.311   3.175
12555TIP3   OH261643   0.859   4.892   2.267
12555TIP3    H161644   0.775   4.853   2.233
12555TIP3    H261645   0.834   4.915   2.359
12556TIP3   OH261646   1.578   4.810   3.141
12556TIP3    H161647   1.635   4.869   3.090
12556TIP3    H261648   1.491   4.825   3.102
12557TIP3   OH261649   1.241   4.178   2.087
12557TIP3    H161650   1.146   4.191   2.067
12557TIP3    H261651   1.275   4.264   2.118
12558TIP3   OH261652   0.995   4.925   3.381
12558TIP3    H161653   0.975   4.884   3.466
12558TIP3    H261654   0.998   5.019   3.401
12559TIP3   OH261655   1.309   4.379   2.247
12559TIP3    H161656   1.397   4.356   2.287
12559TIP3    H261657   1.334   4.453   2.191
12560TIP3   OH261658   0.371   4.840   2.847
12560TIP3    H161659   0.435   4.831   2.774
12560TIP3    H261660   0.375   4.751   2.887
12561TIP3   OH261661   1.068   5.042   2.171
12561TIP3    H161662   1.035   5.128   2.203
12561TIP3    H261663   0.993   4.983   2.192
12562TIP3   OH261664   1.805   4.384   2.223
12562TIP3    H161665   1.748   4.357   2.149
12562TIP3    H261666   1.813   4.479   2.200
12563TIP3   OH261667   1.630   5.268   2.262
12563TIP3    H161668   1.598   5.184   2.298
12563TIP3    H261669   1.667   5.245   2.175
12564TIP3   OH261670   1.355   4.752   2.975
12564TIP3    H161671   1.261   4.728   2.968
12564TIP3    H261672   1.399   4.675   2.935
12565TIP3   OH261673   0.609   5.182   2.585
12565TIP3    H161674   0.657   5.264   2.564
12565TIP3    H261675   0.520   5.205   2.552
12566TIP3   OH261676   0.181   4.665   2.045
12566TIP3    H161677   0.244   4.730   2.083
12566TIP3    H261678   0.096   4.701   2.073
12567TIP3   OH261679   0.749   4.948   2.532
12567TIP3    H161680   0.717   5.040   2.545
12567TIP3    H261681   0.679   4.898   2.579
12568TIP3   OH261682   0.795   5.368   3.178
12568TIP3    H161683   0.840   5.448   3.147
12568TIP3    H261684   0.859   5.335   3.244
12569TIP3   OH261685   0.617   5.447   2.488
12569TIP3    H161686   0.521   5.462   2.502
12569TIP3    H261687   0.653   5.532   2.522
12570TIP3   OH261688   1.141   4.966   3.136
12570TIP3    H161689   1.115   4.951   3.229
12570TIP3    H261690   1.211   4.900   3.125
12571TIP3   OH261691   1.381   5.077   2.048
12571TIP3    H161692   1.410   5.028   2.128
12571TIP3    H261693   1.286   5.058   2.055
12572TIP3   OH261694   1.826   5.510   2.074
12572TIP3    H161695   1.894   5.577   2.053
12572TIP3    H261696   1.754   5.571   2.102
12573TIP3   OH261697   0.232   4.153   3.329
12573TIP3    H161698   0.139   4.180   3.324
12573TIP3    H261699   0.219   4.067   3.371
12574TIP3   OH261700   1.456   4.936   2.272
12574TIP3    H161701   1.434   4.859   2.327
12574TIP3    H261702   1.551   4.942   2.289
12575TIP3   OH261703   0.212   5.371   3.143
12575TIP3    H161704   0.236   5.278   3.140
12575TIP3    H261705   0.218   5.379   3.239
12576TIP3   OH261706   0.794   5.183   1.898
12576TIP3    H161707   0.802   5.107   1.838
12576TIP3    H261708   0.747   5.139   1.973
12577TIP3   OH261709   0.666   5.136   2.143
12577TIP3    H161710   0.697   5.084   2.218
12577TIP3    H261711   0.679   5.228   2.175
12578TIP3   OH261712   0.325   4.859   2.192
12578TIP3    H161713   0.253   4.897   2.246
12578TIP3    H261714   0.372   4.938   2.162
12579TIP3   OH261715   1.178   4.088   2.332
12579TIP3    H161716   1.207   4.126   2.247
12579TIP3    H261717   1.240   4.128   2.394
12580TIP3   OH261718   0.950   5.300   2.211
12580TIP3    H161719   0.868   5.354   2.220
12580TIP3    H261720   1.004   5.357   2.154
12581TIP3   OH261721   0.902   4.266   2.413
12581TIP3    H161722   0.985   4.315   2.425
12581TIP3    H261723   0.875   4.243   2.505
12582TIP3   OH261724   0.985   4.372   3.318
12582TIP3    H161725   0.953   4.412   3.401
12582TIP3    H261726   1.010   4.284   3.350
12583TIP3   OH261727   0.988   3.964   2.501
12583TIP3    H161728   0.956   4.030   2.565
12583TIP3    H261729   1.059   4.018   2.458
12584TIP3   OH261730   0.691   5.403   2.215
12584TIP3    H161731   0.700   5.485   2.159
12584TIP3    H261732   0.664   5.441   2.302
12585TIP3   OH261733   0.554   4.076   2.177
12585TIP3    H161734   0.551   4.167   2.211
12585TIP3    H261735   0.647   4.053   2.199
12586TIP3   OH261736   1.439   4.529   2.814
12586TIP3    H161737   1.356   4.483   2.791
12586TIP3    H261738   1.487   4.462   2.868
12587TIP3   OH261739   0.378   5.120   2.076
12587TIP3    H161740   0.446   5.182   2.109
12587TIP3    H261741   0.431   5.073   2.009
12588TIP3   OH261742   0.212   4.388   1.991
12588TIP3    H161743   0.211   4.483   2.013
12588TIP3    H261744   0.123   4.372   1.956
12589TIP3   OH261745   1.544   5.454   2.985
12589TIP3    H161746   1.535   5.523   2.917
12589TIP3    H261747   1.640   5.460   3.003
12590TIP3   OH261748   0.291   3.870   2.860
12590TIP3    H161749   0.273   3.865   2.765
12590TIP3    H261750   0.256   3.783   2.891
12591TIP3   OH261751   0.190   5.255   2.480
12591TIP3    H161752   0.107   5.304   2.476
12591TIP3    H261753   0.239   5.304   2.413
12592TIP3   OH261754   0.993   5.368   1.910
12592TIP3    H161755   0.923   5.301   1.931
12592TIP3    H261756   1.064   5.307   1.885
12593TIP3   OH261757   1.448   5.341   1.928
12593TIP3    H161758   1.477   5.264   1.979
12593TIP3    H261759   1.524   5.362   1.873
12594TIP3   OH261760   0.536   4.935   1.909
12594TIP3    H161761   0.550   4.860   1.968
12594TIP3    H261762   0.612   4.924   1.849
12595TIP3   OH261763   1.080   5.049   1.887
12595TIP3    H161764   1.051   5.057   1.979
12595TIP3    H261765   1.061   4.953   1.872
12596TIP3   OH261766   0.662   4.735   2.155
12596TIP3    H161767   0.603   4.685   2.214
12596TIP3    H261768   0.683   4.670   2.086
12597TIP3   OH261769   0.767   4.558   1.974
12597TIP3    H161770   0.746   4.552   1.878
12597TIP3    H261771   0.863   4.565   1.973
12598TIP3   OH261772   1.696   4.791   1.914
12598TIP3    H161773   1.678   4.754   1.826
12598TIP3    H261774   1.706   4.888   1.895
12599TIP3   OH261775   0.665   4.080   3.239
12599TIP3    H161776   0.714   4.141   3.180
12599TIP3    H261777   0.574   4.088   3.206
12600TIP3   OH261778   0.820   4.646   3.265
12600TIP3    H161779   0.897   4.623   3.211
12600TIP3    H261780   0.783   4.727   3.230
12601TIP3   OH261781   0.740   3.834   3.284
12601TIP3    H161782   0.733   3.933   3.282
12601TIP3    H261783   0.666   3.814   3.230
12602TIP3   OH261784   0.747   5.630   2.082
12602TIP3    H161785   0.844   5.637   2.088
12602TIP3    H261786   0.733   5.689   2.006
12603TIP3   OH261787   0.106   5.086   2.030
12603TIP3    H161788   0.203   5.098   2.046
12603TIP3    H261789   0.112   5.021   1.957
12604TIP3   OH261790  -0.004   5.636   2.513
12604TIP3    H161791  -0.085   5.589   2.484
12604TIP3    H261792   0.015   5.575   2.587
12605TIP3   OH261793   0.085   5.442   2.705
12605TIP3    H161794   0.035   5.359   2.719
12605TIP3    H261795   0.096   5.477   2.796
12606TIP3   OH261796   1.817   5.519   3.008
12606TIP3    H161797   1.820   5.536   3.103
12606TIP3    H261798   1.887   5.578   2.976
12607TIP3   OH261799   1.771   5.474   3.309
12607TIP3    H161800   1.722   5.401   3.263
12607TIP3    H261801   1.831   5.426   3.366
12608TIP3   OH261802   1.751   4.884   2.309
12608TIP3    H161803   1.837   4.923   2.328
12608TIP3    H261804   1.748   4.813   2.376
12609TIP3   OH261805   1.785   4.691   2.498
12609TIP3    H161806   1.710   4.642   2.539
12609TIP3    H261807   1.846   4.704   2.575
12610TIP3   OH261808   1.758   4.960   2.994
12610TIP3    H161809   1.843   4.922   2.964
12610TIP3    H261810   1.775   5.056   2.984
12611TIP3   OH261811   1.617   5.257   3.223
12611TIP3    H161812   1.547   5.275   3.287
12611TIP3    H261813   1.567   5.205   3.157
12612TIP3   OH261814   1.816   4.673   2.138
12612TIP3    H161815   1.759   4.706   2.065
12612TIP3    H261816   1.806   4.745   2.203
12613TIP3   OH261817   1.656   4.395   1.987
12613TIP3    H161818   1.661   4.462   1.918
12613TIP3    H261819   1.635   4.313   1.938
12614TIP3   OH261820   1.569   4.539   2.557
12614TIP3    H161821   1.554   4.443   2.551
12614TIP3    H261822   1.535   4.558   2.647
12615TIP3   OH261823   0.069   4.744   2.961
12615TIP3    H161824   0.088   4.738   2.865
12615TIP3    H261825   0.158   4.731   2.999
12616TIP3   OH261826   1.579   4.144   1.902
12616TIP3    H161827   1.638   4.099   1.966
12616TIP3    H261828   1.493   4.102   1.916
12617TIP3   OH261829   1.530   4.297   2.396
12617TIP3    H161830   1.563   4.206   2.413
12617TIP3    H261831   1.612   4.338   2.366
12618TIP3   OH261832   1.599   4.350   2.943
12618TIP3    H161833   1.694   4.374   2.946
12618TIP3    H261834   1.581   4.366   3.039
12619TIP3   OH261835   1.600   4.426   3.204
12619TIP3    H161836   1.524   4.447   3.262
12619TIP3    H261837   1.655   4.507   3.210
12620TIP3   OH261838   1.601   4.027   2.406
12620TIP3    H161839   1.625   3.983   2.491
12620TIP3    H261840   1.543   3.961   2.362
12621TIP3   OH261841   0.155   4.104   2.860
12621TIP3    H161842   0.199   4.023   2.893
12621TIP3    H261843   0.204   4.174   2.907
12622TIP3   OH261844   0.002   4.411   2.977
12622TIP3    H161845   0.046   4.390   2.893
12622TIP3    H261846   0.032   4.502   2.990
12623TIP3   OH261847   1.784   4.029   2.062
12623TIP3    H161848   1.825   3.958   2.007
12623TIP3    H261849   1.855   4.095   2.067
12624TIP3   OH261850   0.031   4.018   2.325
12624TIP3    H161851  -0.066   4.037   2.326
12624TIP3    H261852   0.065   4.093   2.271
12625TIP3   OH261853   1.489   5.527   2.568
12625TIP3    H161854   1.558   5.497   2.506
12625TIP3    H261855   1.541   5.577   2.633
12626TIP3   OH261856   0.029   3.912   3.219
12626TIP3    H161857  -0.045   3.886   3.274
12626TIP3    H261858  -0.023   3.970   3.159
12627TIP3   OH261859   0.263   5.637   3.248
12627TIP3    H161860   0.193   5.691   3.206
12627TIP3    H261861   0.235   5.628   3.339
12628TIP3   OH261862   0.521   5.608   3.152
12628TIP3    H161863   0.433   5.612   3.196
12628TIP3    H261864   0.506   5.661   3.073
12629TIP3   OH261865   0.984   5.591   3.073
12629TIP3    H161866   0.939   5.645   3.005
12629TIP3    H261867   0.993   5.653   3.146
12630TIP3   OH261868   1.211   5.469   3.162
12630TIP3    H161869   1.125   5.502   3.134
12630TIP3    H261870   1.263   5.550   3.163
12631TIP3   OH261871   1.462   5.629   3.186
12631TIP3    H161872   1.469   5.725   3.169
12631TIP3    H261873   1.496   5.589   3.104
12632TIP3   OH261874   0.213   5.514   2.930
12632TIP3    H161875   0.204   5.471   3.019
12632TIP3    H261876   0.294   5.471   2.898
12633TIP3   OH261877   0.418   5.378   2.807
12633TIP3    H161878   0.405   5.284   2.827
12633TIP3    H261879   0.504   5.395   2.852
12634TIP3   OH261880   0.677   5.421   2.894
12634TIP3    H161881   0.696   5.330   2.869
12634TIP3    H261882   0.686   5.420   2.990
12635TIP3   OH261883   1.026   3.992   2.807
12635TIP3    H161884   0.959   3.928   2.835
12635TIP3    H261885   1.081   3.938   2.749
12636TIP3   OH261886   1.541   3.794   2.811
12636TIP3    H161887   1.602   3.856   2.763
12636TIP3    H261888   1.452   3.832   2.793
12637TIP3   OH261889   1.705   3.922   2.640
12637TIP3    H161890   1.774   3.864   2.600
12637TIP3    H261891   1.758   4.005   2.652
12638TIP3   OH261892   0.263   3.853   2.586
12638TIP3    H161893   0.185   3.817   2.538
12638TIP3    H261894   0.315   3.769   2.588
12639TIP3   OH261895   0.150   3.827   2.171
12639TIP3    H161896   0.187   3.890   2.106
12639TIP3    H261897   0.085   3.884   2.216
12640TIP3   OH261898   0.710   3.841   2.569
12640TIP3    H161899   0.799   3.880   2.561
12640TIP3    H261900   0.706   3.827   2.664
12641TIP3   OH261901   1.282   3.848   2.734
12641TIP3    H161902   1.276   3.860   2.638
12641TIP3    H261903   1.242   3.759   2.747
12642TIP3   OH261904   1.408   3.850   2.301
12642TIP3    H161905   1.333   3.909   2.286
12642TIP3    H261906   1.365   3.765   2.325
12643TIP3   OH261907   0.130   5.430   2.269
12643TIP3    H161908   0.071   5.427   2.192
12643TIP3    H261909   0.130   5.525   2.283
12644TIP3   OH261910   0.326   4.022   2.018
12644TIP3    H161911   0.377   3.962   1.961
12644TIP3    H261912   0.397   4.054   2.077
12645TIP3   OH261913   0.825   4.048   2.256
12645TIP3    H161914   0.850   3.989   2.329
12645TIP3    H261915   0.831   4.134   2.301
12646TIP3   OH261916   1.019   5.556   2.100
12646TIP3    H161917   1.111   5.576   2.078
12646TIP3    H261918   0.997   5.502   2.021
12647TIP3   OH261919   1.687   5.504   2.373
12647TIP3    H161920   1.669   5.426   2.316
12647TIP3    H261921   1.681   5.578   2.308
12648TIP3   OH261922   0.308   5.516   1.959
12648TIP3    H161923   0.286   5.548   2.048
12648TIP3    H261924   0.390   5.467   1.975
12649TIP3   OH261925   3.059   4.766   2.576
12649TIP3    H161926   3.056   4.864   2.577
12649TIP3    H261927   2.984   4.743   2.518
12650TIP3   OH261928   2.950   4.690   2.928
12650TIP3    H161929   2.940   4.630   3.003
12650TIP3    H261930   2.908   4.642   2.854
12651TIP3   OH261931   2.179   4.662   3.083
12651TIP3    H161932   2.187   4.592   3.150
12651TIP3    H261933   2.255   4.717   3.104
12652TIP3   OH261934   3.308   4.987   2.752
12652TIP3    H161935   3.272   4.915   2.806
12652TIP3    H261936   3.317   5.056   2.821
12653TIP3   OH261937   2.271   5.104   2.935
12653TIP3    H161938   2.240   5.018   2.899
12653TIP3    H261939   2.367   5.089   2.936
12654TIP3   OH261940   1.934   4.460   2.482
12654TIP3    H161941   1.891   4.548   2.475
12654TIP3    H261942   1.879   4.406   2.425
12655TIP3   OH261943   2.007   4.683   2.697
12655TIP3    H161944   2.034   4.601   2.741
12655TIP3    H261945   2.075   4.695   2.629
12656TIP3   OH261946   3.021   5.503   2.782
12656TIP3    H161947   3.087   5.436   2.753
12656TIP3    H261948   3.005   5.473   2.872
12657TIP3   OH261949   2.782   4.937   2.973
12657TIP3    H161950   2.813   4.870   2.910
12657TIP3    H261951   2.863   4.947   3.026
12658TIP3   OH261952   2.408   4.189   2.727
12658TIP3    H161953   2.420   4.272   2.677
12658TIP3    H261954   2.369   4.131   2.658
12659TIP3   OH261955   3.184   4.195   2.563
12659TIP3    H161956   3.248   4.165   2.630
12659TIP3    H261957   3.238   4.256   2.511
12660TIP3   OH261958   2.069   4.429   2.802
12660TIP3    H161959   2.138   4.376   2.846
12660TIP3    H261960   2.082   4.399   2.710
12661TIP3   OH261961   2.585   4.586   2.733
12661TIP3    H161962   2.653   4.528   2.772
12661TIP3    H261963   2.534   4.520   2.683
12662TIP3   OH261964   2.298   4.079   3.129
12662TIP3    H161965   2.272   4.138   3.055
12662TIP3    H261966   2.230   4.103   3.196
12663TIP3   OH261967   3.027   5.026   2.486
12663TIP3    H161968   3.002   5.000   2.397
12663TIP3    H261969   2.997   5.120   2.491
12664TIP3   OH261970   2.544   4.847   3.152
12664TIP3    H161971   2.477   4.912   3.172
12664TIP3    H261972   2.621   4.901   3.128
12665TIP3   OH261973   3.356   4.140   2.777
12665TIP3    H161974   3.346   4.049   2.808
12665TIP3    H261975   3.441   4.168   2.811
12666TIP3   OH261976   2.254   4.264   2.933
12666TIP3    H161977   2.318   4.332   2.966
12666TIP3    H261978   2.308   4.223   2.862
12667TIP3   OH261979   2.004   5.004   2.316
12667TIP3    H161980   1.979   5.039   2.229
12667TIP3    H261981   2.013   5.086   2.369
12668TIP3   OH261982   3.365   5.171   2.986
12668TIP3    H161983   3.270   5.183   3.005
12668TIP3    H261984   3.391   5.265   2.977
12669TIP3   OH261985   2.693   3.813   2.876
12669TIP3    H161986   2.678   3.717   2.869
12669TIP3    H261987   2.605   3.844   2.907
12670TIP3   OH261988   3.189   5.350   2.651
12670TIP3    H161989   3.232   5.278   2.601
12670TIP3    H261990   3.235   5.429   2.614
12671TIP3   OH261991   3.313   5.143   2.503
12671TIP3    H161992   3.281   5.073   2.443
12671TIP3    H261993   3.315   5.093   2.587
12672TIP3   OH261994   2.923   4.689   2.328
12672TIP3    H161995   2.854   4.749   2.292
12672TIP3    H261996   2.994   4.701   2.263
12673TIP3   OH261997   2.932   4.549   2.029
12673TIP3    H161998   3.002   4.548   2.096
12673TIP3    H261999   2.962   4.476   1.974
12674TIP3   OH262000   3.655   4.622   3.147
12674TIP3    H162001   3.601   4.701   3.169
12674TIP3    H262002   3.714   4.658   3.080
12675TIP3   OH262003   3.269   4.711   2.420
12675TIP3    H162004   3.195   4.735   2.480
12675TIP3    H262005   3.316   4.644   2.473
12676TIP3   OH262006   2.429   4.778   2.612
12676TIP3    H162007   2.397   4.739   2.527
12676TIP3    H262008   2.490   4.709   2.646
12677TIP3   OH262009   2.563   5.119   2.882
12677TIP3    H162010   2.560   5.065   2.802
12677TIP3    H262011   2.641   5.081   2.926
12678TIP3   OH262012   2.460   4.653   2.974
12678TIP3    H162013   2.517   4.662   2.895
12678TIP3    H262014   2.502   4.716   3.038
12679TIP3   OH262015   3.100   5.210   3.054
12679TIP3    H162016   3.072   5.274   3.121
12679TIP3    H262017   3.078   5.122   3.094
12680TIP3   OH262018   3.157   4.634   2.187
12680TIP3    H162019   3.211   4.651   2.267
12680TIP3    H262020   3.202   4.683   2.115
12681TIP3   OH262021   2.928   5.305   2.531
12681TIP3    H162022   2.970   5.334   2.613
12681TIP3    H262023   2.871   5.379   2.509
12682TIP3   OH262024   3.528   3.804   2.177
12682TIP3    H162025   3.433   3.815   2.202
12682TIP3    H262026   3.549   3.890   2.136
12683TIP3   OH262027   2.324   4.679   2.377
12683TIP3    H162028   2.297   4.758   2.324
12683TIP3    H262029   2.260   4.613   2.350
12684TIP3   OH262030   3.640   5.241   2.013
12684TIP3    H162031   3.657   5.335   2.030
12684TIP3    H262032   3.732   5.209   2.014
12685TIP3   OH262033   1.954   4.919   3.244
12685TIP3    H162034   1.884   4.917   3.176
12685TIP3    H262035   1.935   4.834   3.287
12686TIP3   OH262036   1.911   5.200   2.943
12686TIP3    H162037   2.006   5.185   2.943
12686TIP3    H262038   1.902   5.277   3.000
12687TIP3   OH262039   2.876   5.595   2.376
12687TIP3    H162040   2.864   5.588   2.279
12687TIP3    H262041   2.875   5.691   2.392
12688TIP3   OH262042   2.238   5.484   2.559
12688TIP3    H162043   2.254   5.442   2.646
12688TIP3    H262044   2.154   5.442   2.535
12689TIP3   OH262045   3.181   5.517   2.074
12689TIP3    H162046   3.227   5.441   2.032
12689TIP3    H262047   3.185   5.492   2.169
12690TIP3   OH262048   3.150   5.511   2.352
12690TIP3    H162049   3.054   5.518   2.369
12690TIP3    H262050   3.173   5.436   2.409
12691TIP3   OH262051   2.432   3.903   2.950
12691TIP3    H162052   2.341   3.890   2.915
12691TIP3    H262053   2.418   3.984   3.002
12692TIP3   OH262054   2.895   3.871   3.291
12692TIP3    H162055   2.935   3.830   3.369
12692TIP3    H262056   2.802   3.860   3.308
12693TIP3   OH262057   3.302   4.735   1.972
12693TIP3    H162058   3.297   4.717   1.875
12693TIP3    H262059   3.387   4.781   1.974
12694TIP3   OH262060   2.860   4.129   2.020
12694TIP3    H162061   2.828   4.122   2.112
12694TIP3    H262062   2.829   4.041   1.989
12695TIP3   OH262063   2.437   4.396   3.073
12695TIP3    H162064   2.367   4.399   3.142
12695TIP3    H262065   2.438   4.489   3.041
12696TIP3   OH262066   2.438   4.409   2.566
12696TIP3    H162067   2.344   4.386   2.552
12696TIP3    H262068   2.475   4.382   2.480
12697TIP3   OH262069   2.990   4.462   2.444
12697TIP3    H162070   2.952   4.544   2.407
12697TIP3    H262071   3.059   4.443   2.378
12698TIP3   OH262072   3.099   4.412   2.725
12698TIP3    H162073   3.063   4.468   2.653
12698TIP3    H262074   3.100   4.326   2.679
12699TIP3   OH262075   2.208   4.423   3.251
12699TIP3    H162076   2.200   4.466   3.337
12699TIP3    H262077   2.154   4.343   3.265
12700TIP3   OH262078   2.540   4.164   1.932
12700TIP3    H162079   2.494   4.122   2.008
12700TIP3    H262080   2.470   4.208   1.883
12701TIP3   OH262081   1.870   4.134   2.646
12701TIP3    H162082   1.940   4.130   2.715
12701TIP3    H262083   1.914   4.098   2.567
12702TIP3   OH262084   1.996   4.207   2.180
12702TIP3    H162085   2.048   4.267   2.124
12702TIP3    H262086   1.928   4.270   2.211
12703TIP3   OH262087   3.011   4.567   3.175
12703TIP3    H162088   3.052   4.498   3.125
12703TIP3    H262089   2.967   4.523   3.249
12704TIP3   OH262090   2.693   4.168   2.667
12704TIP3    H162091   2.601   4.167   2.697
12704TIP3    H262092   2.742   4.148   2.748
12705TIP3   OH262093   2.174   4.322   2.553
12705TIP3    H162094   2.086   4.338   2.513
12705TIP3    H262095   2.202   4.238   2.512
12706TIP3   OH262096   2.538   4.327   2.315
12706TIP3    H162097   2.634   4.338   2.331
12706TIP3    H262098   2.514   4.395   2.250
12707TIP3   OH262099   2.410   4.444   2.074
12707TIP3    H162100   2.356   4.406   2.002
12707TIP3    H262101   2.491   4.466   2.026
12708TIP3   OH262102   2.821   4.441   2.855
12708TIP3    H162103   2.882   4.389   2.801
12708TIP3    H262104   2.807   4.386   2.933
12709TIP3   OH262105   2.323   4.057   2.498
12709TIP3    H162106   2.291   3.965   2.499
12709TIP3    H262107   2.402   4.049   2.444
12710TIP3   OH262108   2.685   4.271   3.097
12710TIP3    H162109   2.603   4.325   3.099
12710TIP3    H262110   2.737   4.312   3.168
12711TIP3   OH262111   2.744   4.897   2.266
12711TIP3    H162112   2.664   4.851   2.232
12711TIP3    H262113   2.721   4.911   2.360
12712TIP3   OH262114   3.465   4.807   3.139
12712TIP3    H162115   3.521   4.868   3.089
12712TIP3    H262116   3.378   4.822   3.099
12713TIP3   OH262117   3.127   4.178   2.083
12713TIP3    H162118   3.032   4.195   2.070
12713TIP3    H262119   3.161   4.263   2.119
12714TIP3   OH262120   3.200   4.372   2.245
12714TIP3    H162121   3.287   4.359   2.287
12714TIP3    H262122   3.212   4.455   2.194
12715TIP3   OH262123   2.255   4.839   2.846
12715TIP3    H162124   2.323   4.829   2.776
12715TIP3    H262125   2.258   4.752   2.889
12716TIP3   OH262126   2.953   5.044   2.169
12716TIP3    H162127   2.919   5.129   2.204
12716TIP3    H262128   2.880   4.982   2.192
12717TIP3   OH262129   1.966   4.669   3.368
12717TIP3    H162130   1.965   4.633   3.457
12717TIP3    H262131   1.890   4.619   3.331
12718TIP3   OH262132   3.126   5.161   3.391
12718TIP3    H162133   3.035   5.177   3.362
12718TIP3    H262134   3.118   5.186   3.484
12719TIP3   OH262135   3.693   4.385   2.222
12719TIP3    H162136   3.634   4.357   2.149
12719TIP3    H262137   3.697   4.481   2.199
12720TIP3   OH262138   3.516   5.268   2.262
12720TIP3    H162139   3.483   5.184   2.298
12720TIP3    H262140   3.552   5.245   2.175
12721TIP3   OH262141   3.240   4.752   2.973
12721TIP3    H162142   3.146   4.729   2.964
12721TIP3    H262143   3.284   4.675   2.935
12722TIP3   OH262144   2.493   5.183   2.585
12722TIP3    H162145   2.542   5.264   2.564
12722TIP3    H262146   2.405   5.206   2.551
12723TIP3   OH262147   2.070   4.666   2.042
12723TIP3    H162148   2.127   4.733   2.083
12723TIP3    H262149   1.980   4.697   2.066
12724TIP3   OH262150   2.633   4.949   2.534
12724TIP3    H162151   2.601   5.041   2.546
12724TIP3    H262152   2.563   4.899   2.579
12725TIP3   OH262153   2.682   5.369   3.176
12725TIP3    H162154   2.725   5.452   3.152
12725TIP3    H262155   2.740   5.339   3.246
12726TIP3   OH262156   2.502   5.448   2.488
12726TIP3    H162157   2.405   5.462   2.502
12726TIP3    H262158   2.539   5.531   2.523
12727TIP3   OH262159   3.029   4.965   3.141
12727TIP3    H162160   2.999   4.948   3.231
12727TIP3    H262161   3.094   4.894   3.124
12728TIP3   OH262162   3.266   5.076   2.048
12728TIP3    H162163   3.295   5.028   2.128
12728TIP3    H262164   3.171   5.057   2.055
12729TIP3   OH262165   3.712   5.510   2.074
12729TIP3    H162166   3.780   5.577   2.053
12729TIP3    H262167   3.640   5.571   2.102
12730TIP3   OH262168   2.121   4.153   3.332
12730TIP3    H162169   2.030   4.187   3.323
12730TIP3    H262170   2.105   4.065   3.368
12731TIP3   OH262171   3.343   4.939   2.272
12731TIP3    H162172   3.319   4.860   2.325
12731TIP3    H262173   3.438   4.942   2.289
12732TIP3   OH262174   2.083   5.332   3.169
12732TIP3    H162175   2.109   5.239   3.169
12732TIP3    H262176   2.110   5.362   3.257
12733TIP3   OH262177   2.679   5.183   1.898
12733TIP3    H162178   2.688   5.106   1.839
12733TIP3    H262179   2.633   5.139   1.974
12734TIP3   OH262180   2.554   5.135   2.143
12734TIP3    H162181   2.583   5.083   2.220
12734TIP3    H262182   2.565   5.227   2.176
12735TIP3   OH262183   2.210   4.859   2.191
12735TIP3    H162184   2.138   4.899   2.244
12735TIP3    H262185   2.260   4.937   2.161
12736TIP3   OH262186   2.997   4.129   3.223
12736TIP3    H162187   3.058   4.130   3.296
12736TIP3    H262188   2.952   4.042   3.235
12737TIP3   OH262189   3.066   4.084   2.331
12737TIP3    H162190   3.090   4.130   2.248
12737TIP3    H262191   3.123   4.130   2.395
12738TIP3   OH262192   2.836   5.301   2.212
12738TIP3    H162193   2.754   5.354   2.220
12738TIP3    H262194   2.890   5.357   2.154
12739TIP3   OH262195   2.790   4.259   2.415
12739TIP3    H162196   2.868   4.319   2.420
12739TIP3    H262197   2.764   4.248   2.508
12740TIP3   OH262198   2.836   4.352   3.332
12740TIP3    H162199   2.847   4.423   3.398
12740TIP3    H262200   2.913   4.296   3.338
12741TIP3   OH262201   2.875   3.965   2.503
12741TIP3    H162202   2.844   4.031   2.568
12741TIP3    H262203   2.944   4.020   2.457
12742TIP3   OH262204   2.577   5.404   2.216
12742TIP3    H162205   2.585   5.485   2.160
12742TIP3    H262206   2.548   5.441   2.302
12743TIP3   OH262207   2.440   4.076   2.173
12743TIP3    H162208   2.435   4.166   2.212
12743TIP3    H262209   2.531   4.052   2.199
12744TIP3   OH262210   3.323   4.528   2.816
12744TIP3    H162211   3.239   4.483   2.789
12744TIP3    H262212   3.372   4.464   2.868
12745TIP3   OH262213   2.263   5.121   2.077
12745TIP3    H162214   2.331   5.182   2.109
12745TIP3    H262215   2.316   5.073   2.009
12746TIP3   OH262216   2.098   4.388   1.991
12746TIP3    H162217   2.100   4.484   2.013
12746TIP3    H262218   2.008   4.372   1.961
12747TIP3   OH262219   3.428   5.450   2.980
12747TIP3    H162220   3.419   5.527   2.920
12747TIP3    H262221   3.521   5.462   3.005
12748TIP3   OH262222   2.178   3.868   2.865
12748TIP3    H162223   2.160   3.868   2.769
12748TIP3    H262224   2.141   3.781   2.890
12749TIP3   OH262225   2.075   5.259   2.482
12749TIP3    H162226   1.990   5.302   2.476
12749TIP3    H262227   2.122   5.304   2.410
12750TIP3   OH262228   2.878   5.367   1.911
12750TIP3    H162229   2.808   5.301   1.931
12750TIP3    H262230   2.950   5.307   1.885
12751TIP3   OH262231   3.334   5.341   1.928
12751TIP3    H162232   3.363   5.264   1.979
12751TIP3    H262233   3.410   5.362   1.873
12752TIP3   OH262234   2.422   4.935   1.910
12752TIP3    H162235   2.436   4.860   1.969
12752TIP3    H262236   2.497   4.924   1.849
12753TIP3   OH262237   2.965   5.047   1.888
12753TIP3    H162238   2.938   5.054   1.981
12753TIP3    H262239   2.947   4.951   1.873
12754TIP3   OH262240   2.543   4.737   2.154
12754TIP3    H162241   2.491   4.683   2.216
12754TIP3    H262242   2.573   4.671   2.088
12755TIP3   OH262243   2.650   4.560   1.973
12755TIP3    H162244   2.635   4.552   1.876
12755TIP3    H262245   2.748   4.564   1.980
12756TIP3   OH262246   3.581   4.791   1.914
12756TIP3    H162247   3.564   4.754   1.826
12756TIP3    H262248   3.591   4.888   1.896
12757TIP3   OH262249   2.544   4.089   3.242
12757TIP3    H162250   2.597   4.140   3.177
12757TIP3    H262251   2.457   4.086   3.198
12758TIP3   OH262252   2.633   5.630   2.082
12758TIP3    H162253   2.729   5.637   2.088
12758TIP3    H262254   2.619   5.689   2.006
12759TIP3   OH262255   1.987   5.086   2.029
12759TIP3    H162256   2.084   5.096   2.046
12759TIP3    H262257   1.992   5.023   1.953
12760TIP3   OH262258   1.866   5.625   2.524
12760TIP3    H162259   1.794   5.576   2.479
12760TIP3    H262260   1.894   5.560   2.591
12761TIP3   OH262261   1.949   5.439   2.712
12761TIP3    H162262   1.913   5.351   2.732
12761TIP3    H262263   1.974   5.471   2.801
12762TIP3   OH262264   3.706   5.518   3.005
12762TIP3    H162265   3.704   5.534   3.101
12762TIP3    H262266   3.775   5.577   2.976
12763TIP3   OH262267   3.668   5.476   3.293
12763TIP3    H162268   3.606   5.406   3.261
12763TIP3    H262269   3.708   5.433   3.368
12764TIP3   OH262270   3.636   4.883   2.310
12764TIP3    H162271   3.723   4.923   2.328
12764TIP3    H262272   3.635   4.811   2.376
12765TIP3   OH262273   3.673   4.685   2.498
12765TIP3    H162274   3.595   4.643   2.539
12765TIP3    H262275   3.732   4.705   2.574
12766TIP3   OH262276   3.640   4.959   2.988
12766TIP3    H162277   3.727   4.918   2.970
12766TIP3    H262278   3.661   5.054   2.979
12767TIP3   OH262279   3.505   5.253   3.225
12767TIP3    H162280   3.435   5.280   3.285
12767TIP3    H262281   3.452   5.207   3.156
12768TIP3   OH262282   3.702   4.673   2.137
12768TIP3    H162283   3.645   4.707   2.065
12768TIP3    H262284   3.692   4.743   2.203
12769TIP3   OH262285   3.541   4.395   1.989
12769TIP3    H162286   3.548   4.462   1.919
12769TIP3    H262287   3.520   4.313   1.939
12770TIP3   OH262288   3.452   4.539   2.557
12770TIP3    H162289   3.440   4.443   2.551
12770TIP3    H262290   3.419   4.560   2.646
12771TIP3   OH262291   1.956   4.754   2.961
12771TIP3    H162292   1.973   4.739   2.866
12771TIP3    H262293   2.042   4.727   3.001
12772TIP3   OH262294   3.462   4.145   1.902
12772TIP3    H162295   3.522   4.101   1.965
12772TIP3    H262296   3.378   4.101   1.917
12773TIP3   OH262297   3.417   4.297   2.398
12773TIP3    H162298   3.450   4.205   2.409
12773TIP3    H262299   3.498   4.338   2.364
12774TIP3   OH262300   3.481   4.029   2.408
12774TIP3    H162301   3.508   3.980   2.488
12774TIP3    H262302   3.428   3.961   2.360
12775TIP3   OH262303   2.034   4.106   2.865
12775TIP3    H162304   2.082   4.023   2.887
12775TIP3    H262305   2.093   4.175   2.899
12776TIP3   OH262306   1.864   4.400   2.968
12776TIP3    H162307   1.921   4.379   2.892
12776TIP3    H262308   1.906   4.484   2.993
12777TIP3   OH262309   3.670   4.027   2.064
12777TIP3    H162310   3.710   3.957   2.008
12777TIP3    H262311   3.739   4.094   2.065
12778TIP3   OH262312   1.903   4.034   2.374
12778TIP3    H162313   1.808   4.048   2.358
12778TIP3    H262314   1.943   4.082   2.300
12779TIP3   OH262315   3.374   5.528   2.567
12779TIP3    H162316   3.444   5.497   2.505
12779TIP3    H262317   3.425   5.577   2.633
12780TIP3   OH262318   1.897   3.901   3.205
12780TIP3    H162319   1.827   3.881   3.268
12780TIP3    H262320   1.851   3.967   3.149
12781TIP3   OH262321   2.409   5.316   3.241
12781TIP3    H162322   2.378   5.404   3.219
12781TIP3    H262323   2.504   5.329   3.219
12782TIP3   OH262324   2.146   5.636   3.244
12782TIP3    H162325   2.079   5.698   3.208
12782TIP3    H262326   2.119   5.633   3.337
12783TIP3   OH262327   2.393   5.591   3.142
12783TIP3    H162328   2.314   5.615   3.194
12783TIP3    H262329   2.396   5.663   3.077
12784TIP3   OH262330   2.099   5.506   2.936
12784TIP3    H162331   2.092   5.464   3.024
12784TIP3    H262332   2.182   5.468   2.902
12785TIP3   OH262333   2.305   5.376   2.801
12785TIP3    H162334   2.289   5.284   2.827
12785TIP3    H262335   2.389   5.393   2.850
12786TIP3   OH262336   2.562   5.421   2.891
12786TIP3    H162337   2.582   5.329   2.868
12786TIP3    H262338   2.565   5.416   2.988
12787TIP3   OH262339   2.915   3.991   2.809
12787TIP3    H162340   2.845   3.929   2.836
12787TIP3    H262341   2.966   3.938   2.748
12788TIP3   OH262342   3.427   3.809   2.825
12788TIP3    H162343   3.488   3.852   2.761
12788TIP3    H262344   3.338   3.829   2.789
12789TIP3   OH262345   3.594   3.920   2.644
12789TIP3    H162346   3.660   3.864   2.600
12789TIP3    H262347   3.642   4.004   2.649
12790TIP3   OH262348   2.150   3.853   2.592
12790TIP3    H162349   2.070   3.835   2.539
12790TIP3    H262350   2.194   3.766   2.585
12791TIP3   OH262351   2.025   3.828   2.163
12791TIP3    H162352   2.075   3.893   2.110
12791TIP3    H262353   1.969   3.886   2.218
12792TIP3   OH262354   2.595   3.846   2.572
12792TIP3    H162355   2.686   3.882   2.563
12792TIP3    H262356   2.593   3.825   2.665
12793TIP3   OH262357   3.173   3.845   2.734
12793TIP3    H162358   3.163   3.860   2.639
12793TIP3    H262359   3.128   3.759   2.746
12794TIP3   OH262360   3.293   3.850   2.301
12794TIP3    H162361   3.219   3.910   2.286
12794TIP3    H262362   3.249   3.765   2.325
12795TIP3   OH262363   2.016   5.423   2.268
12795TIP3    H162364   1.951   5.421   2.196
12795TIP3    H262365   2.017   5.519   2.284
12796TIP3   OH262366   2.208   4.023   2.015
12796TIP3    H162367   2.261   3.961   1.963
12796TIP3    H262368   2.274   4.056   2.078
12797TIP3   OH262369   2.710   4.047   2.255
12797TIP3    H162370   2.736   3.990   2.329
12797TIP3    H262371   2.719   4.134   2.300
12798TIP3   OH262372   2.905   5.556   2.100
12798TIP3    H162373   2.997   5.576   2.078
12798TIP3    H262374   2.882   5.502   2.021
12799TIP3   OH262375   3.574   5.504   2.372
12799TIP3    H162376   3.554   5.426   2.316
12799TIP3    H262377   3.566   5.578   2.308
12800TIP3   OH262378   2.196   5.523   1.961
12800TIP3    H162379   2.170   5.548   2.051
12800TIP3    H262380   2.274   5.466   1.976
12801TIP3   OH262381   4.944   4.768   2.575
12801TIP3    H162382   4.941   4.866   2.576
12801TIP3    H262383   4.870   4.745   2.517
12802TIP3   OH262384   4.831   4.692   2.928
12802TIP3    H162385   4.825   4.627   3.000
12802TIP3    H262386   4.793   4.643   2.852
12803TIP3   OH262387   4.071   4.658   3.080
12803TIP3    H162388   4.064   4.600   3.158
12803TIP3    H262389   4.140   4.719   3.110
12804TIP3   OH262390   5.194   4.988   2.754
12804TIP3    H162391   5.157   4.916   2.805
12804TIP3    H262392   5.201   5.058   2.822
12805TIP3   OH262393   4.157   5.107   2.928
12805TIP3    H162394   4.126   5.018   2.903
12805TIP3    H262395   4.252   5.089   2.939
12806TIP3   OH262396   3.822   4.455   2.485
12806TIP3    H162397   3.781   4.545   2.477
12806TIP3    H262398   3.764   4.407   2.424
12807TIP3   OH262399   3.888   4.685   2.695
12807TIP3    H162400   3.916   4.604   2.744
12807TIP3    H262401   3.960   4.694   2.631
12808TIP3   OH262402   4.908   5.504   2.781
12808TIP3    H162403   4.974   5.436   2.751
12808TIP3    H262404   4.888   5.470   2.868
12809TIP3   OH262405   4.667   4.935   2.980
12809TIP3    H162406   4.699   4.873   2.913
12809TIP3    H262407   4.750   4.950   3.029
12810TIP3   OH262408   5.524   4.101   3.047
12810TIP3    H162409   5.543   4.157   3.126
12810TIP3    H262410   5.583   4.143   2.982
12811TIP3   OH262411   4.984   4.380   3.004
12811TIP3    H162412   4.999   4.284   3.002
12811TIP3    H262413   4.973   4.395   2.908
12812TIP3   OH262414   5.068   4.197   2.565
12812TIP3    H162415   5.132   4.165   2.632
12812TIP3    H262416   5.125   4.255   2.513
12813TIP3   OH262417   3.960   4.440   2.802
12813TIP3    H162418   4.020   4.382   2.850
12813TIP3    H262419   3.957   4.402   2.713
12814TIP3   OH262420   4.472   4.585   2.732
12814TIP3    H162421   4.538   4.528   2.774
12814TIP3    H262422   4.420   4.517   2.683
12815TIP3   OH262423   5.563   4.234   3.280
12815TIP3    H162424   5.514   4.318   3.264
12815TIP3    H262425   5.579   4.243   3.375
12816TIP3   OH262426   4.913   5.026   2.485
12816TIP3    H162427   4.887   5.000   2.396
12816TIP3    H262428   4.883   5.120   2.491
12817TIP3   OH262429   4.434   4.846   3.153
12817TIP3    H162430   4.363   4.905   3.179
12817TIP3    H262431   4.506   4.905   3.126
12818TIP3   OH262432   5.250   4.130   2.763
12818TIP3    H162433   5.228   4.055   2.819
12818TIP3    H262434   5.316   4.175   2.819
12819TIP3   OH262435   3.889   5.003   2.316
12819TIP3    H162436   3.865   5.039   2.228
12819TIP3    H262437   3.898   5.085   2.369
12820TIP3   OH262438   5.249   5.171   2.986
12820TIP3    H162439   5.154   5.183   3.006
12820TIP3    H262440   5.279   5.263   2.977
12821TIP3   OH262441   5.277   4.009   3.144
12821TIP3    H162442   5.208   4.066   3.108
12821TIP3    H262443   5.354   4.037   3.088
12822TIP3   OH262444   4.584   3.813   2.880
12822TIP3    H162445   4.572   3.718   2.864
12822TIP3    H262446   4.498   3.843   2.909
12823TIP3   OH262447   5.076   5.351   2.651
12823TIP3    H162448   5.118   5.278   2.601
12823TIP3    H262449   5.121   5.429   2.612
12824TIP3   OH262450   5.198   5.143   2.503
12824TIP3    H162451   5.167   5.073   2.443
12824TIP3    H262452   5.201   5.093   2.587
12825TIP3   OH262453   4.808   4.690   2.328
12825TIP3    H162454   4.739   4.749   2.292
12825TIP3    H262455   4.880   4.701   2.262
12826TIP3   OH262456   4.818   4.549   2.029
12826TIP3    H162457   4.888   4.548   2.096
12826TIP3    H262458   4.847   4.476   1.974
12827TIP3   OH262459   5.542   4.630   3.152
12827TIP3    H162460   5.483   4.707   3.165
12827TIP3    H262461   5.594   4.659   3.076
12828TIP3   OH262462   5.155   4.711   2.421
12828TIP3    H162463   5.081   4.736   2.480
12828TIP3    H262464   5.202   4.645   2.474
12829TIP3   OH262465   5.147   4.524   3.331
12829TIP3    H162466   5.145   4.602   3.388
12829TIP3    H262467   5.083   4.557   3.264
12830TIP3   OH262468   4.316   4.781   2.612
12830TIP3    H162469   4.283   4.742   2.528
12830TIP3    H262470   4.376   4.711   2.646
12831TIP3   OH262471   4.447   5.114   2.884
12831TIP3    H162472   4.447   5.065   2.800
12831TIP3    H262473   4.527   5.081   2.927
12832TIP3   OH262474   4.351   4.654   2.974
12832TIP3    H162475   4.407   4.666   2.895
12832TIP3    H262476   4.388   4.719   3.038
12833TIP3   OH262477   4.990   5.209   3.051
12833TIP3    H162478   4.961   5.275   3.116
12833TIP3    H262479   4.965   5.124   3.093
12834TIP3   OH262480   5.042   4.634   2.187
12834TIP3    H162481   5.097   4.651   2.267
12834TIP3    H262482   5.088   4.683   2.115
12835TIP3   OH262483   4.813   5.305   2.535
12835TIP3    H162484   4.855   5.336   2.616
12835TIP3    H262485   4.757   5.380   2.511
12836TIP3   OH262486   5.414   3.806   2.179
12836TIP3    H162487   5.319   3.816   2.202
12836TIP3    H262488   5.434   3.889   2.134
12837TIP3   OH262489   4.211   4.683   2.376
12837TIP3    H162490   4.183   4.762   2.324
12837TIP3    H262491   4.144   4.619   2.350
12838TIP3   OH262492   5.525   5.241   2.013
12838TIP3    H162493   5.543   5.335   2.030
12838TIP3    H262494   5.617   5.208   2.014
12839TIP3   OH262495   3.798   5.197   2.943
12839TIP3    H162496   3.894   5.184   2.942
12839TIP3    H262497   3.788   5.279   2.993
12840TIP3   OH262498   4.761   5.595   2.375
12840TIP3    H162499   4.749   5.588   2.279
12840TIP3    H262500   4.761   5.691   2.392
12841TIP3   OH262501   4.124   5.483   2.559
12841TIP3    H162502   4.139   5.442   2.647
12841TIP3    H262503   4.040   5.442   2.535
12842TIP3   OH262504   5.066   5.517   2.074
12842TIP3    H162505   5.112   5.441   2.031
12842TIP3    H262506   5.070   5.492   2.169
12843TIP3   OH262507   5.036   5.511   2.352
12843TIP3    H162508   4.939   5.518   2.368
12843TIP3    H262509   5.058   5.436   2.409
12844TIP3   OH262510   5.186   4.736   1.972
12844TIP3    H162511   5.183   4.718   1.875
12844TIP3    H262512   5.272   4.781   1.976
12845TIP3   OH262513   4.746   4.127   2.022
12845TIP3    H162514   4.713   4.121   2.113
12845TIP3    H262515   4.714   4.040   1.990
12846TIP3   OH262516   4.322   4.396   3.068
12846TIP3    H162517   4.254   4.394   3.137
12846TIP3    H262518   4.324   4.491   3.044
12847TIP3   OH262519   4.328   4.417   2.564
12847TIP3    H162520   4.237   4.390   2.558
12847TIP3    H262521   4.368   4.384   2.482
12848TIP3   OH262522   4.875   4.462   2.443
12848TIP3    H162523   4.836   4.544   2.406
12848TIP3    H262524   4.944   4.444   2.377
12849TIP3   OH262525   4.978   4.411   2.728
12849TIP3    H162526   4.950   4.468   2.654
12849TIP3    H262527   4.990   4.327   2.679
12850TIP3   OH262528   4.427   4.177   1.944
12850TIP3    H162529   4.386   4.115   2.003
12850TIP3    H262530   4.359   4.198   1.878
12851TIP3   OH262531   3.888   4.214   2.187
12851TIP3    H162532   3.923   4.270   2.115
12851TIP3    H262533   3.809   4.267   2.212
12852TIP3   OH262534   4.901   4.567   3.184
12852TIP3    H162535   4.934   4.497   3.124
12852TIP3    H262536   4.853   4.520   3.254
12853TIP3   OH262537   4.581   4.174   2.664
12853TIP3    H162538   4.489   4.169   2.693
12853TIP3    H262539   4.630   4.147   2.743
12854TIP3   OH262540   4.425   4.331   2.315
12854TIP3    H162541   4.521   4.337   2.330
12854TIP3    H262542   4.406   4.398   2.247
12855TIP3   OH262543   5.021   4.092   2.991
12855TIP3    H162544   4.949   4.097   3.058
12855TIP3    H262545   4.972   4.064   2.911
12856TIP3   OH262546   4.295   4.435   2.076
12856TIP3    H162547   4.242   4.407   1.999
12856TIP3    H262548   4.375   4.465   2.030
12857TIP3   OH262549   4.707   4.441   2.853
12857TIP3    H162550   4.765   4.388   2.799
12857TIP3    H262551   4.695   4.388   2.932
12858TIP3   OH262552   4.630   4.896   2.266
12858TIP3    H162553   4.549   4.851   2.232
12858TIP3    H262554   4.606   4.911   2.360
12859TIP3   OH262555   5.344   4.817   3.147
12859TIP3    H162556   5.406   4.866   3.090
12859TIP3    H262557   5.261   4.825   3.097
12860TIP3   OH262558   5.011   4.178   2.084
12860TIP3    H162559   4.916   4.194   2.070
12860TIP3    H262560   5.046   4.263   2.119
12861TIP3   OH262561   4.782   4.924   3.388
12861TIP3    H162562   4.740   4.875   3.460
12861TIP3    H262563   4.750   5.012   3.396
12862TIP3   OH262564   5.086   4.372   2.245
12862TIP3    H162565   5.173   4.358   2.287
12862TIP3    H262566   5.097   4.454   2.194
12863TIP3   OH262567   4.140   4.833   2.847
12863TIP3    H162568   4.209   4.829   2.778
12863TIP3    H262569   4.147   4.748   2.893
12864TIP3   OH262570   4.838   5.044   2.169
12864TIP3    H162571   4.804   5.129   2.204
12864TIP3    H262572   4.766   4.982   2.192
12865TIP3   OH262573   3.853   4.660   3.359
12865TIP3    H162574   3.856   4.644   3.455
12865TIP3    H262575   3.771   4.617   3.331
12866TIP3   OH262576   5.577   4.384   2.223
12866TIP3    H162577   5.519   4.357   2.149
12866TIP3    H262578   5.584   4.479   2.200
12867TIP3   OH262579   5.401   5.268   2.263
12867TIP3    H162580   5.369   5.184   2.298
12867TIP3    H262581   5.438   5.245   2.176
12868TIP3   OH262582   5.126   4.751   2.970
12868TIP3    H162583   5.032   4.728   2.963
12868TIP3    H262584   5.170   4.674   2.930
12869TIP3   OH262585   4.379   5.183   2.585
12869TIP3    H162586   4.428   5.264   2.564
12869TIP3    H262587   4.291   5.206   2.551
12870TIP3   OH262588   3.955   4.666   2.041
12870TIP3    H162589   4.012   4.733   2.083
12870TIP3    H262590   3.866   4.697   2.066
12871TIP3   OH262591   4.519   4.950   2.534
12871TIP3    H162592   4.487   5.041   2.545
12871TIP3    H262593   4.449   4.899   2.580
12872TIP3   OH262594   4.575   5.362   3.166
12872TIP3    H162595   4.607   5.452   3.151
12872TIP3    H262596   4.621   5.338   3.247
12873TIP3   OH262597   4.387   5.448   2.488
12873TIP3    H162598   4.291   5.462   2.502
12873TIP3    H262599   4.424   5.531   2.522
12874TIP3   OH262600   4.911   4.965   3.138
12874TIP3    H162601   4.887   4.947   3.231
12874TIP3    H262602   4.981   4.899   3.123
12875TIP3   OH262603   5.152   5.076   2.047
12875TIP3    H162604   5.181   5.028   2.128
12875TIP3    H262605   5.057   5.057   2.055
12876TIP3   OH262606   5.182   5.439   3.387
12876TIP3    H162607   5.136   5.371   3.338
12876TIP3    H262608   5.219   5.496   3.318
12877TIP3   OH262609   5.596   5.510   2.073
12877TIP3    H162610   5.664   5.575   2.049
12877TIP3    H262611   5.525   5.571   2.102
12878TIP3   OH262612   5.228   4.939   2.272
12878TIP3    H162613   5.204   4.860   2.326
12878TIP3    H262614   5.323   4.942   2.289
12879TIP3   OH262615   3.973   5.335   3.167
12879TIP3    H162616   3.997   5.241   3.167
12879TIP3    H262617   3.998   5.361   3.256
12880TIP3   OH262618   4.565   5.183   1.898
12880TIP3    H162619   4.573   5.106   1.838
12880TIP3    H262620   4.518   5.139   1.974
12881TIP3   OH262621   4.440   5.135   2.143
12881TIP3    H162622   4.469   5.083   2.220
12881TIP3    H262623   4.450   5.227   2.176
12882TIP3   OH262624   4.095   4.860   2.191
12882TIP3    H162625   4.023   4.900   2.245
12882TIP3    H262626   4.146   4.937   2.161
12883TIP3   OH262627   4.879   4.121   3.215
12883TIP3    H162628   4.935   4.132   3.290
12883TIP3    H262629   4.827   4.044   3.236
12884TIP3   OH262630   4.951   4.083   2.334
12884TIP3    H162631   4.973   4.129   2.250
12884TIP3    H262632   5.009   4.129   2.396
12885TIP3   OH262633   4.721   5.301   2.212
12885TIP3    H162634   4.639   5.354   2.220
12885TIP3    H262635   4.776   5.357   2.154
12886TIP3   OH262636   4.674   4.260   2.413
12886TIP3    H162637   4.752   4.319   2.417
12886TIP3    H262638   4.650   4.246   2.506
12887TIP3   OH262639   4.765   3.967   2.504
12887TIP3    H162640   4.728   4.031   2.566
12887TIP3    H262641   4.831   4.023   2.457
12888TIP3   OH262642   4.462   5.404   2.216
12888TIP3    H162643   4.471   5.485   2.160
12888TIP3    H262644   4.434   5.441   2.302
12889TIP3   OH262645   5.211   4.528   2.814
12889TIP3    H162646   5.127   4.483   2.792
12889TIP3    H262647   5.259   4.461   2.868
12890TIP3   OH262648   4.149   5.121   2.077
12890TIP3    H162649   4.217   5.182   2.109
12890TIP3    H262650   4.201   5.073   2.009
12891TIP3   OH262651   3.982   4.387   1.995
12891TIP3    H162652   3.986   4.484   2.010
12891TIP3    H262653   3.894   4.373   1.959
12892TIP3   OH262654   5.314   5.457   2.987
12892TIP3    H162655   5.308   5.522   2.914
12892TIP3    H262656   5.411   5.458   3.003
12893TIP3   OH262657   3.961   5.259   2.482
12893TIP3    H162658   3.875   5.303   2.476
12893TIP3    H262659   4.008   5.304   2.410
12894TIP3   OH262660   4.764   5.367   1.910
12894TIP3    H162661   4.694   5.301   1.931
12894TIP3    H262662   4.835   5.307   1.885
12895TIP3   OH262663   5.219   5.341   1.928
12895TIP3    H162664   5.249   5.264   1.979
12895TIP3    H262665   5.296   5.362   1.873
12896TIP3   OH262666   4.308   4.936   1.909
12896TIP3    H162667   4.322   4.860   1.969
12896TIP3    H262668   4.383   4.924   1.848
12897TIP3   OH262669   4.851   5.046   1.888
12897TIP3    H162670   4.824   5.054   1.981
12897TIP3    H262671   4.832   4.950   1.873
12898TIP3   OH262672   4.429   4.739   2.154
12898TIP3    H162673   4.379   4.684   2.215
12898TIP3    H262674   4.459   4.671   2.088
12899TIP3   OH262675   4.535   4.559   1.972
12899TIP3    H162676   4.522   4.552   1.876
12899TIP3    H262677   4.633   4.562   1.981
12900TIP3   OH262678   5.467   4.792   1.914
12900TIP3    H162679   5.450   4.755   1.827
12900TIP3    H262680   5.477   4.888   1.896
12901TIP3   OH262681   4.378   4.253   3.489
12901TIP3    H162682   4.414   4.189   3.429
12901TIP3    H262683   4.395   4.336   3.442
12902TIP3   OH262684   4.592   4.637   3.262
12902TIP3    H162685   4.669   4.629   3.207
12902TIP3    H262686   4.551   4.721   3.239
12903TIP3   OH262687   4.513   3.841   3.287
12903TIP3    H162688   4.501   3.935   3.273
12903TIP3    H262689   4.440   3.802   3.238
12904TIP3   OH262690   4.518   5.630   2.082
12904TIP3    H162691   4.615   5.637   2.089
12904TIP3    H262692   4.505   5.689   2.006
12905TIP3   OH262693   3.873   5.086   2.029
12905TIP3    H162694   3.969   5.096   2.046
12905TIP3    H262695   3.877   5.023   1.953
12906TIP3   OH262696   3.752   5.624   2.525
12906TIP3    H162697   3.680   5.576   2.479
12906TIP3    H262698   3.780   5.559   2.592
12907TIP3   OH262699   3.834   5.440   2.714
12907TIP3    H162700   3.798   5.352   2.734
12907TIP3    H262701   3.857   5.472   2.803
12908TIP3   OH262702   5.589   5.519   3.003
12908TIP3    H162703   5.589   5.534   3.100
12908TIP3    H262704   5.661   5.578   2.977
12909TIP3   OH262705   5.554   5.472   3.291
12909TIP3    H162706   5.491   5.402   3.264
12909TIP3    H262707   5.590   5.440   3.373
12910TIP3   OH262708   5.522   4.884   2.309
12910TIP3    H162709   5.609   4.923   2.328
12910TIP3    H262710   5.520   4.813   2.376
12911TIP3   OH262711   5.557   4.692   2.499
12911TIP3    H162712   5.482   4.642   2.538
12911TIP3    H262713   5.617   4.703   2.575
12912TIP3   OH262714   5.528   4.957   2.993
12912TIP3    H162715   5.613   4.919   2.965
12912TIP3    H262716   5.544   5.052   2.980
12913TIP3   OH262717   5.392   5.252   3.222
12913TIP3    H162718   5.327   5.275   3.291
12913TIP3    H262719   5.337   5.205   3.157
12914TIP3   OH262720   5.588   4.673   2.138
12914TIP3    H162721   5.530   4.706   2.065
12914TIP3    H262722   5.577   4.745   2.203
12915TIP3   OH262723   5.425   4.396   1.988
12915TIP3    H162724   5.433   4.462   1.918
12915TIP3    H262725   5.407   4.312   1.940
12916TIP3   OH262726   5.340   4.538   2.557
12916TIP3    H162727   5.325   4.443   2.551
12916TIP3    H262728   5.308   4.558   2.647
12917TIP3   OH262729   3.840   4.753   2.961
12917TIP3    H162730   3.856   4.738   2.866
12917TIP3    H262731   3.926   4.726   2.998
12918TIP3   OH262732   5.350   4.144   1.902
12918TIP3    H162733   5.409   4.099   1.966
12918TIP3    H262734   5.264   4.103   1.917
12919TIP3   OH262735   5.304   4.296   2.396
12919TIP3    H162736   5.335   4.204   2.413
12919TIP3    H262737   5.386   4.337   2.367
12920TIP3   OH262738   5.367   4.349   2.946
12920TIP3    H162739   5.463   4.373   2.941
12920TIP3    H262740   5.354   4.365   3.042
12921TIP3   OH262741   5.373   4.423   3.218
12921TIP3    H162742   5.292   4.459   3.259
12921TIP3    H262743   5.426   4.506   3.202
12922TIP3   OH262744   5.374   4.025   2.406
12922TIP3    H162745   5.396   3.983   2.491
12922TIP3    H262746   5.314   3.961   2.363
12923TIP3   OH262747   5.555   4.029   2.062
12923TIP3    H162748   5.596   3.958   2.007
12923TIP3    H262749   5.626   4.095   2.067
12924TIP3   OH262750   3.789   4.034   2.380
12924TIP3    H162751   3.695   4.044   2.358
12924TIP3    H262752   3.828   4.074   2.301
12925TIP3   OH262753   5.261   5.528   2.568
12925TIP3    H162754   5.330   5.497   2.505
12925TIP3    H262755   5.313   5.577   2.633
12926TIP3   OH262756   4.969   5.599   3.463
12926TIP3    H162757   5.032   5.525   3.447
12926TIP3    H262758   4.991   5.628   3.553
12927TIP3   OH262759   4.036   5.652   3.252
12927TIP3    H162760   3.959   5.691   3.205
12927TIP3    H262761   4.000   5.619   3.334
12928TIP3   OH262762   4.285   5.606   3.144
12928TIP3    H162763   4.202   5.612   3.195
12928TIP3    H262764   4.273   5.665   3.069
12929TIP3   OH262765   4.759   5.592   3.068
12929TIP3    H162766   4.709   5.647   3.006
12929TIP3    H262767   4.764   5.652   3.146
12930TIP3   OH262768   4.983   5.472   3.169
12930TIP3    H162769   4.896   5.500   3.137
12930TIP3    H262770   5.030   5.557   3.161
12931TIP3   OH262771   5.236   5.639   3.188
12931TIP3    H162772   5.236   5.729   3.158
12931TIP3    H262773   5.266   5.588   3.109
12932TIP3   OH262774   3.985   5.507   2.939
12932TIP3    H162775   3.978   5.462   3.026
12932TIP3    H262776   4.068   5.469   2.903
12933TIP3   OH262777   4.193   5.378   2.805
12933TIP3    H162778   4.177   5.285   2.827
12933TIP3    H262779   4.277   5.394   2.853
12934TIP3   OH262780   4.453   5.426   2.892
12934TIP3    H162781   4.467   5.332   2.869
12934TIP3    H262782   4.454   5.419   2.989
12935TIP3   OH262783   4.799   3.992   2.809
12935TIP3    H162784   4.731   3.927   2.831
12935TIP3    H262785   4.853   3.940   2.746
12936TIP3   OH262786   5.311   3.794   2.812
12936TIP3    H162787   5.372   3.855   2.764
12936TIP3    H262788   5.223   3.832   2.792
12937TIP3   OH262789   5.476   3.922   2.640
12937TIP3    H162790   5.545   3.863   2.600
12937TIP3    H262791   5.529   4.004   2.652
12938TIP3   OH262792   5.056   3.847   2.733
12938TIP3    H162793   5.047   3.859   2.638
12938TIP3    H262794   5.015   3.758   2.746
12939TIP3   OH262795   5.180   3.851   2.301
12939TIP3    H162796   5.104   3.909   2.285
12939TIP3    H262797   5.136   3.766   2.326
12940TIP3   OH262798   3.902   5.423   2.268
12940TIP3    H162799   3.837   5.421   2.195
12940TIP3    H262800   3.902   5.519   2.284
12941TIP3   OH262801   4.096   4.028   2.013
12941TIP3    H162802   4.141   3.962   1.956
12941TIP3    H262803   4.166   4.048   2.074
12942TIP3   OH262804   4.597   4.047   2.255
12942TIP3    H162805   4.620   3.989   2.329
12942TIP3    H262806   4.602   4.133   2.301
12943TIP3   OH262807   4.790   5.557   2.099
12943TIP3    H162808   4.883   5.576   2.077
12943TIP3    H262809   4.768   5.502   2.021
12944TIP3   OH262810   5.463   5.505   2.372
12944TIP3    H162811   5.441   5.426   2.317
12944TIP3    H262812   5.450   5.578   2.307
12945TIP3   OH262813   4.081   5.523   1.961
12945TIP3    H162814   4.055   5.548   2.051
12945TIP3    H262815   4.160   5.466   1.977
12946TIP3   OH262816   6.829   4.768   2.576
12946TIP3    H162817   6.826   4.866   2.576
12946TIP3    H262818   6.755   4.744   2.517
12947TIP3   OH262819   6.716   4.692   2.927
12947TIP3    H162820   6.712   4.628   3.000
12947TIP3    H262821   6.680   4.642   2.852
12948TIP3   OH262822   5.950   4.661   3.083
12948TIP3    H162823   5.957   4.590   3.150
12948TIP3    H262824   6.024   4.717   3.107
12949TIP3   OH262825   7.082   4.989   2.757
12949TIP3    H162826   7.040   4.917   2.806
12949TIP3    H262827   7.085   5.059   2.824
12950TIP3   OH262828   6.042   5.105   2.935
12950TIP3    H162829   6.012   5.018   2.900
12950TIP3    H262830   6.138   5.090   2.935
12951TIP3   OH262831   5.705   4.460   2.482
12951TIP3    H162832   5.662   4.548   2.475
12951TIP3    H262833   5.649   4.406   2.425
12952TIP3   OH262834   5.778   4.684   2.696
12952TIP3    H162835   5.805   4.602   2.743
12952TIP3    H262836   5.847   4.694   2.629
12953TIP3   OH262837   6.793   5.503   2.782
12953TIP3    H162838   6.859   5.436   2.750
12953TIP3    H262839   6.774   5.469   2.869
12954TIP3   OH262840   6.552   4.935   2.977
12954TIP3    H162841   6.585   4.871   2.912
12954TIP3    H262842   6.635   4.948   3.027
12955TIP3   OH262843   7.420   4.098   3.055
12955TIP3    H162844   7.423   4.170   3.118
12955TIP3    H262845   7.467   4.139   2.980
12956TIP3   OH262846   6.866   4.375   3.010
12956TIP3    H162847   6.886   4.281   3.001
12956TIP3    H262848   6.857   4.395   2.915
12957TIP3   OH262849   6.179   4.189   2.727
12957TIP3    H162850   6.191   4.272   2.677
12957TIP3    H262851   6.140   4.131   2.658
12958TIP3   OH262852   6.953   4.196   2.564
12958TIP3    H162853   7.017   4.166   2.632
12958TIP3    H262854   7.010   4.256   2.513
12959TIP3   OH262855   5.841   4.431   2.799
12959TIP3    H162856   5.908   4.377   2.847
12959TIP3    H262857   5.854   4.398   2.709
12960TIP3   OH262858   6.357   4.586   2.733
12960TIP3    H162859   6.424   4.527   2.773
12960TIP3    H262860   6.307   4.520   2.682
12961TIP3   OH262861   6.073   4.078   3.127
12961TIP3    H162862   6.044   4.139   3.056
12961TIP3    H262863   6.007   4.100   3.197
12962TIP3   OH262864   6.799   5.026   2.487
12962TIP3    H162865   6.774   5.000   2.397
12962TIP3    H262866   6.768   5.120   2.491
12963TIP3   OH262867   6.322   4.847   3.155
12963TIP3    H162868   6.250   4.906   3.176
12963TIP3    H262869   6.392   4.907   3.126
12964TIP3   OH262870   7.132   4.132   2.764
12964TIP3    H162871   7.113   4.056   2.819
12964TIP3    H262872   7.202   4.176   2.815
12965TIP3   OH262873   6.026   4.265   2.932
12965TIP3    H162874   6.090   4.333   2.965
12965TIP3    H262875   6.080   4.224   2.861
12966TIP3   OH262876   5.775   5.003   2.316
12966TIP3    H162877   5.750   5.039   2.229
12966TIP3    H262878   5.783   5.085   2.369
12967TIP3   OH262879   7.135   5.172   2.990
12967TIP3    H162880   7.038   5.182   3.003
12967TIP3    H262881   7.162   5.264   2.972
12968TIP3   OH262882   7.166   4.013   3.144
12968TIP3    H162883   7.090   4.062   3.110
12968TIP3    H262884   7.236   4.038   3.081
12969TIP3   OH262885   6.464   3.814   2.874
12969TIP3    H162886   6.449   3.717   2.870
12969TIP3    H262887   6.377   3.844   2.909
12970TIP3   OH262888   6.960   5.350   2.650
12970TIP3    H162889   7.004   5.278   2.599
12970TIP3    H262890   7.007   5.429   2.614
12971TIP3   OH262891   7.084   5.143   2.503
12971TIP3    H162892   7.053   5.073   2.443
12971TIP3    H262893   7.086   5.093   2.587
12972TIP3   OH262894   7.238   5.002   3.348
12972TIP3    H162895   7.261   4.936   3.280
12972TIP3    H262896   7.276   5.085   3.315
12973TIP3   OH262897   6.694   4.690   2.328
12973TIP3    H162898   6.626   4.749   2.292
12973TIP3    H262899   6.765   4.701   2.263
12974TIP3   OH262900   6.703   4.549   2.029
12974TIP3    H162901   6.773   4.548   2.096
12974TIP3    H262902   6.733   4.476   1.974
12975TIP3   OH262903   7.432   4.629   3.158
12975TIP3    H162904   7.372   4.707   3.167
12975TIP3    H262905   7.482   4.657   3.079
12976TIP3   OH262906   7.040   4.712   2.422
12976TIP3    H162907   6.966   4.736   2.481
12976TIP3    H262908   7.088   4.645   2.474
12977TIP3   OH262909   6.200   4.778   2.612
12977TIP3    H162910   6.168   4.739   2.527
12977TIP3    H262911   6.262   4.709   2.646
12978TIP3   OH262912   6.331   5.114   2.886
12978TIP3    H162913   6.332   5.066   2.802
12978TIP3    H262914   6.412   5.081   2.929
12979TIP3   OH262915   6.234   4.651   2.978
12979TIP3    H162916   6.287   4.662   2.897
12979TIP3    H262917   6.271   4.719   3.039
12980TIP3   OH262918   6.877   5.209   3.054
12980TIP3    H162919   6.844   5.273   3.118
12980TIP3    H262920   6.846   5.124   3.093
12981TIP3   OH262921   6.928   4.634   2.187
12981TIP3    H162922   6.983   4.651   2.267
12981TIP3    H262923   6.974   4.682   2.115
12982TIP3   OH262924   6.698   5.305   2.534
12982TIP3    H162925   6.741   5.335   2.615
12982TIP3    H262926   6.643   5.380   2.510
12983TIP3   OH262927   7.297   3.807   2.177
12983TIP3    H162928   7.202   3.822   2.199
12983TIP3    H262929   7.320   3.891   2.132
12984TIP3   OH262930   6.096   4.679   2.377
12984TIP3    H162931   6.068   4.758   2.324
12984TIP3    H262932   6.032   4.613   2.350
12985TIP3   OH262933   7.411   5.241   2.013
12985TIP3    H162934   7.428   5.335   2.030
12985TIP3    H262935   7.503   5.209   2.013
12986TIP3   OH262936   5.682   5.199   2.943
12986TIP3    H162937   5.777   5.185   2.941
12986TIP3    H262938   5.673   5.280   2.995
12987TIP3   OH262939   6.647   5.595   2.375
12987TIP3    H162940   6.635   5.588   2.279
12987TIP3    H262941   6.647   5.691   2.391
12988TIP3   OH262942   6.009   5.484   2.558
12988TIP3    H162943   6.026   5.441   2.645
12988TIP3    H262944   5.926   5.438   2.535
12989TIP3   OH262945   6.952   5.517   2.073
12989TIP3    H162946   6.998   5.441   2.031
12989TIP3    H262947   6.956   5.492   2.168
12990TIP3   OH262948   6.922   5.511   2.352
12990TIP3    H162949   6.825   5.518   2.368
12990TIP3    H262950   6.944   5.436   2.409
12991TIP3   OH262951   6.203   3.904   2.949
12991TIP3    H162952   6.112   3.891   2.916
12991TIP3    H262953   6.190   3.983   3.004
12992TIP3   OH262954   6.663   3.875   3.294
12992TIP3    H162955   6.704   3.827   3.369
12992TIP3    H262956   6.567   3.855   3.307
12993TIP3   OH262957   7.073   4.736   1.972
12993TIP3    H162958   7.069   4.717   1.875
12993TIP3    H262959   7.158   4.781   1.975
12994TIP3   OH262960   6.631   4.129   2.020
12994TIP3    H162961   6.599   4.122   2.112
12994TIP3    H262962   6.600   4.041   1.988
12995TIP3   OH262963   6.210   4.399   3.072
12995TIP3    H162964   6.140   4.399   3.140
12995TIP3    H262965   6.209   4.492   3.040
12996TIP3   OH262966   6.209   4.409   2.566
12996TIP3    H162967   6.115   4.386   2.552
12996TIP3    H262968   6.246   4.382   2.479
12997TIP3   OH262969   6.762   4.463   2.444
12997TIP3    H162970   6.722   4.545   2.405
12997TIP3    H262971   6.829   4.444   2.376
12998TIP3   OH262972   6.865   4.412   2.726
12998TIP3    H162973   6.835   4.468   2.653
12998TIP3    H262974   6.874   4.326   2.680
12999TIP3   OH262975   5.976   4.428   3.251
12999TIP3    H162976   5.978   4.466   3.340
12999TIP3    H262977   5.932   4.344   3.269
13000TIP3   OH262978   6.312   4.164   1.932
13000TIP3    H162979   6.266   4.122   2.008
13000TIP3    H262980   6.241   4.208   1.883
13001TIP3   OH262981   5.641   4.134   2.646
13001TIP3    H162982   5.710   4.131   2.716
13001TIP3    H262983   5.686   4.098   2.568
13002TIP3   OH262984   5.767   4.207   2.180
13002TIP3    H162985   5.820   4.267   2.124
13002TIP3    H262986   5.699   4.270   2.211
13003TIP3   OH262987   6.765   4.566   3.172
13003TIP3    H162988   6.820   4.503   3.119
13003TIP3    H262989   6.733   4.518   3.247
13004TIP3   OH262990   6.465   4.168   2.666
13004TIP3    H162991   6.371   4.167   2.694
13004TIP3    H262992   6.512   4.149   2.748
13005TIP3   OH262993   5.945   4.322   2.553
13005TIP3    H162994   5.857   4.338   2.513
13005TIP3    H262995   5.974   4.238   2.513
13006TIP3   OH262996   6.309   4.327   2.315
13006TIP3    H162997   6.405   4.338   2.331
13006TIP3    H262998   6.286   4.395   2.250
13007TIP3   OH262999   6.905   4.096   2.990
13007TIP3    H163000   6.835   4.090   3.058
13007TIP3    H263001   6.858   4.064   2.911
13008TIP3   OH263002   6.181   4.444   2.074
13008TIP3    H163003   6.127   4.406   2.002
13008TIP3    H263004   6.263   4.466   2.026
13009TIP3   OH263005   6.592   4.442   2.853
13009TIP3    H163006   6.654   4.390   2.800
13009TIP3    H263007   6.579   4.387   2.931
13010TIP3   OH263008   6.094   4.057   2.498
13010TIP3    H163009   6.062   3.965   2.499
13010TIP3    H263010   6.173   4.049   2.443
13011TIP3   OH263011   6.456   4.272   3.096
13011TIP3    H163012   6.372   4.324   3.098
13011TIP3    H263013   6.509   4.312   3.165
13012TIP3   OH263014   6.516   4.897   2.266
13012TIP3    H163015   6.435   4.851   2.232
13012TIP3    H263016   6.492   4.911   2.360
13013TIP3   OH263017   7.236   4.816   3.146
13013TIP3    H163018   7.293   4.867   3.085
13013TIP3    H263019   7.150   4.820   3.101
13014TIP3   OH263020   6.897   4.178   2.084
13014TIP3    H163021   6.803   4.195   2.070
13014TIP3    H263022   6.932   4.263   2.119
13015TIP3   OH263023   6.972   4.372   2.244
13015TIP3    H163024   7.059   4.359   2.287
13015TIP3    H263025   6.982   4.454   2.194
13016TIP3   OH263026   6.028   4.839   2.847
13016TIP3    H163027   6.093   4.830   2.775
13016TIP3    H263028   6.031   4.751   2.889
13017TIP3   OH263029   6.724   5.044   2.169
13017TIP3    H163030   6.690   5.129   2.204
13017TIP3    H263031   6.651   4.982   2.192
13018TIP3   OH263032   7.457   4.384   2.226
13018TIP3    H163033   7.405   4.357   2.149
13018TIP3    H263034   7.475   4.476   2.198
13019TIP3   OH263035   7.287   5.267   2.262
13019TIP3    H163036   7.254   5.184   2.298
13019TIP3    H263037   7.324   5.245   2.175
13020TIP3   OH263038   7.011   4.752   2.976
13020TIP3    H163039   6.918   4.730   2.962
13020TIP3    H263040   7.055   4.676   2.932
13021TIP3   OH263041   6.264   5.183   2.585
13021TIP3    H163042   6.314   5.264   2.564
13021TIP3    H263043   6.177   5.205   2.551
13022TIP3   OH263044   5.841   4.666   2.042
13022TIP3    H163045   5.899   4.733   2.084
13022TIP3    H263046   5.752   4.697   2.066
13023TIP3   OH263047   6.404   4.949   2.534
13023TIP3    H163048   6.373   5.041   2.545
13023TIP3    H263049   6.334   4.899   2.580
13024TIP3   OH263050   6.450   5.368   3.171
13024TIP3    H163051   6.497   5.450   3.152
13024TIP3    H263052   6.506   5.336   3.245
13025TIP3   OH263053   6.273   5.449   2.487
13025TIP3    H163054   6.177   5.461   2.503
13025TIP3    H263055   6.311   5.531   2.523
13026TIP3   OH263056   6.802   4.966   3.137
13026TIP3    H163057   6.770   4.953   3.228
13026TIP3    H263058   6.868   4.896   3.124
13027TIP3   OH263059   7.037   5.077   2.048
13027TIP3    H163060   7.066   5.028   2.128
13027TIP3    H263061   6.942   5.057   2.055
13028TIP3   OH263062   7.483   5.511   2.073
13028TIP3    H163063   7.552   5.577   2.053
13028TIP3    H263064   7.411   5.571   2.102
13029TIP3   OH263065   5.887   4.151   3.323
13029TIP3    H163066   5.795   4.181   3.321
13029TIP3    H263067   5.884   4.067   3.373
13030TIP3   OH263068   7.114   4.939   2.272
13030TIP3    H163069   7.090   4.860   2.325
13030TIP3    H263070   7.209   4.942   2.289
13031TIP3   OH263071   5.851   5.331   3.174
13031TIP3    H163072   5.886   5.241   3.166
13031TIP3    H263073   5.889   5.365   3.255
13032TIP3   OH263074   6.450   5.182   1.898
13032TIP3    H163075   6.459   5.106   1.838
13032TIP3    H263076   6.404   5.139   1.974
13033TIP3   OH263077   6.325   5.135   2.143
13033TIP3    H163078   6.355   5.083   2.220
13033TIP3    H263079   6.336   5.227   2.176
13034TIP3   OH263080   5.981   4.859   2.192
13034TIP3    H163081   5.909   4.899   2.245
13034TIP3    H263082   6.031   4.937   2.161
13035TIP3   OH263083   6.760   4.132   3.231
13035TIP3    H163084   6.835   4.116   3.287
13035TIP3    H263085   6.721   4.041   3.235
13036TIP3   OH263086   6.838   4.083   2.333
13036TIP3    H163087   6.861   4.130   2.249
13036TIP3    H263088   6.895   4.130   2.395
13037TIP3   OH263089   6.607   5.301   2.212
13037TIP3    H163090   6.525   5.354   2.220
13037TIP3    H263091   6.661   5.357   2.154
13038TIP3   OH263092   6.561   4.259   2.414
13038TIP3    H163093   6.639   4.319   2.419
13038TIP3    H263094   6.534   4.247   2.507
13039TIP3   OH263095   6.645   3.966   2.501
13039TIP3    H163096   6.613   4.031   2.565
13039TIP3    H263097   6.715   4.020   2.458
13040TIP3   OH263098   6.348   5.404   2.216
13040TIP3    H163099   6.355   5.485   2.160
13040TIP3    H263100   6.318   5.441   2.302
13041TIP3   OH263101   6.212   4.076   2.173
13041TIP3    H163102   6.207   4.166   2.212
13041TIP3    H263103   6.302   4.052   2.199
13042TIP3   OH263104   7.237   4.151   3.418
13042TIP3    H163105   7.144   4.168   3.409
13042TIP3    H263106   7.262   4.148   3.325
13043TIP3   OH263107   7.095   4.530   2.815
13043TIP3    H163108   7.013   4.484   2.789
13043TIP3    H263109   7.145   4.462   2.865
13044TIP3   OH263110   6.035   5.120   2.077
13044TIP3    H163111   6.102   5.182   2.109
13044TIP3    H263112   6.087   5.073   2.009
13045TIP3   OH263113   5.869   4.388   1.992
13045TIP3    H163114   5.872   4.484   2.013
13045TIP3    H263115   5.780   4.372   1.961
13046TIP3   OH263116   7.200   5.456   2.989
13046TIP3    H163117   7.191   5.522   2.918
13046TIP3    H263118   7.297   5.459   3.000
13047TIP3   OH263119   5.949   3.867   2.867
13047TIP3    H163120   5.933   3.868   2.770
13047TIP3    H263121   5.911   3.780   2.891
13048TIP3   OH263122   5.847   5.258   2.482
13048TIP3    H163123   5.761   5.301   2.475
13048TIP3    H263124   5.893   5.301   2.410
13049TIP3   OH263125   6.650   5.368   1.910
13049TIP3    H163126   6.580   5.301   1.931
13049TIP3    H263127   6.721   5.307   1.885
13050TIP3   OH263128   7.105   5.341   1.928
13050TIP3    H163129   7.134   5.264   1.979
13050TIP3    H263130   7.181   5.362   1.873
13051TIP3   OH263131   6.193   4.936   1.909
13051TIP3    H163132   6.207   4.860   1.968
13051TIP3    H263133   6.269   4.924   1.848
13052TIP3   OH263134   6.737   5.047   1.888
13052TIP3    H163135   6.709   5.054   1.981
13052TIP3    H263136   6.718   4.951   1.873
13053TIP3   OH263137   6.990   4.890   3.369
13053TIP3    H163138   7.077   4.935   3.385
13053TIP3    H263139   6.926   4.955   3.397
13054TIP3   OH263140   6.314   4.738   2.154
13054TIP3    H163141   6.262   4.683   2.216
13054TIP3    H263142   6.344   4.671   2.088
13055TIP3   OH263143   6.421   4.560   1.973
13055TIP3    H163144   6.407   4.552   1.876
13055TIP3    H263145   6.519   4.564   1.980
13056TIP3   OH263146   7.349   4.793   1.915
13056TIP3    H163147   7.337   4.754   1.827
13056TIP3    H263148   7.362   4.889   1.895
13057TIP3   OH263149   6.323   4.090   3.244
13057TIP3    H163150   6.369   4.140   3.174
13057TIP3    H263151   6.231   4.085   3.209
13058TIP3   OH263152   6.480   4.641   3.263
13058TIP3    H163153   6.554   4.631   3.203
13058TIP3    H263154   6.436   4.722   3.234
13059TIP3   OH263155   6.400   3.839   3.284
13059TIP3    H163156   6.380   3.936   3.280
13059TIP3    H263157   6.324   3.803   3.237
13060TIP3   OH263158   6.404   5.630   2.081
13060TIP3    H163159   6.500   5.637   2.088
13060TIP3    H263160   6.390   5.688   2.005
13061TIP3   OH263161   5.758   5.086   2.029
13061TIP3    H163162   5.855   5.096   2.046
13061TIP3    H263163   5.763   5.023   1.953
13062TIP3   OH263164   5.641   5.626   2.523
13062TIP3    H163165   5.567   5.578   2.479
13062TIP3    H263166   5.664   5.560   2.592
13063TIP3   OH263167   5.720   5.441   2.712
13063TIP3    H163168   5.684   5.354   2.732
13063TIP3    H263169   5.742   5.472   2.802
13064TIP3   OH263170   7.467   5.519   3.007
13064TIP3    H163171   7.477   5.536   3.100
13064TIP3    H263172   7.540   5.572   2.973
13065TIP3   OH263173   7.408   4.884   2.309
13065TIP3    H163174   7.494   4.923   2.329
13065TIP3    H263175   7.405   4.813   2.376
13066TIP3   OH263176   7.440   4.694   2.499
13066TIP3    H163177   7.366   4.642   2.538
13066TIP3    H263178   7.502   4.702   2.575
13067TIP3   OH263179   7.419   4.958   2.999
13067TIP3    H163180   7.501   4.922   2.961
13067TIP3    H263181   7.432   5.054   2.980
13068TIP3   OH263182   7.272   5.252   3.223
13068TIP3    H163183   7.203   5.273   3.288
13068TIP3    H263184   7.223   5.208   3.151
13069TIP3   OH263185   7.473   4.675   2.139
13069TIP3    H163186   7.417   4.707   2.066
13069TIP3    H263187   7.462   4.746   2.204
13070TIP3   OH263188   7.307   4.396   1.987
13070TIP3    H163189   7.321   4.461   1.918
13070TIP3    H263190   7.292   4.313   1.938
13071TIP3   OH263191   7.225   4.538   2.557
13071TIP3    H163192   7.211   4.443   2.551
13071TIP3    H263193   7.193   4.558   2.647
13072TIP3   OH263194   5.727   4.750   2.962
13072TIP3    H163195   5.744   4.740   2.866
13072TIP3    H263196   5.814   4.728   3.001
13073TIP3   OH263197   7.235   4.143   1.904
13073TIP3    H163198   7.294   4.099   1.967
13073TIP3    H263199   7.148   4.101   1.918
13074TIP3   OH263200   7.190   4.298   2.396
13074TIP3    H163201   7.221   4.207   2.413
13074TIP3    H263202   7.273   4.338   2.365
13075TIP3   OH263203   7.255   4.350   2.947
13075TIP3    H163204   7.350   4.375   2.942
13075TIP3    H263205   7.240   4.367   3.041
13076TIP3   OH263206   7.261   4.423   3.217
13076TIP3    H163207   7.183   4.458   3.259
13076TIP3    H263208   7.313   4.506   3.202
13077TIP3   OH263209   7.261   4.025   2.405
13077TIP3    H163210   7.281   3.985   2.492
13077TIP3    H263211   7.199   3.963   2.363
13078TIP3   OH263212   5.806   4.106   2.864
13078TIP3    H163213   5.853   4.023   2.887
13078TIP3    H263214   5.864   4.175   2.900
13079TIP3   OH263215   5.633   4.403   2.961
13079TIP3    H163216   5.693   4.381   2.888
13079TIP3    H263217   5.678   4.482   2.997
13080TIP3   OH263218   7.439   4.028   2.061
13080TIP3    H163219   7.482   3.959   2.007
13080TIP3    H263220   7.508   4.097   2.066
13081TIP3   OH263221   5.673   4.035   2.374
13081TIP3    H163222   5.578   4.049   2.357
13081TIP3    H263223   5.714   4.082   2.300
13082TIP3   OH263224   7.146   5.526   2.567
13082TIP3    H163225   7.214   5.497   2.505
13082TIP3    H263226   7.197   5.577   2.632
13083TIP3   OH263227   5.668   3.902   3.202
13083TIP3    H163228   5.604   3.870   3.267
13083TIP3    H263229   5.619   3.966   3.147
13084TIP3   OH263230   6.177   5.320   3.243
13084TIP3    H163231   6.151   5.409   3.217
13084TIP3    H263232   6.273   5.325   3.220
13085TIP3   OH263233   6.862   5.591   3.444
13085TIP3    H163234   6.899   5.503   3.449
13085TIP3    H263235   6.862   5.612   3.539
13086TIP3   OH263236   5.918   5.637   3.248
13086TIP3    H163237   5.848   5.693   3.208
13086TIP3    H263238   5.885   5.630   3.339
13087TIP3   OH263239   6.166   5.598   3.146
13087TIP3    H163240   6.083   5.617   3.193
13087TIP3    H263241   6.164   5.661   3.074
13088TIP3   OH263242   6.648   5.592   3.064
13088TIP3    H163243   6.594   5.647   3.004
13088TIP3    H263244   6.651   5.651   3.144
13089TIP3   OH263245   6.876   5.473   3.168
13089TIP3    H163246   6.786   5.494   3.138
13089TIP3    H263247   6.910   5.562   3.157
13090TIP3   OH263248   5.871   5.507   2.937
13090TIP3    H163249   5.862   5.464   3.024
13090TIP3    H263250   5.953   5.467   2.901
13091TIP3   OH263251   6.079   5.378   2.804
13091TIP3    H163252   6.062   5.285   2.828
13091TIP3    H263253   6.163   5.394   2.852
13092TIP3   OH263254   6.341   5.425   2.894
13092TIP3    H163255   6.352   5.331   2.869
13092TIP3    H263256   6.343   5.419   2.991
13093TIP3   OH263257   6.684   3.991   2.807
13093TIP3    H163258   6.615   3.928   2.835
13093TIP3    H263259   6.737   3.937   2.748
13094TIP3   OH263260   7.198   3.790   2.805
13094TIP3    H163261   7.258   3.858   2.766
13094TIP3    H263262   7.109   3.831   2.793
13095TIP3   OH263263   7.363   3.921   2.639
13095TIP3    H163264   7.433   3.865   2.599
13095TIP3    H263265   7.413   4.005   2.652
13096TIP3   OH263266   5.921   3.853   2.592
13096TIP3    H163267   5.841   3.835   2.539
13096TIP3    H263268   5.966   3.766   2.587
13097TIP3   OH263269   5.796   3.828   2.163
13097TIP3    H163270   5.846   3.893   2.110
13097TIP3    H263271   5.741   3.886   2.218
13098TIP3   OH263272   6.366   3.846   2.572
13098TIP3    H163273   6.456   3.881   2.562
13098TIP3    H263274   6.365   3.824   2.665
13099TIP3   OH263275   6.945   3.845   2.731
13099TIP3    H163276   6.931   3.860   2.637
13099TIP3    H263277   6.898   3.759   2.746
13100TIP3   OH263278   7.066   3.849   2.304
13100TIP3    H163279   6.992   3.911   2.285
13100TIP3    H263280   7.018   3.766   2.324
13101TIP3   OH263281   5.788   5.424   2.269
13101TIP3    H163282   5.723   5.419   2.196
13101TIP3    H263283   5.786   5.520   2.282
13102TIP3   OH263284   5.979   4.023   2.016
13102TIP3    H163285   6.032   3.962   1.962
13102TIP3    H263286   6.046   4.056   2.078
13103TIP3   OH263287   6.481   4.047   2.255
13103TIP3    H163288   6.507   3.990   2.329
13103TIP3    H263289   6.490   4.134   2.300
13104TIP3   OH263290   6.676   5.556   2.100
13104TIP3    H163291   6.768   5.576   2.078
13104TIP3    H263292   6.654   5.502   2.021
13105TIP3   OH263293   7.344   5.504   2.373
13105TIP3    H163294   7.325   5.426   2.316
13105TIP3    H263295   7.338   5.578   2.308
13106TIP3   OH263296   5.967   5.522   1.961
13106TIP3    H163297   5.942   5.547   2.051
13106TIP3    H263298   6.046   5.466   1.976
13107TIP3   OH263299   7.830   4.663   3.087
13107TIP3    H163300   7.846   4.590   3.150
13107TIP3    H263301   7.911   4.714   3.102
13108TIP3   OH263302   7.907   5.091   2.947
13108TIP3    H163303   7.891   5.007   2.899
13108TIP3    H263304   8.005   5.096   2.939
13109TIP3   OH263305   7.588   4.460   2.482
13109TIP3    H163306   7.547   4.549   2.474
13109TIP3    H263307   7.531   4.407   2.424
13110TIP3   OH263308   7.663   4.684   2.697
13110TIP3    H163309   7.691   4.601   2.741
13110TIP3    H263310   7.733   4.694   2.630
13111TIP3   OH263311   7.723   4.427   2.801
13111TIP3    H163312   7.795   4.378   2.845
13111TIP3    H263313   7.741   4.399   2.710
13112TIP3   OH263314   7.931   4.074   3.131
13112TIP3    H163315   7.928   4.138   3.057
13112TIP3    H263316   7.880   4.113   3.201
13113TIP3   OH263317   7.901   4.247   2.928
13113TIP3    H163318   7.954   4.323   2.965
13113TIP3    H263319   7.958   4.221   2.854
13114TIP3   OH263320   7.666   5.005   2.316
13114TIP3    H163321   7.635   5.037   2.230
13114TIP3    H263322   7.667   5.087   2.369
13115TIP3   OH263323   7.904   4.717   3.373
13115TIP3    H163324   7.901   4.782   3.444
13115TIP3    H263325   7.812   4.722   3.342
13116TIP3   OH263326   7.980   4.684   2.368
13116TIP3    H163327   7.950   4.765   2.323
13116TIP3    H263328   7.911   4.619   2.349
13117TIP3   OH263329   7.603   4.920   3.250
13117TIP3    H163330   7.542   4.915   3.176
13117TIP3    H263331   7.597   4.831   3.288
13118TIP3   OH263332   7.570   5.199   2.943
13118TIP3    H163333   7.666   5.185   2.940
13118TIP3    H263334   7.562   5.279   2.996
13119TIP3   OH263335   7.884   5.474   2.560
13119TIP3    H163336   7.901   5.436   2.649
13119TIP3    H263337   7.798   5.434   2.540
13120TIP3   OH263338   7.856   4.430   3.253
13120TIP3    H163339   7.864   4.470   3.341
13120TIP3    H263340   7.821   4.342   3.267
13121TIP3   OH263341   7.524   4.133   2.646
13121TIP3    H163342   7.593   4.130   2.715
13121TIP3    H263343   7.571   4.101   2.567
13122TIP3   OH263344   7.643   4.199   2.186
13122TIP3    H163345   7.698   4.262   2.133
13122TIP3    H263346   7.578   4.267   2.213
13123TIP3   OH263347   7.828   4.326   2.548
13123TIP3    H163348   7.738   4.337   2.512
13123TIP3    H263349   7.857   4.238   2.521
13124TIP3   OH263350   7.936   4.051   2.494
13124TIP3    H163351   7.921   3.955   2.507
13124TIP3    H263352   8.024   4.054   2.457
13125TIP3   OH263353   7.908   4.839   2.839
13125TIP3    H163354   7.984   4.833   2.779
13125TIP3    H263355   7.915   4.755   2.889
13126TIP3   OH263356   7.623   4.665   3.368
13126TIP3    H163357   7.621   4.636   3.460
13126TIP3    H263358   7.545   4.621   3.331
13127TIP3   OH263359   7.732   4.672   2.037
13127TIP3    H163360   7.785   4.737   2.086
13127TIP3    H263361   7.640   4.693   2.065
13128TIP3   OH263362   7.755   5.331   3.166
13128TIP3    H163363   7.756   5.235   3.171
13128TIP3    H263364   7.759   5.357   3.257
13129TIP3   OH263365   7.868   4.861   2.188
13129TIP3    H163366   7.796   4.897   2.244
13129TIP3    H263367   7.916   4.942   2.167
13130TIP3   OH263368   7.918   5.124   2.072
13130TIP3    H163369   7.983   5.184   2.112
13130TIP3    H263370   7.977   5.077   2.011
13131TIP3   OH263371   7.733   4.405   2.064
13131TIP3    H163372   7.764   4.487   2.022
13131TIP3    H263373   7.694   4.369   1.981
13132TIP3   OH263374   7.836   3.867   2.866
13132TIP3    H163375   7.821   3.871   2.770
13132TIP3    H263376   7.799   3.781   2.891
13133TIP3   OH263377   7.726   5.258   2.481
13133TIP3    H163378   7.642   5.306   2.475
13133TIP3    H263379   7.778   5.303   2.413
13134TIP3   OH263380   7.647   5.088   2.027
13134TIP3    H163381   7.743   5.097   2.045
13134TIP3    H263382   7.651   5.023   1.953
13135TIP3   OH263383   7.522   5.625   2.524
13135TIP3    H163384   7.449   5.576   2.479
13135TIP3    H263385   7.552   5.561   2.591
13136TIP3   OH263386   7.605   5.437   2.710
13136TIP3    H163387   7.569   5.350   2.733
13136TIP3    H263388   7.630   5.471   2.799
13137TIP3   OH263389   7.613   4.753   2.958
13137TIP3    H163390   7.635   4.737   2.864
13137TIP3    H263391   7.698   4.729   3.000
13138TIP3   OH263392   7.688   4.105   2.866
13138TIP3    H163393   7.741   4.024   2.882
13138TIP3    H263394   7.752   4.174   2.894
13139TIP3   OH263395   7.521   4.401   2.966
13139TIP3    H163396   7.578   4.382   2.889
13139TIP3    H263397   7.563   4.485   2.992
13140TIP3   OH263398   7.555   4.027   2.372
13140TIP3    H163399   7.461   4.049   2.358
13140TIP3    H263400   7.597   4.081   2.304
13141TIP3   OH263401   7.549   3.903   3.208
13141TIP3    H163402   7.474   3.869   3.260
13141TIP3    H263403   7.503   3.960   3.142
13142TIP3   OH263404   8.028   5.564   3.125
13142TIP3    H163405   7.968   5.609   3.184
13142TIP3    H263406   8.060   5.644   3.078
13143TIP3   OH263407   7.747   5.508   2.942
13143TIP3    H163408   7.749   5.459   3.026
13143TIP3    H263409   7.828   5.471   2.899
13144TIP3   OH263410   7.946   5.376   2.823
13144TIP3    H163411   7.940   5.279   2.832
13144TIP3    H263412   8.035   5.389   2.857
13145TIP3   OH263413   7.803   3.849   2.594
13145TIP3    H163414   7.721   3.832   2.542
13145TIP3    H263415   7.850   3.764   2.592
13146TIP3   OH263416   7.680   3.830   2.160
13146TIP3    H163417   7.732   3.898   2.111
13146TIP3    H263418   7.626   3.887   2.218
13147TIP3   OH263419   7.676   5.424   2.264
13147TIP3    H163420   7.605   5.423   2.198
13147TIP3    H263421   7.676   5.520   2.282
13148TIP3   OH263422   7.862   4.007   2.030
13148TIP3    H163423   7.915   3.973   1.955
13148TIP3    H263424   7.925   4.066   2.072
13149TIP3   OH263425   7.858   5.530   1.962
13149TIP3    H163426   7.829   5.553   2.051
13149TIP3    H263427   7.929   5.466   1.979
13150TIP3   OH263428   1.173   6.654   2.575
13150TIP3    H163429   1.170   6.752   2.576
13150TIP3    H263430   1.099   6.631   2.517
13151TIP3   OH263431   1.058   6.579   2.929
13151TIP3    H163432   1.057   6.513   3.001
13151TIP3    H263433   1.023   6.529   2.854
13152TIP3   OH263434   0.297   6.544   3.085
13152TIP3    H163435   0.304   6.475   3.154
13152TIP3    H263436   0.369   6.603   3.110
13153TIP3   OH263437   1.426   6.875   2.757
13153TIP3    H163438   1.383   6.803   2.803
13153TIP3    H263439   1.429   6.944   2.827
13154TIP3   OH263440   0.383   6.992   2.925
13154TIP3    H163441   0.354   6.901   2.902
13154TIP3    H263442   0.478   6.975   2.936
13155TIP3   OH263443   0.055   6.349   2.473
13155TIP3    H163444   0.010   6.436   2.478
13155TIP3    H263445  -0.011   6.294   2.431
13156TIP3   OH263446   0.120   6.566   2.695
13156TIP3    H163447   0.146   6.484   2.742
13156TIP3    H263448   0.189   6.576   2.629
13157TIP3   OH263449   1.137   7.388   2.782
13157TIP3    H163450   1.203   7.321   2.751
13157TIP3    H263451   1.118   7.354   2.870
13158TIP3   OH263452   0.897   6.821   2.978
13158TIP3    H163453   0.928   6.757   2.912
13158TIP3    H263454   0.979   6.833   3.028
13159TIP3   OH263455   1.753   5.985   3.045
13159TIP3    H163456   1.769   6.039   3.126
13159TIP3    H263457   1.816   6.027   2.985
13160TIP3   OH263458   1.204   6.262   3.006
13160TIP3    H163459   1.234   6.170   3.004
13160TIP3    H263460   1.200   6.280   2.910
13161TIP3   OH263461   0.523   6.075   2.727
13161TIP3    H163462   0.534   6.158   2.677
13161TIP3    H263463   0.485   6.017   2.658
13162TIP3   OH263464   1.297   6.081   2.564
13162TIP3    H163465   1.361   6.050   2.632
13162TIP3    H263466   1.353   6.141   2.513
13163TIP3   OH263467   0.198   6.317   2.796
13163TIP3    H163468   0.257   6.257   2.845
13163TIP3    H263469   0.199   6.280   2.706
13164TIP3   OH263470   0.701   6.471   2.732
13164TIP3    H163471   0.767   6.413   2.773
13164TIP3    H263472   0.649   6.405   2.681
13165TIP3   OH263473   1.787   6.125   3.274
13165TIP3    H163474   1.735   6.206   3.274
13165TIP3    H263475   1.811   6.114   3.368
13166TIP3   OH263476   0.414   5.962   3.123
13166TIP3    H163477   0.385   6.025   3.055
13166TIP3    H263478   0.352   5.984   3.197
13167TIP3   OH263479   1.142   6.912   2.485
13167TIP3    H163480   1.116   6.885   2.396
13167TIP3    H263481   1.111   7.006   2.491
13168TIP3   OH263482   0.666   6.732   3.146
13168TIP3    H163483   0.596   6.790   3.180
13168TIP3    H263484   0.738   6.794   3.127
13169TIP3   OH263485   1.476   6.018   2.768
13169TIP3    H163486   1.458   5.940   2.820
13169TIP3    H263487   1.546   6.060   2.820
13170TIP3   OH263488   0.372   6.149   2.933
13170TIP3    H163489   0.434   6.219   2.966
13170TIP3    H263490   0.426   6.109   2.860
13171TIP3   OH263491   0.117   6.891   2.313
13171TIP3    H163492   0.091   6.925   2.227
13171TIP3    H263493   0.126   6.971   2.367
13172TIP3   OH263494   1.477   7.055   2.984
13172TIP3    H163495   1.383   7.070   3.006
13172TIP3    H263496   1.508   7.148   2.978
13173TIP3   OH263497   1.504   5.886   3.124
13173TIP3    H163498   1.438   5.956   3.122
13173TIP3    H263499   1.583   5.928   3.087
13174TIP3   OH263500   0.808   5.700   2.876
13174TIP3    H163501   0.794   5.603   2.871
13174TIP3    H263502   0.720   5.729   2.908
13175TIP3   OH263503   1.302   7.236   2.649
13175TIP3    H163504   1.347   7.163   2.601
13175TIP3    H263505   1.350   7.314   2.614
13176TIP3   OH263506   1.427   7.028   2.504
13176TIP3    H163507   1.396   6.959   2.443
13176TIP3    H263508   1.430   6.979   2.588
13177TIP3   OH263509   1.606   6.884   3.359
13177TIP3    H163510   1.597   6.824   3.281
13177TIP3    H263511   1.596   6.971   3.316
13178TIP3   OH263512   1.037   6.576   2.329
13178TIP3    H163513   0.968   6.635   2.292
13178TIP3    H263514   1.108   6.586   2.263
13179TIP3   OH263515   1.045   6.437   2.028
13179TIP3    H163516   1.115   6.434   2.095
13179TIP3    H263517   1.076   6.363   1.973
13180TIP3   OH263518   1.782   6.523   3.160
13180TIP3    H163519   1.709   6.588   3.164
13180TIP3    H263520   1.822   6.543   3.075
13181TIP3   OH263521   1.384   6.597   2.420
13181TIP3    H163522   1.310   6.622   2.480
13181TIP3    H263523   1.431   6.530   2.474
13182TIP3   OH263524   0.545   6.664   2.612
13182TIP3    H163525   0.511   6.625   2.528
13182TIP3    H263526   0.606   6.594   2.646
13183TIP3   OH263527   0.676   7.000   2.883
13183TIP3    H163528   0.675   6.951   2.800
13183TIP3    H263529   0.756   6.966   2.926
13184TIP3   OH263530   0.579   6.534   2.976
13184TIP3    H163531   0.632   6.547   2.896
13184TIP3    H263532   0.613   6.603   3.038
13185TIP3   OH263533   1.214   7.095   3.051
13185TIP3    H163534   1.193   7.161   3.118
13185TIP3    H263535   1.192   7.009   3.094
13186TIP3   OH263536   1.271   6.519   2.187
13186TIP3    H163537   1.326   6.536   2.267
13186TIP3    H263538   1.317   6.568   2.115
13187TIP3   OH263539   0.358   6.593   3.372
13187TIP3    H163540   0.374   6.666   3.434
13187TIP3    H263541   0.273   6.616   3.333
13188TIP3   OH263542   1.042   7.191   2.534
13188TIP3    H163543   1.085   7.221   2.615
13188TIP3    H263544   0.986   7.266   2.510
13189TIP3   OH263545   1.643   5.691   2.179
13189TIP3    H163546   1.548   5.702   2.202
13189TIP3    H263547   1.663   5.775   2.134
13190TIP3   OH263548   0.445   6.566   2.373
13190TIP3    H163549   0.411   6.644   2.324
13190TIP3    H263550   0.378   6.500   2.352
13191TIP3   OH263551   1.755   7.125   2.014
13191TIP3    H163552   1.771   7.220   2.030
13191TIP3    H263553   1.847   7.094   2.014
13192TIP3   OH263554   0.095   6.746   3.238
13192TIP3    H163555   0.028   6.800   3.191
13192TIP3    H263556   0.038   6.700   3.298
13193TIP3   OH263557   0.051   7.107   2.925
13193TIP3    H163558   0.139   7.073   2.947
13193TIP3    H263559   0.031   7.163   3.002
13194TIP3   OH263560   0.990   7.481   2.376
13194TIP3    H163561   0.978   7.474   2.280
13194TIP3    H263562   0.989   7.578   2.392
13195TIP3   OH263563   0.358   7.365   2.556
13195TIP3    H163564   0.368   7.328   2.646
13195TIP3    H263565   0.272   7.328   2.533
13196TIP3   OH263566   1.295   7.403   2.073
13196TIP3    H163567   1.341   7.327   2.031
13196TIP3    H263568   1.299   7.378   2.168
13197TIP3   OH263569   1.265   7.396   2.352
13197TIP3    H163570   1.168   7.403   2.368
13197TIP3    H263571   1.287   7.322   2.409
13198TIP3   OH263572   0.279   6.937   3.352
13198TIP3    H163573   0.296   6.914   3.446
13198TIP3    H263574   0.192   6.897   3.337
13199TIP3   OH263575   0.549   5.794   2.944
13199TIP3    H163576   0.457   5.777   2.915
13199TIP3    H263577   0.533   5.869   3.004
13200TIP3   OH263578   1.414   6.623   1.971
13200TIP3    H163579   1.412   6.603   1.874
13200TIP3    H263580   1.501   6.666   1.974
13201TIP3   OH263581   0.974   6.014   2.020
13201TIP3    H163582   0.943   6.007   2.112
13201TIP3    H263583   0.944   5.927   1.989
13202TIP3   OH263584   0.553   6.283   3.075
13202TIP3    H163585   0.484   6.284   3.144
13202TIP3    H263586   0.553   6.376   3.046
13203TIP3   OH263587   0.554   6.296   2.565
13203TIP3    H163588   0.459   6.274   2.553
13203TIP3    H263589   0.589   6.268   2.479
13204TIP3   OH263590   1.103   6.348   2.442
13204TIP3    H163591   1.065   6.430   2.405
13204TIP3    H263592   1.172   6.330   2.376
13205TIP3   OH263593   1.208   6.295   2.728
13205TIP3    H163594   1.179   6.353   2.655
13205TIP3    H263595   1.218   6.212   2.678
13206TIP3   OH263596   0.312   6.320   3.250
13206TIP3    H163597   0.327   6.351   3.341
13206TIP3    H263598   0.279   6.230   3.266
13207TIP3   OH263599   0.655   6.050   1.932
13207TIP3    H163600   0.609   6.008   2.008
13207TIP3    H263601   0.584   6.093   1.883
13208TIP3   OH263602   0.014   6.053   2.653
13208TIP3    H163603   0.065   6.017   2.729
13208TIP3    H263604   0.025   5.985   2.588
13209TIP3   OH263605   0.114   6.105   2.186
13209TIP3    H163606   0.163   6.157   2.119
13209TIP3    H263607   0.042   6.163   2.209
13210TIP3   OH263608   1.111   6.455   3.176
13210TIP3    H163609   1.168   6.390   3.129
13210TIP3    H263610   1.089   6.408   3.257
13211TIP3   OH263611   0.807   6.054   2.665
13211TIP3    H163612   0.714   6.053   2.694
13211TIP3    H263613   0.855   6.035   2.747
13212TIP3   OH263614   0.293   6.206   2.552
13212TIP3    H163615   0.204   6.224   2.516
13212TIP3    H263616   0.314   6.120   2.512
13213TIP3   OH263617   0.653   6.213   2.315
13213TIP3    H163618   0.748   6.224   2.331
13213TIP3    H263619   0.629   6.281   2.250
13214TIP3   OH263620   1.247   5.984   2.992
13214TIP3    H163621   1.177   5.975   3.057
13214TIP3    H263622   1.204   5.950   2.912
13215TIP3   OH263623   0.523   6.329   2.074
13215TIP3    H163624   0.470   6.293   2.001
13215TIP3    H263625   0.606   6.350   2.027
13216TIP3   OH263626   0.934   6.327   2.852
13216TIP3    H163627   0.997   6.276   2.800
13216TIP3    H263628   0.923   6.274   2.932
13217TIP3   OH263629   0.440   5.943   2.499
13217TIP3    H163630   0.404   5.852   2.499
13217TIP3    H263631   0.519   5.934   2.444
13218TIP3   OH263632   0.797   6.157   3.104
13218TIP3    H163633   0.715   6.212   3.101
13218TIP3    H263634   0.850   6.204   3.168
13219TIP3   OH263635   0.858   6.783   2.264
13219TIP3    H163636   0.778   6.737   2.231
13219TIP3    H263637   0.835   6.797   2.358
13220TIP3   OH263638   1.576   6.707   3.147
13220TIP3    H163639   1.636   6.754   3.084
13220TIP3    H263640   1.492   6.708   3.098
13221TIP3   OH263641   1.241   6.064   2.084
13221TIP3    H163642   1.146   6.080   2.070
13221TIP3    H263643   1.275   6.149   2.119
13222TIP3   OH263644   0.992   6.812   3.378
13222TIP3    H163645   0.974   6.767   3.464
13222TIP3    H263646   0.993   6.903   3.407
13223TIP3   OH263647   1.315   6.257   2.245
13223TIP3    H163648   1.402   6.244   2.287
13223TIP3    H263649   1.326   6.340   2.194
13224TIP3   OH263650   0.370   6.725   2.845
13224TIP3    H163651   0.435   6.716   2.774
13224TIP3    H263652   0.376   6.638   2.889
13225TIP3   OH263653   1.066   6.930   2.166
13225TIP3    H163654   1.033   7.014   2.204
13225TIP3    H263655   0.994   6.868   2.191
13226TIP3   OH263656   1.806   6.269   2.223
13226TIP3    H163657   1.748   6.242   2.149
13226TIP3    H263658   1.813   6.365   2.200
13227TIP3   OH263659   1.630   7.153   2.262
13227TIP3    H163660   1.597   7.069   2.297
13227TIP3    H263661   1.667   7.131   2.175
13228TIP3   OH263662   1.355   6.641   2.966
13228TIP3    H163663   1.262   6.614   2.967
13228TIP3    H263664   1.399   6.559   2.937
13229TIP3   OH263665   0.609   7.068   2.585
13229TIP3    H163666   0.657   7.149   2.564
13229TIP3    H263667   0.520   7.091   2.552
13230TIP3   OH263668   0.181   6.551   2.045
13230TIP3    H163669   0.244   6.617   2.082
13230TIP3    H263670   0.096   6.586   2.073
13231TIP3   OH263671   0.748   6.835   2.534
13231TIP3    H163672   0.715   6.927   2.546
13231TIP3    H263673   0.678   6.785   2.580
13232TIP3   OH263674   0.796   7.253   3.172
13232TIP3    H163675   0.840   7.337   3.151
13232TIP3    H263676   0.853   7.222   3.243
13233TIP3   OH263677   0.617   7.333   2.487
13233TIP3    H163678   0.520   7.345   2.504
13233TIP3    H263679   0.653   7.417   2.522
13234TIP3   OH263680   1.147   6.852   3.138
13234TIP3    H163681   1.113   6.830   3.227
13234TIP3    H263682   1.212   6.781   3.123
13235TIP3   OH263683   1.380   6.962   2.048
13235TIP3    H163684   1.409   6.913   2.128
13235TIP3    H263685   1.285   6.942   2.055
13236TIP3   OH263686   1.825   7.393   2.073
13236TIP3    H163687   1.893   7.459   2.052
13236TIP3    H263688   1.754   7.455   2.102
13237TIP3   OH263689   0.237   6.037   3.319
13237TIP3    H163690   0.146   6.069   3.326
13237TIP3    H263691   0.221   5.958   3.374
13238TIP3   OH263692   1.457   6.824   2.272
13238TIP3    H163693   1.433   6.745   2.325
13238TIP3    H263694   1.552   6.828   2.289
13239TIP3   OH263695   0.201   7.216   3.165
13239TIP3    H163696   0.227   7.122   3.176
13239TIP3    H263697   0.215   7.244   3.257
13240TIP3   OH263698   0.790   7.069   1.896
13240TIP3    H163699   0.806   6.991   1.841
13240TIP3    H263700   0.748   7.026   1.975
13241TIP3   OH263701   0.669   7.020   2.143
13241TIP3    H163702   0.698   6.969   2.219
13241TIP3    H263703   0.679   7.113   2.175
13242TIP3   OH263704   0.325   6.744   2.192
13242TIP3    H163705   0.252   6.783   2.246
13242TIP3    H263706   0.372   6.824   2.162
13243TIP3   OH263707   1.181   5.970   2.332
13243TIP3    H163708   1.204   6.015   2.249
13243TIP3    H263709   1.239   6.014   2.395
13244TIP3   OH263710   0.950   7.186   2.212
13244TIP3    H163711   0.868   7.240   2.220
13244TIP3    H263712   1.004   7.242   2.154
13245TIP3   OH263713   0.905   6.145   2.414
13245TIP3    H163714   0.982   6.205   2.419
13245TIP3    H263715   0.877   6.132   2.506
13246TIP3   OH263716   0.989   5.851   2.502
13246TIP3    H163717   0.956   5.917   2.565
13246TIP3    H263718   1.059   5.905   2.458
13247TIP3   OH263719   0.690   7.289   2.215
13247TIP3    H163720   0.700   7.370   2.160
13247TIP3    H263721   0.664   7.326   2.302
13248TIP3   OH263722   0.556   5.962   2.173
13248TIP3    H163723   0.550   6.051   2.212
13248TIP3    H263724   0.647   5.937   2.200
13249TIP3   OH263725   1.440   6.413   2.816
13249TIP3    H163726   1.356   6.369   2.791
13249TIP3    H263727   1.487   6.346   2.870
13250TIP3   OH263728   0.379   7.006   2.075
13250TIP3    H163729   0.446   7.067   2.109
13250TIP3    H263730   0.432   6.959   2.009
13251TIP3   OH263731   0.212   6.274   1.989
13251TIP3    H163732   0.213   6.369   2.014
13251TIP3    H263733   0.122   6.257   1.959
13252TIP3   OH263734   1.545   7.333   2.980
13252TIP3    H163735   1.533   7.409   2.921
13252TIP3    H263736   1.638   7.347   3.005
13253TIP3   OH263737   0.291   5.756   2.862
13253TIP3    H163738   0.272   5.751   2.766
13253TIP3    H263739   0.256   5.669   2.891
13254TIP3   OH263740   0.191   7.141   2.480
13254TIP3    H163741   0.107   7.189   2.476
13254TIP3    H263742   0.239   7.190   2.412
13255TIP3   OH263743   0.993   7.253   1.910
13255TIP3    H163744   0.923   7.187   1.932
13255TIP3    H263745   1.064   7.193   1.885
13256TIP3   OH263746   1.448   7.226   1.928
13256TIP3    H163747   1.477   7.149   1.979
13256TIP3    H263748   1.524   7.248   1.873
13257TIP3   OH263749   0.534   6.816   1.903
13257TIP3    H163750   0.547   6.748   1.971
13257TIP3    H263751   0.620   6.809   1.859
13258TIP3   OH263752   1.075   6.932   1.886
13258TIP3    H163753   1.053   6.940   1.981
13258TIP3    H263754   1.063   6.835   1.875
13259TIP3   OH263755   0.656   6.623   2.152
13259TIP3    H163756   0.606   6.570   2.216
13259TIP3    H263757   0.689   6.555   2.090
13260TIP3   OH263758   0.764   6.450   1.972
13260TIP3    H163759   0.750   6.434   1.877
13260TIP3    H263760   0.862   6.448   1.982
13261TIP3   OH263761   1.696   6.677   1.914
13261TIP3    H163762   1.678   6.640   1.826
13261TIP3    H263763   1.706   6.773   1.896
13262TIP3   OH263764   0.660   5.967   3.237
13262TIP3    H163765   0.707   6.026   3.174
13262TIP3    H263766   0.568   5.969   3.203
13263TIP3   OH263767   0.826   6.526   3.263
13263TIP3    H163768   0.900   6.515   3.204
13263TIP3    H263769   0.782   6.608   3.235
13264TIP3   OH263770   0.747   5.723   3.278
13264TIP3    H163771   0.719   5.816   3.271
13264TIP3    H263772   0.668   5.683   3.236
13265TIP3   OH263773   0.747   7.515   2.082
13265TIP3    H163774   0.843   7.525   2.088
13265TIP3    H263775   0.732   7.574   2.007
13266TIP3   OH263776   0.106   6.971   2.030
13266TIP3    H163777   0.203   6.983   2.046
13266TIP3    H263778   0.112   6.906   1.957
13267TIP3   OH263779  -0.004   7.520   2.513
13267TIP3    H163780  -0.085   7.474   2.484
13267TIP3    H263781   0.015   7.460   2.587
13268TIP3   OH263782   0.084   7.327   2.704
13268TIP3    H163783   0.036   7.243   2.721
13268TIP3    H263784   0.095   7.363   2.794
13269TIP3   OH263785   1.822   7.399   3.007
13269TIP3    H163786   1.815   7.423   3.101
13269TIP3    H263787   1.884   7.464   2.974
13270TIP3   OH263788   1.751   6.769   2.309
13270TIP3    H163789   1.837   6.808   2.328
13270TIP3    H263790   1.748   6.698   2.376
13271TIP3   OH263791   1.786   6.577   2.499
13271TIP3    H163792   1.711   6.528   2.538
13271TIP3    H263793   1.846   6.589   2.576
13272TIP3   OH263794   1.759   6.846   3.000
13272TIP3    H163795   1.840   6.805   2.964
13272TIP3    H263796   1.774   6.940   2.978
13273TIP3   OH263797   1.816   6.559   2.138
13273TIP3    H163798   1.759   6.592   2.065
13273TIP3    H263799   1.806   6.630   2.203
13274TIP3   OH263800   1.654   6.281   1.988
13274TIP3    H163801   1.662   6.347   1.919
13274TIP3    H263802   1.635   6.199   1.939
13275TIP3   OH263803   1.568   6.424   2.557
13275TIP3    H163804   1.554   6.328   2.551
13275TIP3    H263805   1.536   6.444   2.647
13276TIP3   OH263806   0.070   6.631   2.958
13276TIP3    H163807   0.090   6.624   2.863
13276TIP3    H263808   0.156   6.615   3.000
13277TIP3   OH263809   1.579   6.029   1.902
13277TIP3    H163810   1.638   5.985   1.966
13277TIP3    H263811   1.493   5.988   1.917
13278TIP3   OH263812   1.532   6.182   2.396
13278TIP3    H163813   1.564   6.090   2.413
13278TIP3    H263814   1.615   6.222   2.367
13279TIP3   OH263815   1.599   6.235   2.942
13279TIP3    H163816   1.694   6.259   2.943
13279TIP3    H263817   1.579   6.251   3.035
13280TIP3   OH263818   1.603   5.911   2.406
13280TIP3    H163819   1.625   5.868   2.491
13280TIP3    H263820   1.543   5.847   2.363
13281TIP3   OH263821   0.151   5.991   2.867
13281TIP3    H163822   0.199   5.909   2.889
13281TIP3    H263823   0.204   6.061   2.907
13282TIP3   OH263824   0.003   6.297   2.976
13282TIP3    H163825   0.047   6.278   2.891
13282TIP3    H263826   0.032   6.387   2.994
13283TIP3   OH263827   1.784   5.914   2.062
13283TIP3    H163828   1.825   5.843   2.007
13283TIP3    H263829   1.855   5.980   2.067
13284TIP3   OH263830   0.036   5.899   2.324
13284TIP3    H163831  -0.057   5.923   2.339
13284TIP3    H263832   0.073   5.980   2.283
13285TIP3   OH263833   1.489   7.412   2.567
13285TIP3    H163834   1.558   7.382   2.505
13285TIP3    H263835   1.540   7.462   2.632
13286TIP3   OH263836   0.027   5.794   3.216
13286TIP3    H163837  -0.045   5.778   3.276
13286TIP3    H263838  -0.021   5.859   3.158
13287TIP3   OH263839   0.521   7.208   3.239
13287TIP3    H163840   0.489   7.296   3.216
13287TIP3    H263841   0.616   7.215   3.221
13288TIP3   OH263842   0.509   7.483   3.151
13288TIP3    H163843   0.427   7.504   3.197
13288TIP3    H263844   0.510   7.549   3.080
13289TIP3   OH263845   0.983   7.475   3.069
13289TIP3    H163846   0.939   7.531   3.002
13289TIP3    H263847   0.995   7.540   3.142
13290TIP3   OH263848   1.208   7.364   3.147
13290TIP3    H163849   1.120   7.396   3.126
13290TIP3    H263850   1.258   7.446   3.156
13291TIP3   OH263851   0.217   7.397   2.938
13291TIP3    H163852   0.202   7.350   3.023
13291TIP3    H263853   0.296   7.353   2.900
13292TIP3   OH263854   0.419   7.262   2.807
13292TIP3    H163855   0.404   7.168   2.828
13292TIP3    H263856   0.506   7.278   2.851
13293TIP3   OH263857   0.675   7.309   2.895
13293TIP3    H163858   0.694   7.218   2.868
13293TIP3    H263859   0.688   7.305   2.991
13294TIP3   OH263860   1.027   5.876   2.809
13294TIP3    H163861   0.958   5.813   2.834
13294TIP3    H263862   1.080   5.824   2.748
13295TIP3   OH263863   1.541   5.680   2.811
13295TIP3    H163864   1.602   5.741   2.763
13295TIP3    H263865   1.452   5.717   2.792
13296TIP3   OH263866   1.705   5.807   2.639
13296TIP3    H163867   1.774   5.749   2.599
13296TIP3    H263868   1.757   5.890   2.652
13297TIP3   OH263869   0.269   5.738   2.588
13297TIP3    H163870   0.187   5.719   2.538
13297TIP3    H263871   0.312   5.650   2.584
13298TIP3   OH263872   0.140   5.711   2.162
13298TIP3    H163873   0.189   5.777   2.110
13298TIP3    H263874   0.089   5.770   2.222
13299TIP3   OH263875   0.709   5.731   2.571
13299TIP3    H163876   0.799   5.767   2.562
13299TIP3    H263877   0.707   5.710   2.664
13300TIP3   OH263878   1.283   5.733   2.734
13300TIP3    H163879   1.277   5.745   2.639
13300TIP3    H263880   1.243   5.643   2.747
13301TIP3   OH263881   1.408   5.736   2.301
13301TIP3    H163882   1.333   5.795   2.286
13301TIP3    H263883   1.364   5.651   2.326
13302TIP3   OH263884   0.130   7.315   2.268
13302TIP3    H163885   0.071   7.312   2.192
13302TIP3    H263886   0.130   7.411   2.283
13303TIP3   OH263887   0.326   5.908   2.016
13303TIP3    H163888   0.378   5.847   1.962
13303TIP3    H263889   0.394   5.939   2.078
13304TIP3   OH263890   0.825   5.932   2.255
13304TIP3    H163891   0.851   5.875   2.330
13304TIP3    H263892   0.833   6.019   2.300
13305TIP3   OH263893   1.019   7.441   2.100
13305TIP3    H163894   1.111   7.462   2.077
13305TIP3    H263895   0.997   7.387   2.020
13306TIP3   OH263896   1.688   7.390   2.373
13306TIP3    H163897   1.669   7.312   2.316
13306TIP3    H263898   1.682   7.464   2.308
13307TIP3   OH263899   0.308   7.402   1.959
13307TIP3    H163900   0.286   7.434   2.047
13307TIP3    H263901   0.390   7.352   1.975
13308TIP3   OH263902   3.058   6.654   2.577
13308TIP3    H163903   3.055   6.752   2.575
13308TIP3    H263904   2.985   6.630   2.518
13309TIP3   OH263905   2.944   6.577   2.925
13309TIP3    H163906   2.940   6.515   2.999
13309TIP3    H263907   2.908   6.525   2.851
13310TIP3   OH263908   2.175   6.553   3.093
13310TIP3    H163909   2.188   6.474   3.149
13310TIP3    H263910   2.259   6.600   3.100
13311TIP3   OH263911   3.308   6.873   2.752
13311TIP3    H163912   3.272   6.802   2.805
13311TIP3    H263913   3.316   6.942   2.820
13312TIP3   OH263914   2.271   6.990   2.935
13312TIP3    H163915   2.241   6.904   2.900
13312TIP3    H263916   2.367   6.975   2.936
13313TIP3   OH263917   1.934   6.346   2.482
13313TIP3    H163918   1.891   6.433   2.476
13313TIP3    H263919   1.878   6.292   2.424
13314TIP3   OH263920   2.006   6.569   2.696
13314TIP3    H163921   2.034   6.488   2.742
13314TIP3    H263922   2.075   6.580   2.629
13315TIP3   OH263923   3.023   7.389   2.782
13315TIP3    H163924   3.087   7.322   2.750
13315TIP3    H263925   3.002   7.354   2.869
13316TIP3   OH263926   2.782   6.822   2.975
13316TIP3    H163927   2.813   6.756   2.912
13316TIP3    H263928   2.862   6.834   3.027
13317TIP3   OH263929   3.648   5.986   3.052
13317TIP3    H163930   3.652   6.049   3.125
13317TIP3    H263931   3.699   6.031   2.983
13318TIP3   OH263932   3.090   6.264   3.008
13318TIP3    H163933   3.118   6.169   3.005
13318TIP3    H263934   3.086   6.280   2.912
13319TIP3   OH263935   2.408   6.074   2.727
13319TIP3    H163936   2.420   6.157   2.677
13319TIP3    H263937   2.369   6.017   2.658
13320TIP3   OH263938   3.183   6.081   2.564
13320TIP3    H163939   3.247   6.050   2.632
13320TIP3    H263940   3.239   6.141   2.513
13321TIP3   OH263941   2.071   6.316   2.799
13321TIP3    H163942   2.138   6.262   2.846
13321TIP3    H263943   2.083   6.283   2.709
13322TIP3   OH263944   2.587   6.471   2.733
13322TIP3    H163945   2.653   6.413   2.773
13322TIP3    H263946   2.535   6.406   2.682
13323TIP3   OH263947   2.298   5.966   3.129
13323TIP3    H163948   2.269   6.024   3.055
13323TIP3    H263949   2.230   5.982   3.197
13324TIP3   OH263950   3.027   6.912   2.486
13324TIP3    H163951   3.002   6.885   2.397
13324TIP3    H263952   2.997   7.006   2.491
13325TIP3   OH263953   2.554   6.729   3.153
13325TIP3    H163954   2.484   6.793   3.177
13325TIP3    H263955   2.623   6.791   3.125
13326TIP3   OH263956   3.362   6.015   2.764
13326TIP3    H163957   3.340   5.941   2.821
13326TIP3    H263958   3.429   6.060   2.819
13327TIP3   OH263959   2.255   6.153   2.931
13327TIP3    H163960   2.319   6.218   2.965
13327TIP3    H263961   2.309   6.109   2.861
13328TIP3   OH263962   2.385   6.926   3.219
13328TIP3    H163963   2.397   7.023   3.207
13328TIP3    H263964   2.318   6.925   3.286
13329TIP3   OH263965   2.004   6.889   2.316
13329TIP3    H163966   1.979   6.925   2.229
13329TIP3    H263967   2.012   6.971   2.369
13330TIP3   OH263968   3.364   7.059   2.993
13330TIP3    H163969   3.267   7.070   3.001
13330TIP3    H263970   3.392   7.150   2.972
13331TIP3   OH263971   3.403   5.891   3.142
13331TIP3    H163972   3.322   5.939   3.121
13331TIP3    H263973   3.469   5.932   3.085
13332TIP3   OH263974   2.688   5.700   2.868
13332TIP3    H163975   2.683   5.604   2.876
13332TIP3    H263976   2.606   5.728   2.912
13333TIP3   OH263977   3.190   7.236   2.651
13333TIP3    H163978   3.233   7.163   2.600
13333TIP3    H263979   3.236   7.314   2.613
13334TIP3   OH263980   3.312   7.028   2.503
13334TIP3    H163981   3.282   6.959   2.443
13334TIP3    H263982   3.315   6.979   2.587
13335TIP3   OH263983   2.922   6.576   2.327
13335TIP3    H163984   2.854   6.636   2.291
13335TIP3    H263985   2.994   6.586   2.263
13336TIP3   OH263986   2.932   6.435   2.029
13336TIP3    H163987   3.002   6.433   2.096
13336TIP3    H263988   2.962   6.362   1.974
13337TIP3   OH263989   3.662   6.519   3.148
13337TIP3    H163990   3.596   6.590   3.165
13337TIP3    H263991   3.710   6.552   3.072
13338TIP3   OH263992   3.270   6.597   2.420
13338TIP3    H163993   3.195   6.622   2.480
13338TIP3    H263994   3.317   6.530   2.474
13339TIP3   OH263995   3.248   6.413   3.330
13339TIP3    H163996   3.258   6.495   3.382
13339TIP3    H263997   3.191   6.448   3.261
13340TIP3   OH263998   2.429   6.664   2.612
13340TIP3    H163999   2.397   6.624   2.527
13340TIP3    H264000   2.491   6.595   2.646
13341TIP3   OH264001   2.561   7.004   2.883
13341TIP3    H164002   2.561   6.951   2.802
13341TIP3    H264003   2.640   6.968   2.927
13342TIP3   OH264004   2.459   6.539   2.976
13342TIP3    H164005   2.516   6.547   2.897
13342TIP3    H264006   2.501   6.602   3.038
13343TIP3   OH264007   3.104   7.101   3.053
13343TIP3    H164008   3.065   7.159   3.116
13343TIP3    H264009   3.079   7.011   3.086
13344TIP3   OH264010   3.157   6.519   2.187
13344TIP3    H164011   3.211   6.537   2.268
13344TIP3    H264012   3.202   6.568   2.115
13345TIP3   OH264013   2.927   7.190   2.534
13345TIP3    H164014   2.969   7.221   2.615
13345TIP3    H264015   2.871   7.265   2.510
13346TIP3   OH264016   3.529   5.691   2.179
13346TIP3    H164017   3.434   5.702   2.202
13346TIP3    H264018   3.548   5.775   2.134
13347TIP3   OH264019   2.324   6.565   2.377
13347TIP3    H164020   2.297   6.643   2.324
13347TIP3    H264021   2.260   6.498   2.350
13348TIP3   OH264022   3.640   7.125   2.014
13348TIP3    H164023   3.656   7.219   2.031
13348TIP3    H264024   3.732   7.094   2.014
13349TIP3   OH264025   1.911   7.083   2.943
13349TIP3    H164026   2.007   7.072   2.938
13349TIP3    H264027   1.901   7.163   2.996
13350TIP3   OH264028   2.874   7.480   2.374
13350TIP3    H164029   2.863   7.474   2.278
13350TIP3    H264030   2.875   7.576   2.391
13351TIP3   OH264031   2.238   7.371   2.560
13351TIP3    H164032   2.253   7.325   2.645
13351TIP3    H264033   2.154   7.329   2.535
13352TIP3   OH264034   3.180   7.402   2.074
13352TIP3    H164035   3.227   7.327   2.031
13352TIP3    H264036   3.185   7.377   2.168
13353TIP3   OH264037   3.150   7.394   2.350
13353TIP3    H164038   3.055   7.405   2.369
13353TIP3    H264039   3.173   7.321   2.410
13354TIP3   OH264040   2.429   5.791   2.947
13354TIP3    H164041   2.337   5.777   2.916
13354TIP3    H264042   2.419   5.868   3.005
13355TIP3   OH264043   3.301   6.622   1.971
13355TIP3    H164044   3.297   6.603   1.875
13355TIP3    H264045   3.387   6.666   1.974
13356TIP3   OH264046   2.860   6.014   2.020
13356TIP3    H164047   2.828   6.007   2.112
13356TIP3    H264048   2.829   5.927   1.989
13357TIP3   OH264049   2.442   6.286   3.075
13357TIP3    H164050   2.369   6.284   3.140
13357TIP3    H264051   2.439   6.378   3.041
13358TIP3   OH264052   2.438   6.295   2.566
13358TIP3    H164053   2.344   6.272   2.552
13358TIP3    H264054   2.475   6.268   2.480
13359TIP3   OH264055   2.991   6.349   2.443
13359TIP3    H164056   2.951   6.430   2.405
13359TIP3    H264057   3.059   6.330   2.376
13360TIP3   OH264058   3.093   6.295   2.729
13360TIP3    H164059   3.065   6.353   2.656
13360TIP3    H264060   3.103   6.212   2.679
13361TIP3   OH264061   2.213   6.309   3.254
13361TIP3    H164062   2.201   6.347   3.342
13361TIP3    H264063   2.155   6.231   3.264
13362TIP3   OH264064   2.540   6.050   1.932
13362TIP3    H164065   2.494   6.008   2.008
13362TIP3    H264066   2.470   6.094   1.883
13363TIP3   OH264067   1.870   6.020   2.647
13363TIP3    H164068   1.939   6.016   2.716
13363TIP3    H264069   1.915   5.983   2.568
13364TIP3   OH264070   1.996   6.092   2.180
13364TIP3    H164071   2.048   6.153   2.124
13364TIP3    H264072   1.928   6.155   2.211
13365TIP3   OH264073   3.008   6.454   3.180
13365TIP3    H164074   3.050   6.386   3.123
13365TIP3    H264075   2.966   6.403   3.249
13366TIP3   OH264076   2.692   6.056   2.668
13366TIP3    H164077   2.598   6.052   2.697
13366TIP3    H264078   2.740   6.032   2.749
13367TIP3   OH264079   2.174   6.208   2.553
13367TIP3    H164080   2.086   6.223   2.513
13367TIP3    H264081   2.203   6.123   2.513
13368TIP3   OH264082   2.538   6.213   2.315
13368TIP3    H164083   2.634   6.223   2.331
13368TIP3    H264084   2.514   6.281   2.250
13369TIP3   OH264085   3.131   5.993   2.986
13369TIP3    H164086   3.069   5.970   3.057
13369TIP3    H264087   3.088   5.945   2.913
13370TIP3   OH264088   2.410   6.330   2.074
13370TIP3    H164089   2.356   6.292   2.002
13370TIP3    H264090   2.491   6.351   2.026
13371TIP3   OH264091   2.822   6.328   2.854
13371TIP3    H164092   2.882   6.275   2.801
13371TIP3    H264093   2.807   6.273   2.933
13372TIP3   OH264094   2.322   5.943   2.498
13372TIP3    H164095   2.291   5.850   2.499
13372TIP3    H264096   2.401   5.935   2.443
13373TIP3   OH264097   2.687   6.162   3.095
13373TIP3    H164098   2.604   6.214   3.098
13373TIP3    H264099   2.739   6.196   3.169
13374TIP3   OH264100   2.744   6.783   2.266
13374TIP3    H164101   2.664   6.737   2.232
13374TIP3    H264102   2.721   6.797   2.360
13375TIP3   OH264103   3.463   6.700   3.144
13375TIP3    H164104   3.523   6.754   3.090
13375TIP3    H264105   3.379   6.710   3.098
13376TIP3   OH264106   3.126   6.064   2.084
13376TIP3    H164107   3.032   6.080   2.070
13376TIP3    H264108   3.161   6.149   2.119
13377TIP3   OH264109   3.200   6.257   2.245
13377TIP3    H164110   3.288   6.244   2.287
13377TIP3    H264111   3.212   6.340   2.194
13378TIP3   OH264112   2.255   6.724   2.849
13378TIP3    H164113   2.321   6.717   2.777
13378TIP3    H264114   2.261   6.636   2.888
13379TIP3   OH264115   2.953   6.930   2.169
13379TIP3    H164116   2.919   7.014   2.204
13379TIP3    H264117   2.880   6.868   2.192
13380TIP3   OH264118   3.691   6.269   2.223
13380TIP3    H164119   3.634   6.242   2.149
13380TIP3    H264120   3.699   6.365   2.200
13381TIP3   OH264121   3.515   7.153   2.262
13381TIP3    H164122   3.483   7.070   2.298
13381TIP3    H264123   3.552   7.130   2.175
13382TIP3   OH264124   3.240   6.638   2.973
13382TIP3    H164125   3.146   6.613   2.965
13382TIP3    H264126   3.283   6.559   2.936
13383TIP3   OH264127   2.492   7.069   2.586
13383TIP3    H164128   2.542   7.149   2.564
13383TIP3    H264129   2.405   7.091   2.551
13384TIP3   OH264130   2.070   6.552   2.042
13384TIP3    H164131   2.127   6.619   2.083
13384TIP3    H264132   1.980   6.583   2.066
13385TIP3   OH264133   2.633   6.836   2.535
13385TIP3    H164134   2.601   6.927   2.546
13385TIP3    H264135   2.563   6.785   2.581
13386TIP3   OH264136   2.681   7.253   3.167
13386TIP3    H164137   2.728   7.335   3.147
13386TIP3    H264138   2.730   7.216   3.241
13387TIP3   OH264139   2.502   7.333   2.488
13387TIP3    H164140   2.406   7.346   2.504
13387TIP3    H264141   2.539   7.417   2.522
13388TIP3   OH264142   3.036   6.858   3.141
13388TIP3    H164143   2.999   6.831   3.227
13388TIP3    H264144   3.094   6.782   3.122
13389TIP3   OH264145   3.266   6.962   2.048
13389TIP3    H164146   3.295   6.913   2.128
13389TIP3    H264147   3.171   6.942   2.055
13390TIP3   OH264148   3.710   7.392   2.074
13390TIP3    H164149   3.779   7.459   2.052
13390TIP3    H264150   3.640   7.455   2.102
13391TIP3   OH264151   3.343   6.824   2.272
13391TIP3    H164152   3.319   6.745   2.325
13391TIP3    H264153   3.438   6.828   2.289
13392TIP3   OH264154   2.082   7.217   3.170
13392TIP3    H164155   2.111   7.125   3.167
13392TIP3    H264156   2.113   7.245   3.257
13393TIP3   OH264157   2.679   7.068   1.898
13393TIP3    H164158   2.688   6.992   1.838
13393TIP3    H264159   2.633   7.025   1.973
13394TIP3   OH264160   2.554   7.020   2.143
13394TIP3    H164161   2.583   6.969   2.220
13394TIP3    H264162   2.565   7.113   2.176
13395TIP3   OH264163   2.210   6.745   2.191
13395TIP3    H164164   2.138   6.785   2.244
13395TIP3    H264165   2.260   6.823   2.161
13396TIP3   OH264166   3.067   5.969   2.332
13396TIP3    H164167   3.090   6.016   2.249
13396TIP3    H264168   3.124   6.015   2.395
13397TIP3   OH264169   2.836   7.186   2.212
13397TIP3    H164170   2.754   7.240   2.220
13397TIP3    H264171   2.890   7.242   2.154
13398TIP3   OH264172   2.790   6.145   2.414
13398TIP3    H164173   2.867   6.205   2.419
13398TIP3    H264174   2.763   6.133   2.507
13399TIP3   OH264175   2.840   6.244   3.333
13399TIP3    H164176   2.854   6.314   3.398
13399TIP3    H264177   2.912   6.181   3.337
13400TIP3   OH264178   2.874   5.851   2.499
13400TIP3    H164179   2.842   5.915   2.565
13400TIP3    H264180   2.945   5.906   2.457
13401TIP3   OH264181   2.576   7.289   2.216
13401TIP3    H164182   2.585   7.370   2.160
13401TIP3    H264183   2.548   7.327   2.302
13402TIP3   OH264184   2.440   5.962   2.173
13402TIP3    H164185   2.435   6.052   2.212
13402TIP3    H264186   2.531   5.937   2.199
13403TIP3   OH264187   3.324   6.414   2.814
13403TIP3    H164188   3.241   6.369   2.791
13403TIP3    H264189   3.373   6.347   2.868
13404TIP3   OH264190   2.263   7.006   2.077
13404TIP3    H164191   2.331   7.068   2.109
13404TIP3    H264192   2.316   6.959   2.009
13405TIP3   OH264193   2.098   6.274   1.992
13405TIP3    H164194   2.100   6.369   2.013
13405TIP3    H264195   2.009   6.257   1.961
13406TIP3   OH264196   3.428   7.337   2.987
13406TIP3    H164197   3.420   7.406   2.918
13406TIP3    H264198   3.525   7.343   3.003
13407TIP3   OH264199   2.176   5.753   2.866
13407TIP3    H164200   2.161   5.753   2.769
13407TIP3    H264201   2.140   5.665   2.891
13408TIP3   OH264202   2.075   7.145   2.482
13408TIP3    H164203   1.989   7.189   2.475
13408TIP3    H264204   2.122   7.189   2.409
13409TIP3   OH264205   2.878   7.253   1.910
13409TIP3    H164206   2.808   7.187   1.931
13409TIP3    H264207   2.950   7.193   1.885
13410TIP3   OH264208   3.334   7.226   1.928
13410TIP3    H164209   3.363   7.149   1.979
13410TIP3    H264210   3.410   7.248   1.873
13411TIP3   OH264211   2.422   6.821   1.909
13411TIP3    H164212   2.436   6.746   1.968
13411TIP3    H264213   2.497   6.810   1.848
13412TIP3   OH264214   2.965   6.933   1.888
13412TIP3    H164215   2.938   6.940   1.981
13412TIP3    H264216   2.947   6.837   1.873
13413TIP3   OH264217   2.542   6.623   2.154
13413TIP3    H164218   2.491   6.569   2.216
13413TIP3    H264219   2.573   6.556   2.089
13414TIP3   OH264220   2.650   6.446   1.973
13414TIP3    H164221   2.635   6.437   1.877
13414TIP3    H264222   2.748   6.450   1.980
13415TIP3   OH264223   3.581   6.677   1.914
13415TIP3    H164224   3.564   6.640   1.826
13415TIP3    H264225   3.591   6.773   1.896
13416TIP3   OH264226   2.548   5.985   3.251
13416TIP3    H164227   2.597   6.024   3.176
13416TIP3    H264228   2.463   5.964   3.208
13417TIP3   OH264229   2.704   6.520   3.265
13417TIP3    H164230   2.783   6.514   3.210
13417TIP3    H264231   2.668   6.607   3.239
13418TIP3   OH264232   2.632   7.515   2.083
13418TIP3    H164233   2.729   7.525   2.089
13418TIP3    H264234   2.618   7.573   2.007
13419TIP3   OH264235   1.987   6.972   2.029
13419TIP3    H164236   2.084   6.982   2.046
13419TIP3    H264237   1.992   6.908   1.953
13420TIP3   OH264238   1.869   7.508   2.522
13420TIP3    H164239   1.795   7.461   2.478
13420TIP3    H264240   1.895   7.445   2.591
13421TIP3   OH264241   1.953   7.326   2.713
13421TIP3    H164242   1.914   7.239   2.731
13421TIP3    H264243   1.972   7.358   2.802
13422TIP3   OH264244   3.707   7.401   3.006
13422TIP3    H164245   3.703   7.426   3.099
13422TIP3    H264246   3.773   7.464   2.974
13423TIP3   OH264247   3.636   6.769   2.309
13423TIP3    H164248   3.723   6.808   2.328
13423TIP3    H264249   3.634   6.698   2.376
13424TIP3   OH264250   3.671   6.577   2.499
13424TIP3    H164251   3.596   6.528   2.539
13424TIP3    H264252   3.732   6.589   2.575
13425TIP3   OH264253   3.643   6.844   2.993
13425TIP3    H164254   3.728   6.807   2.964
13425TIP3    H264255   3.660   6.940   2.982
13426TIP3   OH264256   3.502   7.142   3.225
13426TIP3    H164257   3.433   7.163   3.287
13426TIP3    H264258   3.454   7.092   3.155
13427TIP3   OH264259   3.702   6.559   2.137
13427TIP3    H164260   3.645   6.592   2.065
13427TIP3    H264261   3.691   6.630   2.203
13428TIP3   OH264262   3.540   6.281   1.988
13428TIP3    H164263   3.547   6.347   1.919
13428TIP3    H264264   3.521   6.199   1.938
13429TIP3   OH264265   3.453   6.424   2.558
13429TIP3    H164266   3.439   6.329   2.551
13429TIP3    H264267   3.422   6.443   2.648
13430TIP3   OH264268   1.955   6.632   2.962
13430TIP3    H164269   1.971   6.624   2.865
13430TIP3    H264270   2.045   6.613   2.997
13431TIP3   OH264271   3.465   6.029   1.902
13431TIP3    H164272   3.523   5.985   1.966
13431TIP3    H264273   3.378   5.988   1.917
13432TIP3   OH264274   3.418   6.182   2.396
13432TIP3    H164275   3.450   6.090   2.413
13432TIP3    H264276   3.501   6.223   2.367
13433TIP3   OH264277   3.485   6.236   2.943
13433TIP3    H164278   3.581   6.260   2.944
13433TIP3    H264279   3.467   6.251   3.039
13434TIP3   OH264280   3.484   6.312   3.203
13434TIP3    H164281   3.410   6.336   3.263
13434TIP3    H264282   3.543   6.392   3.209
13435TIP3   OH264283   3.488   5.911   2.406
13435TIP3    H164284   3.510   5.869   2.491
13435TIP3    H264285   3.429   5.847   2.363
13436TIP3   OH264286   2.036   5.992   2.865
13436TIP3    H164287   2.081   5.908   2.889
13436TIP3    H264288   2.092   6.060   2.904
13437TIP3   OH264289   1.861   6.290   2.961
13437TIP3    H164290   1.921   6.267   2.886
13437TIP3    H264291   1.908   6.368   2.994
13438TIP3   OH264292   3.669   5.914   2.061
13438TIP3    H164293   3.710   5.843   2.007
13438TIP3    H264294   3.740   5.980   2.066
13439TIP3   OH264295   1.902   5.920   2.374
13439TIP3    H164296   1.807   5.935   2.357
13439TIP3    H264297   1.943   5.967   2.300
13440TIP3   OH264298   3.375   7.412   2.569
13440TIP3    H164299   3.444   7.382   2.506
13440TIP3    H264300   3.426   7.463   2.633
13441TIP3   OH264301   1.900   5.786   3.199
13441TIP3    H164302   1.834   5.763   3.266
13441TIP3    H264303   1.849   5.854   3.151
13442TIP3   OH264304   2.407   7.204   3.238
13442TIP3    H164305   2.377   7.293   3.220
13442TIP3    H264306   2.503   7.213   3.220
13443TIP3   OH264307   3.575   5.733   3.373
13443TIP3    H164308   3.490   5.764   3.337
13443TIP3    H264309   3.587   5.648   3.325
13444TIP3   OH264310   2.144   7.526   3.244
13444TIP3    H164311   2.063   7.571   3.213
13444TIP3    H264312   2.118   7.508   3.338
13445TIP3   OH264313   2.399   7.485   3.151
13445TIP3    H164314   2.314   7.495   3.197
13445TIP3    H264315   2.403   7.544   3.074
13446TIP3   OH264316   2.867   7.473   3.074
13446TIP3    H164317   2.827   7.526   3.003
13446TIP3    H264318   2.890   7.542   3.138
13447TIP3   OH264319   3.345   7.511   3.192
13447TIP3    H164320   3.354   7.608   3.174
13447TIP3    H264321   3.381   7.479   3.107
13448TIP3   OH264322   2.108   7.399   2.943
13448TIP3    H164323   2.091   7.342   3.021
13448TIP3    H264324   2.181   7.351   2.900
13449TIP3   OH264325   2.304   7.265   2.808
13449TIP3    H164326   2.290   7.170   2.825
13449TIP3    H264327   2.392   7.276   2.849
13450TIP3   OH264328   2.563   7.312   2.893
13450TIP3    H164329   2.581   7.219   2.867
13450TIP3    H264330   2.571   7.306   2.989
13451TIP3   OH264331   2.911   5.877   2.805
13451TIP3    H164332   2.846   5.812   2.840
13451TIP3    H264333   2.968   5.822   2.751
13452TIP3   OH264334   3.425   5.678   2.810
13452TIP3    H164335   3.485   5.741   2.763
13452TIP3    H264336   3.336   5.717   2.792
13453TIP3   OH264337   3.592   5.808   2.638
13453TIP3    H164338   3.660   5.749   2.599
13453TIP3    H264339   3.644   5.891   2.651
13454TIP3   OH264340   2.150   5.739   2.592
13454TIP3    H164341   2.070   5.721   2.539
13454TIP3    H264342   2.195   5.652   2.587
13455TIP3   OH264343   2.025   5.714   2.163
13455TIP3    H164344   2.075   5.779   2.110
13455TIP3    H264345   1.969   5.772   2.218
13456TIP3   OH264346   2.595   5.730   2.572
13456TIP3    H164347   2.684   5.767   2.561
13456TIP3    H264348   2.594   5.710   2.666
13457TIP3   OH264349   3.168   5.734   2.734
13457TIP3    H164350   3.162   5.744   2.639
13457TIP3    H264351   3.128   5.645   2.749
13458TIP3   OH264352   3.294   5.736   2.301
13458TIP3    H164353   3.219   5.795   2.286
13458TIP3    H264354   3.250   5.651   2.326
13459TIP3   OH264355   2.016   7.309   2.268
13459TIP3    H164356   1.950   7.307   2.196
13459TIP3    H264357   2.016   7.405   2.284
13460TIP3   OH264358   2.208   5.908   2.015
13460TIP3    H164359   2.261   5.847   1.963
13460TIP3    H264360   2.274   5.941   2.078
13461TIP3   OH264361   2.710   5.932   2.255
13461TIP3    H164362   2.736   5.875   2.329
13461TIP3    H264363   2.719   6.019   2.300
13462TIP3   OH264364   2.905   7.441   2.100
13462TIP3    H164365   2.997   7.462   2.078
13462TIP3    H264366   2.883   7.388   2.020
13463TIP3   OH264367   3.573   7.391   2.373
13463TIP3    H164368   3.554   7.312   2.316
13463TIP3    H264369   3.568   7.464   2.308
13464TIP3   OH264370   2.196   7.408   1.962
13464TIP3    H164371   2.170   7.434   2.051
13464TIP3    H264372   2.274   7.352   1.977
13465TIP3   OH264373   4.944   6.654   2.575
13465TIP3    H164374   4.941   6.752   2.576
13465TIP3    H264375   4.870   6.631   2.517
13466TIP3   OH264376   4.833   6.578   2.929
13466TIP3    H164377   4.824   6.513   3.000
13466TIP3    H264378   4.796   6.530   2.853
13467TIP3   OH264379   4.063   6.549   3.086
13467TIP3    H164380   4.073   6.476   3.150
13467TIP3    H264381   4.141   6.602   3.103
13468TIP3   OH264382   5.201   6.875   2.756
13468TIP3    H164383   5.154   6.803   2.801
13468TIP3    H264384   5.194   6.945   2.824
13469TIP3   OH264385   4.156   6.992   2.924
13469TIP3    H164386   4.127   6.901   2.902
13469TIP3    H264387   4.251   6.974   2.941
13470TIP3   OH264388   3.819   6.346   2.482
13470TIP3    H164389   3.776   6.433   2.475
13470TIP3    H264390   3.764   6.292   2.425
13471TIP3   OH264391   3.892   6.569   2.696
13471TIP3    H164392   3.919   6.487   2.741
13471TIP3    H264393   3.961   6.581   2.630
13472TIP3   OH264394   4.908   7.389   2.781
13472TIP3    H164395   4.974   7.321   2.751
13472TIP3    H264396   4.887   7.354   2.868
13473TIP3   OH264397   4.668   6.824   2.973
13473TIP3    H164398   4.698   6.756   2.911
13473TIP3    H264399   4.747   6.836   3.026
13474TIP3   OH264400   5.526   5.985   3.050
13474TIP3    H164401   5.543   6.044   3.125
13474TIP3    H264402   5.582   6.025   2.982
13475TIP3   OH264403   4.977   6.262   3.010
13475TIP3    H164404   5.001   6.168   3.006
13475TIP3    H264405   4.972   6.280   2.914
13476TIP3   OH264406   4.293   6.075   2.728
13476TIP3    H164407   4.305   6.157   2.677
13476TIP3    H264408   4.255   6.017   2.659
13477TIP3   OH264409   5.069   6.081   2.563
13477TIP3    H164410   5.132   6.051   2.632
13477TIP3    H264411   5.125   6.141   2.512
13478TIP3   OH264412   3.955   6.313   2.802
13478TIP3    H164413   4.024   6.262   2.847
13478TIP3    H264414   3.968   6.284   2.710
13479TIP3   OH264415   4.472   6.471   2.734
13479TIP3    H164416   4.539   6.413   2.774
13479TIP3    H264417   4.421   6.405   2.683
13480TIP3   OH264418   5.578   6.130   3.278
13480TIP3    H164419   5.505   6.196   3.266
13480TIP3    H264420   5.573   6.109   3.373
13481TIP3   OH264421   4.181   5.965   3.128
13481TIP3    H164422   4.156   6.025   3.055
13481TIP3    H264423   4.117   5.992   3.198
13482TIP3   OH264424   4.913   6.912   2.486
13482TIP3    H164425   4.887   6.885   2.397
13482TIP3    H264426   4.883   7.005   2.491
13483TIP3   OH264427   4.434   6.736   3.133
13483TIP3    H164428   4.367   6.791   3.179
13483TIP3    H264429   4.509   6.796   3.130
13484TIP3   OH264430   5.247   6.017   2.766
13484TIP3    H164431   5.229   5.940   2.819
13484TIP3    H264432   5.317   6.060   2.820
13485TIP3   OH264433   4.143   6.151   2.937
13485TIP3    H164434   4.201   6.224   2.964
13485TIP3    H264435   4.194   6.110   2.862
13486TIP3   OH264436   4.277   6.931   3.223
13486TIP3    H164437   4.279   7.025   3.209
13486TIP3    H264438   4.203   6.923   3.286
13487TIP3   OH264439   3.889   6.889   2.316
13487TIP3    H164440   3.865   6.925   2.229
13487TIP3    H264441   3.898   6.971   2.369
13488TIP3   OH264442   5.250   7.059   2.979
13488TIP3    H164443   5.155   7.068   3.006
13488TIP3    H264444   5.272   7.154   2.978
13489TIP3   OH264445   4.578   5.700   2.876
13489TIP3    H164446   4.565   5.604   2.874
13489TIP3    H264447   4.491   5.728   2.911
13490TIP3   OH264448   5.080   7.235   2.654
13490TIP3    H164449   5.116   7.164   2.598
13490TIP3    H264450   5.119   7.314   2.612
13491TIP3   OH264451   5.201   7.027   2.504
13491TIP3    H164452   5.166   6.961   2.442
13491TIP3    H264453   5.197   6.977   2.587
13492TIP3   OH264454   4.808   6.576   2.329
13492TIP3    H164455   4.740   6.635   2.292
13492TIP3    H264456   4.880   6.586   2.263
13493TIP3   OH264457   4.821   6.437   2.024
13493TIP3    H164458   4.885   6.434   2.098
13493TIP3    H264459   4.848   6.358   1.976
13494TIP3   OH264460   5.551   6.519   3.157
13494TIP3    H164461   5.485   6.591   3.166
13494TIP3    H264462   5.594   6.545   3.074
13495TIP3   OH264463   5.155   6.597   2.421
13495TIP3    H164464   5.080   6.622   2.481
13495TIP3    H264465   5.203   6.531   2.473
13496TIP3   OH264466   5.143   6.412   3.335
13496TIP3    H164467   5.154   6.492   3.388
13496TIP3    H264468   5.082   6.439   3.266
13497TIP3   OH264469   4.315   6.663   2.613
13497TIP3    H164470   4.283   6.624   2.528
13497TIP3    H264471   4.376   6.594   2.646
13498TIP3   OH264472   4.446   7.004   2.882
13498TIP3    H164473   4.446   6.950   2.802
13498TIP3    H264474   4.524   6.967   2.928
13499TIP3   OH264475   4.347   6.536   2.975
13499TIP3    H164476   4.403   6.549   2.897
13499TIP3    H264477   4.384   6.603   3.038
13500TIP3   OH264478   4.992   7.096   3.052
13500TIP3    H164479   4.958   7.161   3.114
13500TIP3    H264480   4.962   7.010   3.090
13501TIP3   OH264481   5.042   6.518   2.186
13501TIP3    H164482   5.096   6.536   2.267
13501TIP3    H264483   5.089   6.570   2.116
13502TIP3   OH264484   4.814   7.191   2.535
13502TIP3    H164485   4.856   7.221   2.616
13502TIP3    H264486   4.757   7.265   2.510
13503TIP3   OH264487   5.417   5.692   2.181
13503TIP3    H164488   5.321   5.701   2.202
13503TIP3    H264489   5.433   5.775   2.132
13504TIP3   OH264490   4.210   6.565   2.376
13504TIP3    H164491   4.183   6.643   2.324
13504TIP3    H264492   4.146   6.498   2.350
13505TIP3   OH264493   5.526   7.126   2.013
13505TIP3    H164494   5.543   7.220   2.030
13505TIP3    H264495   5.618   7.094   2.014
13506TIP3   OH264496   3.836   6.807   3.244
13506TIP3    H164497   3.768   6.802   3.175
13506TIP3    H264498   3.819   6.723   3.287
13507TIP3   OH264499   3.797   7.084   2.944
13507TIP3    H164500   3.892   7.070   2.940
13507TIP3    H264501   3.788   7.165   2.995
13508TIP3   OH264502   4.714   7.112   3.396
13508TIP3    H164503   4.720   7.190   3.451
13508TIP3    H264504   4.626   7.075   3.417
13509TIP3   OH264505   4.761   7.481   2.375
13509TIP3    H164506   4.749   7.474   2.279
13509TIP3    H264507   4.760   7.578   2.392
13510TIP3   OH264508   4.124   7.369   2.558
13510TIP3    H164509   4.139   7.328   2.646
13510TIP3    H264510   4.039   7.328   2.535
13511TIP3   OH264511   5.066   7.402   2.074
13511TIP3    H164512   5.113   7.327   2.031
13511TIP3    H264513   5.070   7.377   2.168
13512TIP3   OH264514   5.036   7.397   2.352
13512TIP3    H164515   4.940   7.403   2.368
13512TIP3    H264516   5.058   7.322   2.409
13513TIP3   OH264517   4.049   6.933   3.356
13513TIP3    H164518   4.070   6.904   3.445
13513TIP3    H264519   3.961   6.893   3.336
13514TIP3   OH264520   4.318   5.793   2.942
13514TIP3    H164521   4.225   5.775   2.917
13514TIP3    H264522   4.305   5.866   3.006
13515TIP3   OH264523   4.784   5.757   3.293
13515TIP3    H164524   4.817   5.715   3.374
13515TIP3    H264525   4.686   5.745   3.304
13516TIP3   OH264526   5.187   6.619   1.971
13516TIP3    H164527   5.185   6.605   1.874
13516TIP3    H264528   5.271   6.667   1.976
13517TIP3   OH264529   4.747   6.015   2.018
13517TIP3    H164530   4.715   6.008   2.110
13517TIP3    H264531   4.715   5.927   1.989
13518TIP3   OH264532   4.324   6.294   2.565
13518TIP3    H164533   4.230   6.272   2.552
13518TIP3    H264534   4.361   6.268   2.479
13519TIP3   OH264535   4.876   6.347   2.442
13519TIP3    H164536   4.837   6.430   2.405
13519TIP3    H264537   4.944   6.330   2.376
13520TIP3   OH264538   4.978   6.296   2.729
13520TIP3    H164539   4.950   6.353   2.655
13520TIP3    H264540   4.989   6.212   2.680
13521TIP3   OH264541   4.082   6.316   3.250
13521TIP3    H164542   4.097   6.349   3.339
13521TIP3    H264543   4.045   6.229   3.267
13522TIP3   OH264544   4.426   6.050   1.932
13522TIP3    H164545   4.380   6.008   2.008
13522TIP3    H264546   4.355   6.094   1.883
13523TIP3   OH264547   3.756   6.020   2.646
13523TIP3    H164548   3.826   6.016   2.715
13523TIP3    H264549   3.800   5.984   2.567
13524TIP3   OH264550   3.881   6.092   2.180
13524TIP3    H164551   3.934   6.153   2.124
13524TIP3    H264552   3.813   6.155   2.211
13525TIP3   OH264553   4.902   6.456   3.191
13525TIP3    H164554   4.934   6.390   3.126
13525TIP3    H264555   4.849   6.399   3.250
13526TIP3   OH264556   4.577   6.055   2.668
13526TIP3    H164557   4.483   6.053   2.697
13526TIP3    H264558   4.626   6.034   2.748
13527TIP3   OH264559   4.060   6.207   2.554
13527TIP3    H164560   3.972   6.223   2.514
13527TIP3    H264561   4.089   6.123   2.513
13528TIP3   OH264562   4.424   6.213   2.315
13528TIP3    H164563   4.520   6.224   2.331
13528TIP3    H264564   4.400   6.281   2.250
13529TIP3   OH264565   5.017   5.979   2.997
13529TIP3    H164566   4.945   5.976   3.060
13529TIP3    H264567   4.974   5.951   2.914
13530TIP3   OH264568   4.295   6.330   2.074
13530TIP3    H164569   4.242   6.292   2.002
13530TIP3    H264570   4.377   6.351   2.026
13531TIP3   OH264571   4.708   6.327   2.853
13531TIP3    H164572   4.769   6.275   2.799
13531TIP3    H264573   4.694   6.273   2.932
13532TIP3   OH264574   4.208   5.943   2.498
13532TIP3    H164575   4.177   5.851   2.499
13532TIP3    H264576   4.287   5.935   2.444
13533TIP3   OH264577   4.571   6.160   3.096
13533TIP3    H164578   4.490   6.211   3.105
13533TIP3    H264579   4.627   6.194   3.168
13534TIP3   OH264580   4.630   6.783   2.266
13534TIP3    H164581   4.549   6.737   2.232
13534TIP3    H264582   4.606   6.797   2.360
13535TIP3   OH264583   5.347   6.699   3.147
13535TIP3    H164584   5.405   6.752   3.090
13535TIP3    H264585   5.264   6.705   3.097
13536TIP3   OH264586   5.013   6.068   2.079
13536TIP3    H164587   4.916   6.079   2.073
13536TIP3    H264588   5.046   6.149   2.123
13537TIP3   OH264589   5.085   6.258   2.244
13537TIP3    H164590   5.172   6.244   2.287
13537TIP3    H264591   5.097   6.342   2.197
13538TIP3   OH264592   4.139   6.724   2.844
13538TIP3    H164593   4.209   6.715   2.777
13538TIP3    H264594   4.147   6.639   2.893
13539TIP3   OH264595   4.838   6.930   2.169
13539TIP3    H164596   4.804   7.014   2.204
13539TIP3    H264597   4.766   6.868   2.192
13540TIP3   OH264598   5.578   6.269   2.223
13540TIP3    H164599   5.519   6.243   2.150
13540TIP3    H264600   5.585   6.364   2.200
13541TIP3   OH264601   5.405   7.152   2.265
13541TIP3    H164602   5.367   7.069   2.295
13541TIP3    H264603   5.439   7.132   2.176
13542TIP3   OH264604   5.124   6.637   2.978
13542TIP3    H164605   5.031   6.613   2.961
13542TIP3    H264606   5.168   6.563   2.933
13543TIP3   OH264607   4.379   7.069   2.585
13543TIP3    H164608   4.428   7.150   2.564
13543TIP3    H264609   4.291   7.091   2.551
13544TIP3   OH264610   3.956   6.552   2.041
13544TIP3    H164611   4.013   6.619   2.083
13544TIP3    H264612   3.866   6.582   2.065
13545TIP3   OH264613   4.518   6.835   2.534
13545TIP3    H164614   4.487   6.927   2.546
13545TIP3    H264615   4.449   6.785   2.581
13546TIP3   OH264616   4.568   7.254   3.174
13546TIP3    H164617   4.613   7.334   3.148
13546TIP3    H264618   4.625   7.216   3.242
13547TIP3   OH264619   4.387   7.333   2.488
13547TIP3    H164620   4.291   7.346   2.504
13547TIP3    H264621   4.424   7.417   2.522
13548TIP3   OH264622   4.920   6.855   3.137
13548TIP3    H164623   4.878   6.835   3.220
13548TIP3    H264624   4.981   6.782   3.118
13549TIP3   OH264625   5.152   6.962   2.048
13549TIP3    H164626   5.181   6.913   2.128
13549TIP3    H264627   5.057   6.943   2.055
13550TIP3   OH264628   5.188   7.309   3.387
13550TIP3    H164629   5.129   7.261   3.330
13550TIP3    H264630   5.224   7.379   3.329
13551TIP3   OH264631   5.596   7.393   2.073
13551TIP3    H164632   5.665   7.459   2.052
13551TIP3    H264633   5.525   7.455   2.102
13552TIP3   OH264634   4.005   6.041   3.334
13552TIP3    H164635   3.914   6.074   3.319
13552TIP3    H264636   3.992   5.950   3.363
13553TIP3   OH264637   5.228   6.824   2.271
13553TIP3    H164638   5.204   6.746   2.326
13553TIP3    H264639   5.323   6.828   2.290
13554TIP3   OH264640   3.970   7.214   3.173
13554TIP3    H164641   3.996   7.120   3.171
13554TIP3    H264642   4.006   7.245   3.257
13555TIP3   OH264643   4.565   7.068   1.898
13555TIP3    H164644   4.573   6.992   1.839
13555TIP3    H264645   4.518   7.025   1.973
13556TIP3   OH264646   4.440   7.020   2.143
13556TIP3    H164647   4.469   6.969   2.220
13556TIP3    H264648   4.450   7.113   2.176
13557TIP3   OH264649   4.096   6.745   2.191
13557TIP3    H164650   4.024   6.785   2.244
13557TIP3    H264651   4.146   6.823   2.161
13558TIP3   OH264652   4.953   5.970   2.331
13558TIP3    H164653   4.975   6.016   2.248
13558TIP3    H264654   5.010   6.014   2.395
13559TIP3   OH264655   4.721   7.186   2.212
13559TIP3    H164656   4.639   7.240   2.220
13559TIP3    H264657   4.775   7.242   2.154
13560TIP3   OH264658   4.676   6.145   2.414
13560TIP3    H164659   4.753   6.205   2.419
13560TIP3    H264660   4.648   6.133   2.507
13561TIP3   OH264661   4.738   6.257   3.324
13561TIP3    H164662   4.732   6.302   3.410
13561TIP3    H264663   4.788   6.177   3.346
13562TIP3   OH264664   4.760   5.851   2.502
13562TIP3    H164665   4.728   5.916   2.567
13562TIP3    H264666   4.830   5.905   2.458
13563TIP3   OH264667   4.462   7.289   2.216
13563TIP3    H164668   4.471   7.371   2.160
13563TIP3    H264669   4.434   7.326   2.303
13564TIP3   OH264670   4.326   5.962   2.173
13564TIP3    H164671   4.321   6.052   2.212
13564TIP3    H264672   4.417   5.937   2.199
13565TIP3   OH264673   5.210   6.415   2.814
13565TIP3    H164674   5.127   6.368   2.792
13565TIP3    H264675   5.259   6.348   2.868
13566TIP3   OH264676   4.149   7.006   2.077
13566TIP3    H164677   4.216   7.068   2.109
13566TIP3    H264678   4.201   6.959   2.009
13567TIP3   OH264679   3.984   6.274   1.992
13567TIP3    H164680   3.986   6.369   2.013
13567TIP3    H264681   3.894   6.257   1.961
13568TIP3   OH264682   5.319   7.333   2.978
13568TIP3    H164683   5.304   7.409   2.918
13568TIP3    H264684   5.411   7.349   3.006
13569TIP3   OH264685   4.063   5.753   2.867
13569TIP3    H164686   4.046   5.754   2.770
13569TIP3    H264687   4.025   5.666   2.891
13570TIP3   OH264688   3.960   7.145   2.481
13570TIP3    H164689   3.875   7.189   2.475
13570TIP3    H264690   4.007   7.189   2.410
13571TIP3   OH264691   4.764   7.253   1.910
13571TIP3    H164692   4.694   7.187   1.931
13571TIP3    H264693   4.835   7.193   1.885
13572TIP3   OH264694   5.219   7.227   1.928
13572TIP3    H164695   5.249   7.149   1.979
13572TIP3    H264696   5.296   7.248   1.873
13573TIP3   OH264697   4.307   6.821   1.909
13573TIP3    H164698   4.321   6.746   1.968
13573TIP3    H264699   4.383   6.810   1.848
13574TIP3   OH264700   4.851   6.930   1.887
13574TIP3    H164701   4.824   6.939   1.980
13574TIP3    H264702   4.831   6.835   1.873
13575TIP3   OH264703   4.428   6.623   2.155
13575TIP3    H164704   4.377   6.569   2.216
13575TIP3    H264705   4.458   6.556   2.089
13576TIP3   OH264706   4.536   6.444   1.974
13576TIP3    H164707   4.517   6.439   1.878
13576TIP3    H264708   4.633   6.451   1.980
13577TIP3   OH264709   5.467   6.677   1.914
13577TIP3    H164710   5.449   6.639   1.826
13577TIP3    H264711   5.477   6.773   1.895
13578TIP3   OH264712   4.433   5.981   3.246
13578TIP3    H164713   4.483   6.025   3.176
13578TIP3    H264714   4.345   5.967   3.206
13579TIP3   OH264715   4.518   5.728   3.276
13579TIP3    H164716   4.492   5.822   3.273
13579TIP3    H264717   4.439   5.681   3.243
13580TIP3   OH264718   4.518   7.515   2.083
13580TIP3    H164719   4.614   7.524   2.089
13580TIP3    H264720   4.504   7.573   2.007
13581TIP3   OH264721   3.873   6.972   2.029
13581TIP3    H164722   3.970   6.981   2.046
13581TIP3    H264723   3.877   6.908   1.953
13582TIP3   OH264724   3.755   7.508   2.521
13582TIP3    H164725   3.680   7.461   2.478
13582TIP3    H264726   3.780   7.445   2.591
13583TIP3   OH264727   3.834   7.324   2.711
13583TIP3    H164728   3.798   7.237   2.732
13583TIP3    H264729   3.858   7.357   2.799
13584TIP3   OH264730   5.591   7.402   3.007
13584TIP3    H164731   5.594   7.421   3.103
13584TIP3    H264732   5.659   7.465   2.977
13585TIP3   OH264733   5.559   7.358   3.291
13585TIP3    H164734   5.494   7.288   3.267
13585TIP3    H264735   5.594   7.321   3.373
13586TIP3   OH264736   5.520   6.772   2.312
13586TIP3    H164737   5.609   6.808   2.327
13586TIP3    H264738   5.520   6.697   2.375
13587TIP3   OH264739   5.557   6.576   2.498
13587TIP3    H164740   5.481   6.528   2.538
13587TIP3    H264741   5.618   6.587   2.574
13588TIP3   OH264742   5.530   6.843   2.988
13588TIP3    H164743   5.616   6.803   2.965
13588TIP3    H264744   5.550   6.937   2.996
13589TIP3   OH264745   5.387   7.145   3.219
13589TIP3    H164746   5.326   7.164   3.293
13589TIP3    H264747   5.332   7.092   3.158
13590TIP3   OH264748   5.588   6.559   2.138
13590TIP3    H164749   5.530   6.592   2.065
13590TIP3    H264750   5.577   6.631   2.203
13591TIP3   OH264751   5.422   6.281   1.987
13591TIP3    H164752   5.435   6.348   1.919
13591TIP3    H264753   5.408   6.198   1.938
13592TIP3   OH264754   5.339   6.424   2.557
13592TIP3    H164755   5.325   6.328   2.552
13592TIP3    H264756   5.306   6.444   2.647
13593TIP3   OH264757   3.840   6.639   2.960
13593TIP3    H164758   3.858   6.623   2.865
13593TIP3    H264759   3.925   6.614   3.001
13594TIP3   OH264760   5.349   6.030   1.902
13594TIP3    H164761   5.409   5.986   1.965
13594TIP3    H264762   5.265   5.985   1.918
13595TIP3   OH264763   5.302   6.183   2.394
13595TIP3    H164764   5.333   6.091   2.412
13595TIP3    H264765   5.385   6.223   2.367
13596TIP3   OH264766   5.370   6.238   2.943
13596TIP3    H164767   5.466   6.258   2.942
13596TIP3    H264768   5.353   6.251   3.038
13597TIP3   OH264769   5.378   6.309   3.224
13597TIP3    H164770   5.292   6.338   3.263
13597TIP3    H264771   5.422   6.396   3.206
13598TIP3   OH264772   5.378   5.909   2.405
13598TIP3    H164773   5.393   5.868   2.493
13598TIP3    H264774   5.314   5.848   2.362
13599TIP3   OH264775   3.923   5.992   2.861
13599TIP3    H164776   3.968   5.908   2.887
13599TIP3    H264777   3.979   6.061   2.900
13600TIP3   OH264778   3.749   6.287   2.965
13600TIP3    H164779   3.807   6.266   2.889
13600TIP3    H264780   3.792   6.369   2.995
13601TIP3   OH264781   5.557   5.912   2.064
13601TIP3    H164782   5.594   5.843   2.005
13601TIP3    H264783   5.625   5.981   2.063
13602TIP3   OH264784   3.787   5.920   2.374
13602TIP3    H164785   3.693   5.935   2.357
13602TIP3    H264786   3.828   5.967   2.300
13603TIP3   OH264787   5.262   7.410   2.570
13603TIP3    H164788   5.329   7.385   2.504
13603TIP3    H264789   5.312   7.466   2.631
13604TIP3   OH264790   3.784   5.789   3.208
13604TIP3    H164791   3.710   5.766   3.267
13604TIP3    H264792   3.736   5.852   3.149
13605TIP3   OH264793   4.030   7.511   3.236
13605TIP3    H164794   3.969   7.581   3.204
13605TIP3    H264795   4.010   7.509   3.330
13606TIP3   OH264796   4.287   7.497   3.157
13606TIP3    H164797   4.197   7.496   3.193
13606TIP3    H264798   4.277   7.544   3.072
13607TIP3   OH264799   4.756   7.476   3.074
13607TIP3    H164800   4.711   7.526   3.003
13607TIP3    H264801   4.767   7.544   3.142
13608TIP3   OH264802   4.979   7.361   3.175
13608TIP3    H164803   4.898   7.385   3.127
13608TIP3    H264804   5.034   7.439   3.158
13609TIP3   OH264805   5.229   7.518   3.192
13609TIP3    H164806   5.240   7.613   3.168
13609TIP3    H264807   5.264   7.477   3.110
13610TIP3   OH264808   3.986   7.390   2.938
13610TIP3    H164809   3.981   7.348   3.026
13610TIP3    H264810   4.068   7.352   2.900
13611TIP3   OH264811   4.192   7.262   2.805
13611TIP3    H164812   4.176   7.169   2.830
13611TIP3    H264813   4.278   7.278   2.849
13612TIP3   OH264814   4.454   7.311   2.894
13612TIP3    H164815   4.467   7.218   2.869
13612TIP3    H264816   4.455   7.303   2.991
13613TIP3   OH264817   4.800   5.877   2.808
13613TIP3    H164818   4.731   5.814   2.836
13613TIP3    H264819   4.852   5.823   2.748
13614TIP3   OH264820   5.311   5.683   2.816
13614TIP3    H164821   5.372   5.741   2.764
13614TIP3    H264822   5.222   5.717   2.790
13615TIP3   OH264823   5.476   5.807   2.641
13615TIP3    H164824   5.544   5.747   2.602
13615TIP3    H264825   5.527   5.890   2.654
13616TIP3   OH264826   4.036   5.739   2.592
13616TIP3    H164827   3.956   5.721   2.539
13616TIP3    H264828   4.080   5.652   2.586
13617TIP3   OH264829   3.911   5.714   2.163
13617TIP3    H164830   3.961   5.779   2.110
13617TIP3    H264831   3.855   5.772   2.218
13618TIP3   OH264832   4.480   5.731   2.571
13618TIP3    H164833   4.570   5.767   2.562
13618TIP3    H264834   4.479   5.710   2.664
13619TIP3   OH264835   5.054   5.733   2.735
13619TIP3    H164836   5.048   5.745   2.639
13619TIP3    H264837   5.014   5.644   2.747
13620TIP3   OH264838   5.179   5.736   2.301
13620TIP3    H164839   5.104   5.795   2.286
13620TIP3    H264840   5.136   5.651   2.325
13621TIP3   OH264841   3.902   7.309   2.268
13621TIP3    H164842   3.836   7.307   2.197
13621TIP3    H264843   3.902   7.405   2.284
13622TIP3   OH264844   4.093   5.908   2.015
13622TIP3    H164845   4.147   5.847   1.963
13622TIP3    H264846   4.160   5.941   2.078
13623TIP3   OH264847   4.596   5.932   2.255
13623TIP3    H164848   4.622   5.875   2.329
13623TIP3    H264849   4.605   6.020   2.300
13624TIP3   OH264850   4.790   7.441   2.099
13624TIP3    H164851   4.883   7.462   2.078
13624TIP3    H264852   4.768   7.387   2.020
13625TIP3   OH264853   5.459   7.389   2.374
13625TIP3    H164854   5.440   7.312   2.315
13625TIP3    H264855   5.454   7.464   2.310
13626TIP3   OH264856   4.084   7.414   1.960
13626TIP3    H164857   4.055   7.433   2.050
13626TIP3    H264858   4.159   7.352   1.975
13627TIP3   OH264859   6.830   6.654   2.575
13627TIP3    H164860   6.827   6.752   2.576
13627TIP3    H264861   6.756   6.631   2.517
13628TIP3   OH264862   6.713   6.579   2.930
13628TIP3    H164863   6.714   6.509   2.997
13628TIP3    H264864   6.680   6.531   2.852
13629TIP3   OH264865   5.949   6.547   3.085
13629TIP3    H164866   5.970   6.484   3.152
13629TIP3    H264867   6.022   6.610   3.100
13630TIP3   OH264868   7.080   6.876   2.755
13630TIP3    H164869   7.043   6.802   2.804
13630TIP3    H264870   7.088   6.943   2.826
13631TIP3   OH264871   6.039   6.991   2.931
13631TIP3    H164872   6.012   6.902   2.900
13631TIP3    H264873   6.135   6.974   2.935
13632TIP3   OH264874   5.706   6.344   2.482
13632TIP3    H164875   5.665   6.433   2.476
13632TIP3    H264876   5.648   6.294   2.423
13633TIP3   OH264877   5.777   6.573   2.698
13633TIP3    H164878   5.803   6.488   2.739
13633TIP3    H264879   5.844   6.582   2.629
13634TIP3   OH264880   6.792   7.391   2.784
13634TIP3    H164881   6.858   7.324   2.752
13634TIP3    H264882   6.773   7.354   2.871
13635TIP3   OH264883   6.550   6.813   2.982
13635TIP3    H164884   6.583   6.759   2.908
13635TIP3    H264885   6.635   6.839   3.022
13636TIP3   OH264886   7.415   5.982   3.052
13636TIP3    H164887   7.423   6.049   3.120
13636TIP3    H264888   7.468   6.024   2.982
13637TIP3   OH264889   6.862   6.263   3.009
13637TIP3    H164890   6.887   6.169   3.008
13637TIP3    H264891   6.860   6.278   2.912
13638TIP3   OH264892   6.177   6.074   2.727
13638TIP3    H164893   6.193   6.158   2.679
13638TIP3    H264894   6.143   6.017   2.657
13639TIP3   OH264895   6.953   6.082   2.565
13639TIP3    H164896   7.017   6.050   2.632
13639TIP3    H264897   7.010   6.140   2.513
13640TIP3   OH264898   5.840   6.315   2.801
13640TIP3    H164899   5.909   6.262   2.845
13640TIP3    H264900   5.853   6.286   2.709
13641TIP3   OH264901   6.357   6.471   2.735
13641TIP3    H164902   6.426   6.413   2.772
13641TIP3    H264903   6.306   6.406   2.683
13642TIP3   OH264904   6.074   5.971   3.130
13642TIP3    H164905   6.042   6.020   3.052
13642TIP3    H264906   6.002   5.981   3.194
13643TIP3   OH264907   6.798   6.912   2.485
13643TIP3    H164908   6.773   6.885   2.396
13643TIP3    H264909   6.769   7.005   2.491
13644TIP3   OH264910   6.310   6.725   3.141
13644TIP3    H164911   6.248   6.792   3.175
13644TIP3    H264912   6.387   6.782   3.123
13645TIP3   OH264913   7.133   6.017   2.763
13645TIP3    H164914   7.114   5.941   2.819
13645TIP3    H264915   7.202   6.061   2.816
13646TIP3   OH264916   6.027   6.152   2.934
13646TIP3    H164917   6.092   6.219   2.962
13646TIP3    H264918   6.079   6.108   2.861
13647TIP3   OH264919   6.163   6.930   3.243
13647TIP3    H164920   6.157   7.015   3.195
13647TIP3    H264921   6.075   6.915   3.281
13648TIP3   OH264922   5.772   6.889   2.317
13648TIP3    H164923   5.750   6.924   2.229
13648TIP3    H264924   5.785   6.972   2.366
13649TIP3   OH264925   7.134   7.056   2.982
13649TIP3    H164926   7.041   7.069   3.007
13649TIP3    H264927   7.165   7.148   2.979
13650TIP3   OH264928   7.167   5.887   3.143
13650TIP3    H164929   7.094   5.945   3.117
13650TIP3    H264930   7.238   5.923   3.087
13651TIP3   OH264931   6.463   5.698   2.875
13651TIP3    H164932   6.448   5.601   2.871
13651TIP3    H264933   6.376   5.728   2.909
13652TIP3   OH264934   6.960   7.237   2.650
13652TIP3    H164935   7.004   7.164   2.602
13652TIP3    H264936   7.007   7.314   2.612
13653TIP3   OH264937   7.084   7.028   2.504
13653TIP3    H164938   7.053   6.959   2.443
13653TIP3    H264939   7.086   6.979   2.588
13654TIP3   OH264940   6.694   6.577   2.329
13654TIP3    H164941   6.626   6.635   2.292
13654TIP3    H264942   6.765   6.586   2.263
13655TIP3   OH264943   6.703   6.435   2.029
13655TIP3    H164944   6.773   6.433   2.096
13655TIP3    H264945   6.733   6.362   1.974
13656TIP3   OH264946   7.431   6.514   3.149
13656TIP3    H164947   7.375   6.592   3.170
13656TIP3    H264948   7.484   6.549   3.076
13657TIP3   OH264949   7.041   6.597   2.420
13657TIP3    H164950   6.966   6.622   2.480
13657TIP3    H264951   7.088   6.530   2.474
13658TIP3   OH264952   7.027   6.415   3.337
13658TIP3    H164953   7.034   6.499   3.385
13658TIP3    H264954   6.971   6.444   3.262
13659TIP3   OH264955   6.199   6.662   2.613
13659TIP3    H164956   6.168   6.625   2.527
13659TIP3    H264957   6.262   6.595   2.645
13660TIP3   OH264958   6.331   7.001   2.881
13660TIP3    H164959   6.332   6.950   2.799
13660TIP3    H264960   6.411   6.968   2.924
13661TIP3   OH264961   6.236   6.531   2.981
13661TIP3    H164962   6.286   6.547   2.898
13661TIP3    H264963   6.268   6.607   3.036
13662TIP3   OH264964   6.871   7.096   3.052
13662TIP3    H164965   6.849   7.161   3.120
13662TIP3    H264966   6.852   7.010   3.092
13663TIP3   OH264967   6.330   6.991   3.441
13663TIP3    H164968   6.291   7.050   3.507
13663TIP3    H264969   6.256   6.959   3.384
13664TIP3   OH264970   6.928   6.519   2.187
13664TIP3    H164971   6.983   6.536   2.267
13664TIP3    H264972   6.973   6.568   2.115
13665TIP3   OH264973   6.020   6.617   3.352
13665TIP3    H164974   6.025   6.660   3.439
13665TIP3    H264975   5.925   6.615   3.341
13666TIP3   OH264976   6.697   7.190   2.535
13666TIP3    H164977   6.741   7.221   2.615
13666TIP3    H264978   6.643   7.265   2.510
13667TIP3   OH264979   7.301   5.691   2.179
13667TIP3    H164980   7.206   5.701   2.202
13667TIP3    H264981   7.320   5.775   2.134
13668TIP3   OH264982   6.096   6.565   2.377
13668TIP3    H164983   6.068   6.643   2.324
13668TIP3    H264984   6.031   6.498   2.350
13669TIP3   OH264985   7.412   7.125   2.014
13669TIP3    H164986   7.428   7.220   2.030
13669TIP3    H264987   7.504   7.094   2.014
13670TIP3   OH264988   5.719   6.803   3.246
13670TIP3    H164989   5.653   6.804   3.176
13670TIP3    H264990   5.701   6.717   3.284
13671TIP3   OH264991   5.695   7.085   2.952
13671TIP3    H164992   5.792   7.073   2.948
13671TIP3    H264993   5.689   7.165   3.007
13672TIP3   OH264994   6.596   7.123   3.387
13672TIP3    H164995   6.616   7.188   3.457
13672TIP3    H264996   6.524   7.069   3.426
13673TIP3   OH264997   6.645   7.480   2.374
13673TIP3    H164998   6.635   7.474   2.278
13673TIP3    H264999   6.644   7.576   2.392
13674TIP3   OH265000   6.011   7.370   2.559
13674TIP3    H165001   6.027   7.329   2.647
13674TIP3    H265002   5.926   7.328   2.534
13675TIP3   OH265003   6.952   7.402   2.073
13675TIP3    H165004   6.998   7.327   2.031
13675TIP3    H265005   6.956   7.377   2.168
13676TIP3   OH265006   6.921   7.398   2.351
13676TIP3    H165007   6.825   7.403   2.368
13676TIP3    H265008   6.945   7.323   2.409
13677TIP3   OH265009   6.202   5.791   2.947
13677TIP3    H165010   6.110   5.775   2.918
13677TIP3    H265011   6.190   5.870   3.002
13678TIP3   OH265012   6.664   5.762   3.291
13678TIP3    H165013   6.700   5.719   3.371
13678TIP3    H265014   6.567   5.741   3.307
13679TIP3   OH265015   7.072   6.622   1.971
13679TIP3    H165016   7.069   6.603   1.875
13679TIP3    H265017   7.158   6.666   1.975
13680TIP3   OH265018   6.631   6.014   2.020
13680TIP3    H165019   6.599   6.007   2.112
13680TIP3    H265020   6.601   5.927   1.989
13681TIP3   OH265021   6.213   6.287   3.083
13681TIP3    H165022   6.137   6.283   3.141
13681TIP3    H265023   6.211   6.376   3.039
13682TIP3   OH265024   6.209   6.292   2.565
13682TIP3    H165025   6.115   6.274   2.551
13682TIP3    H265026   6.248   6.269   2.478
13683TIP3   OH265027   6.762   6.348   2.443
13683TIP3    H165028   6.723   6.430   2.405
13683TIP3    H265029   6.830   6.329   2.376
13684TIP3   OH265030   6.866   6.297   2.727
13684TIP3    H165031   6.836   6.353   2.654
13684TIP3    H265032   6.874   6.212   2.680
13685TIP3   OH265033   6.312   6.049   1.932
13685TIP3    H165034   6.265   6.008   2.008
13685TIP3    H265035   6.241   6.094   1.883
13686TIP3   OH265036   5.642   6.022   2.646
13686TIP3    H165037   5.708   6.017   2.719
13686TIP3    H265038   5.682   5.985   2.568
13687TIP3   OH265039   5.770   6.094   2.186
13687TIP3    H165040   5.819   6.151   2.123
13687TIP3    H265041   5.699   6.158   2.208
13688TIP3   OH265042   6.776   6.454   3.185
13688TIP3    H165043   6.822   6.391   3.124
13688TIP3    H265044   6.745   6.395   3.253
13689TIP3   OH265045   6.466   6.054   2.667
13689TIP3    H165046   6.373   6.053   2.697
13689TIP3    H265047   6.514   6.034   2.749
13690TIP3   OH265048   5.942   6.203   2.556
13690TIP3    H165049   5.858   6.227   2.511
13690TIP3    H265050   5.979   6.129   2.508
13691TIP3   OH265051   6.307   6.211   2.316
13691TIP3    H165052   6.403   6.222   2.331
13691TIP3    H265053   6.285   6.280   2.250
13692TIP3   OH265054   6.904   5.979   2.993
13692TIP3    H165055   6.833   5.979   3.061
13692TIP3    H265056   6.858   5.951   2.913
13693TIP3   OH265057   6.181   6.330   2.074
13693TIP3    H165058   6.127   6.292   2.002
13693TIP3    H265059   6.263   6.351   2.026
13694TIP3   OH265060   6.593   6.328   2.857
13694TIP3    H165061   6.651   6.277   2.799
13694TIP3    H265062   6.579   6.270   2.932
13695TIP3   OH265063   6.092   5.936   2.492
13695TIP3    H165064   6.090   5.839   2.503
13695TIP3    H265065   6.177   5.942   2.445
13696TIP3   OH265066   6.456   6.158   3.095
13696TIP3    H165067   6.374   6.212   3.098
13696TIP3    H265068   6.514   6.196   3.160
13697TIP3   OH265069   6.516   6.783   2.266
13697TIP3    H165070   6.435   6.737   2.232
13697TIP3    H265071   6.492   6.797   2.360
13698TIP3   OH265072   7.232   6.697   3.146
13698TIP3    H165073   7.293   6.753   3.093
13698TIP3    H265074   7.150   6.707   3.096
13699TIP3   OH265075   6.897   6.064   2.084
13699TIP3    H165076   6.803   6.080   2.070
13699TIP3    H265077   6.932   6.149   2.119
13700TIP3   OH265078   6.971   6.258   2.244
13700TIP3    H165079   7.059   6.244   2.287
13700TIP3    H265080   6.983   6.340   2.194
13701TIP3   OH265081   6.026   6.722   2.849
13701TIP3    H165082   6.094   6.715   2.779
13701TIP3    H265083   6.032   6.635   2.890
13702TIP3   OH265084   6.724   6.930   2.169
13702TIP3    H165085   6.690   7.014   2.204
13702TIP3    H265086   6.651   6.868   2.192
13703TIP3   OH265087   6.884   7.041   3.396
13703TIP3    H165088   6.799   7.077   3.367
13703TIP3    H265089   6.892   7.086   3.482
13704TIP3   OH265090   7.460   6.269   2.225
13704TIP3    H165091   7.404   6.242   2.149
13704TIP3    H265092   7.470   6.364   2.200
13705TIP3   OH265093   7.287   7.153   2.262
13705TIP3    H165094   7.254   7.070   2.298
13705TIP3    H265095   7.324   7.131   2.175
13706TIP3   OH265096   7.009   6.634   2.974
13706TIP3    H165097   6.916   6.611   2.957
13706TIP3    H265098   7.056   6.559   2.933
13707TIP3   OH265099   6.262   7.069   2.587
13707TIP3    H165100   6.313   7.149   2.564
13707TIP3    H265101   6.176   7.091   2.551
13708TIP3   OH265102   5.841   6.552   2.042
13708TIP3    H165103   5.899   6.618   2.084
13708TIP3    H265104   5.752   6.583   2.066
13709TIP3   OH265105   6.404   6.835   2.534
13709TIP3    H165106   6.373   6.927   2.544
13709TIP3    H265107   6.334   6.785   2.580
13710TIP3   OH265108   6.451   7.254   3.178
13710TIP3    H165109   6.499   7.332   3.149
13710TIP3    H265110   6.515   7.215   3.241
13711TIP3   OH265111   6.273   7.333   2.489
13711TIP3    H165112   6.177   7.346   2.504
13711TIP3    H265113   6.310   7.417   2.522
13712TIP3   OH265114   6.797   6.846   3.133
13712TIP3    H165115   6.788   6.847   3.229
13712TIP3    H265116   6.873   6.785   3.119
13713TIP3   OH265117   7.038   6.962   2.048
13713TIP3    H165118   7.067   6.913   2.128
13713TIP3    H265119   6.942   6.942   2.055
13714TIP3   OH265120   7.079   7.313   3.386
13714TIP3    H165121   7.014   7.263   3.336
13714TIP3    H265122   7.102   7.385   3.325
13715TIP3   OH265123   7.481   7.394   2.072
13715TIP3    H165124   7.551   7.459   2.051
13715TIP3    H265125   7.411   7.456   2.102
13716TIP3   OH265126   7.114   6.824   2.272
13716TIP3    H165127   7.090   6.745   2.326
13716TIP3    H265128   7.209   6.828   2.289
13717TIP3   OH265129   5.857   7.214   3.166
13717TIP3    H165130   5.878   7.120   3.170
13717TIP3    H265131   5.872   7.247   3.257
13718TIP3   OH265132   6.450   7.068   1.898
13718TIP3    H165133   6.459   6.992   1.839
13718TIP3    H265134   6.404   7.025   1.973
13719TIP3   OH265135   6.324   7.021   2.144
13719TIP3    H165136   6.355   6.969   2.220
13719TIP3    H265137   6.336   7.113   2.176
13720TIP3   OH265138   5.981   6.745   2.191
13720TIP3    H165139   5.909   6.785   2.245
13720TIP3    H265140   6.031   6.823   2.161
13721TIP3   OH265141   6.751   6.019   3.229
13721TIP3    H165142   6.830   6.017   3.283
13721TIP3    H265143   6.722   5.925   3.239
13722TIP3   OH265144   6.837   5.970   2.332
13722TIP3    H165145   6.861   6.015   2.249
13722TIP3    H265146   6.895   6.014   2.395
13723TIP3   OH265147   6.607   7.186   2.212
13723TIP3    H165148   6.525   7.240   2.220
13723TIP3    H265149   6.661   7.242   2.154
13724TIP3   OH265150   6.561   6.145   2.414
13724TIP3    H165151   6.639   6.204   2.419
13724TIP3    H265152   6.534   6.132   2.507
13725TIP3   OH265153   6.645   5.851   2.501
13725TIP3    H165154   6.613   5.915   2.566
13725TIP3    H265155   6.715   5.905   2.458
13726TIP3   OH265156   6.348   7.289   2.216
13726TIP3    H165157   6.356   7.371   2.160
13726TIP3    H265158   6.320   7.327   2.302
13727TIP3   OH265159   6.209   5.961   2.178
13727TIP3    H165160   6.208   6.053   2.211
13727TIP3    H265161   6.303   5.938   2.196
13728TIP3   OH265162   7.096   6.414   2.814
13728TIP3    H165163   7.012   6.369   2.791
13728TIP3    H265164   7.144   6.347   2.868
13729TIP3   OH265165   6.035   7.006   2.077
13729TIP3    H165166   6.102   7.068   2.109
13729TIP3    H265167   6.087   6.959   2.009
13730TIP3   OH265168   5.869   6.273   1.992
13730TIP3    H165169   5.872   6.369   2.013
13730TIP3    H265170   5.779   6.258   1.960
13731TIP3   OH265171   7.203   7.337   2.983
13731TIP3    H165172   7.191   7.408   2.916
13731TIP3    H265173   7.298   7.346   3.001
13732TIP3   OH265174   5.950   5.752   2.870
13732TIP3    H165175   5.933   5.750   2.774
13732TIP3    H265176   5.911   5.665   2.895
13733TIP3   OH265177   5.844   7.147   2.484
13733TIP3    H165178   5.760   7.192   2.470
13733TIP3    H265179   5.894   7.187   2.412
13734TIP3   OH265180   6.650   7.253   1.910
13734TIP3    H165181   6.580   7.187   1.931
13734TIP3    H265182   6.721   7.193   1.885
13735TIP3   OH265183   7.105   7.227   1.929
13735TIP3    H165184   7.134   7.149   1.979
13735TIP3    H265185   7.181   7.248   1.873
13736TIP3   OH265186   6.193   6.821   1.909
13736TIP3    H165187   6.207   6.746   1.968
13736TIP3    H265188   6.269   6.810   1.848
13737TIP3   OH265189   6.737   6.933   1.888
13737TIP3    H165190   6.710   6.940   1.981
13737TIP3    H265191   6.718   6.837   1.873
13738TIP3   OH265192   6.991   6.775   3.376
13738TIP3    H165193   7.075   6.824   3.378
13738TIP3    H265194   6.932   6.848   3.399
13739TIP3   OH265195   6.313   6.623   2.155
13739TIP3    H165196   6.262   6.569   2.216
13739TIP3    H265197   6.344   6.556   2.089
13740TIP3   OH265198   6.243   6.403   3.376
13740TIP3    H165199   6.187   6.473   3.417
13740TIP3    H265200   6.276   6.448   3.297
13741TIP3   OH265201   6.421   6.446   1.973
13741TIP3    H165202   6.407   6.438   1.876
13741TIP3    H265203   6.519   6.450   1.980
13742TIP3   OH265204   7.352   6.677   1.914
13742TIP3    H165205   7.335   6.640   1.826
13742TIP3    H265206   7.362   6.773   1.896
13743TIP3   OH265207   6.320   5.989   3.247
13743TIP3    H165208   6.370   6.022   3.169
13743TIP3    H265209   6.233   5.967   3.206
13744TIP3   OH265210   6.402   5.727   3.271
13744TIP3    H165211   6.378   5.821   3.276
13744TIP3    H265212   6.322   5.684   3.238
13745TIP3   OH265213   6.403   7.514   2.082
13745TIP3    H165214   6.500   7.525   2.089
13745TIP3    H265215   6.389   7.573   2.007
13746TIP3   OH265216   5.758   6.971   2.029
13746TIP3    H165217   5.855   6.982   2.046
13746TIP3    H265218   5.763   6.908   1.953
13747TIP3   OH265219   5.640   7.508   2.524
13747TIP3    H165220   5.566   7.462   2.478
13747TIP3    H265221   5.666   7.444   2.592
13748TIP3   OH265222   5.716   7.327   2.713
13748TIP3    H165223   5.696   7.236   2.733
13748TIP3    H265224   5.750   7.360   2.799
13749TIP3   OH265225   7.470   7.406   3.007
13749TIP3    H165226   7.477   7.423   3.102
13749TIP3    H265227   7.543   7.460   2.973
13750TIP3   OH265228   7.408   6.770   2.309
13750TIP3    H165229   7.494   6.808   2.328
13750TIP3    H265230   7.405   6.698   2.376
13751TIP3   OH265231   7.441   6.577   2.498
13751TIP3    H165232   7.366   6.528   2.539
13751TIP3    H265233   7.502   6.588   2.574
13752TIP3   OH265234   7.411   6.844   2.983
13752TIP3    H165235   7.499   6.805   2.969
13752TIP3    H265236   7.433   6.939   2.980
13753TIP3   OH265237   7.475   6.560   2.137
13753TIP3    H165238   7.416   6.592   2.065
13753TIP3    H265239   7.463   6.630   2.203
13754TIP3   OH265240   7.312   6.281   1.988
13754TIP3    H165241   7.318   6.348   1.919
13754TIP3    H265242   7.292   6.199   1.939
13755TIP3   OH265243   7.224   6.423   2.557
13755TIP3    H165244   7.211   6.328   2.552
13755TIP3    H265245   7.194   6.443   2.648
13756TIP3   OH265246   5.725   6.635   2.962
13756TIP3    H165247   5.743   6.624   2.866
13756TIP3    H265248   5.815   6.617   2.998
13757TIP3   OH265249   7.236   6.029   1.902
13757TIP3    H165250   7.294   5.985   1.966
13757TIP3    H265251   7.149   5.988   1.917
13758TIP3   OH265252   7.189   6.182   2.396
13758TIP3    H165253   7.220   6.090   2.413
13758TIP3    H265254   7.272   6.223   2.367
13759TIP3   OH265255   7.255   6.235   2.943
13759TIP3    H165256   7.351   6.260   2.944
13759TIP3    H265257   7.236   6.249   3.038
13760TIP3   OH265258   7.255   6.307   3.215
13760TIP3    H165259   7.175   6.343   3.258
13760TIP3    H265260   7.312   6.389   3.206
13761TIP3   OH265261   7.257   5.912   2.406
13761TIP3    H165262   7.281   5.869   2.491
13761TIP3    H265263   7.200   5.846   2.363
13762TIP3   OH265264   5.813   5.992   2.855
13762TIP3    H165265   5.851   5.909   2.891
13762TIP3    H265266   5.862   6.060   2.902
13763TIP3   OH265267   5.641   6.287   2.972
13763TIP3    H165268   5.688   6.265   2.889
13763TIP3    H265269   5.678   6.374   2.988
13764TIP3   OH265270   7.440   5.915   2.061
13764TIP3    H165271   7.482   5.843   2.008
13764TIP3    H265272   7.510   5.981   2.067
13765TIP3   OH265273   5.679   5.923   2.374
13765TIP3    H165274   5.582   5.930   2.361
13765TIP3    H265275   5.708   5.970   2.293
13766TIP3   OH265276   7.145   7.413   2.569
13766TIP3    H165277   7.213   7.382   2.506
13766TIP3    H265278   7.198   7.461   2.634
13767TIP3   OH265279   5.667   5.785   3.200
13767TIP3    H165280   5.606   5.761   3.271
13767TIP3    H265281   5.618   5.851   3.149
13768TIP3   OH265282   5.918   7.518   3.253
13768TIP3    H165283   5.854   7.576   3.206
13768TIP3    H265284   5.880   7.515   3.342
13769TIP3   OH265285   6.168   7.480   3.149
13769TIP3    H165286   6.083   7.505   3.190
13769TIP3    H265287   6.169   7.543   3.075
13770TIP3   OH265288   6.643   7.478   3.069
13770TIP3    H165289   6.594   7.529   3.002
13770TIP3    H265290   6.650   7.539   3.143
13771TIP3   OH265291   6.868   7.358   3.172
13771TIP3    H165292   6.784   7.385   3.133
13771TIP3    H265293   6.920   7.440   3.161
13772TIP3   OH265294   7.122   7.513   3.189
13772TIP3    H165295   7.125   7.610   3.171
13772TIP3    H265296   7.154   7.475   3.106
13773TIP3   OH265297   5.866   7.386   2.936
13773TIP3    H165298   5.864   7.352   3.028
13773TIP3    H265299   5.954   7.356   2.903
13774TIP3   OH265300   6.074   7.262   2.805
13774TIP3    H165301   6.064   7.168   2.827
13774TIP3    H265302   6.161   7.280   2.848
13775TIP3   OH265303   6.334   7.310   2.891
13775TIP3    H165304   6.353   7.217   2.867
13775TIP3    H265305   6.343   7.307   2.988
13776TIP3   OH265306   6.682   5.876   2.805
13776TIP3    H165307   6.615   5.812   2.835
13776TIP3    H265308   6.740   5.822   2.751
13777TIP3   OH265309   7.198   5.680   2.812
13777TIP3    H165310   7.259   5.741   2.763
13777TIP3    H265311   7.109   5.716   2.792
13778TIP3   OH265312   7.363   5.808   2.637
13778TIP3    H165313   7.433   5.749   2.598
13778TIP3    H265314   7.415   5.890   2.651
13779TIP3   OH265315   5.915   5.726   2.600
13779TIP3    H165316   5.834   5.695   2.554
13779TIP3    H265317   5.967   5.642   2.594
13780TIP3   OH265318   5.807   5.716   2.175
13780TIP3    H165319   5.845   5.777   2.108
13780TIP3    H265320   5.734   5.770   2.211
13781TIP3   OH265321   6.363   5.736   2.572
13781TIP3    H165322   6.455   5.766   2.560
13781TIP3    H265323   6.366   5.708   2.664
13782TIP3   OH265324   6.939   5.733   2.735
13782TIP3    H165325   6.934   5.745   2.639
13782TIP3    H265326   6.901   5.643   2.745
13783TIP3   OH265327   7.065   5.736   2.301
13783TIP3    H165328   6.990   5.795   2.286
13783TIP3    H265329   7.022   5.651   2.326
13784TIP3   OH265330   5.788   7.309   2.268
13784TIP3    H165331   5.722   7.307   2.196
13784TIP3    H265332   5.788   7.405   2.284
13785TIP3   OH265333   5.978   5.906   2.020
13785TIP3    H165334   6.030   5.849   1.961
13785TIP3    H265335   6.048   5.942   2.077
13786TIP3   OH265336   6.480   5.933   2.255
13786TIP3    H165337   6.507   5.875   2.329
13786TIP3    H265338   6.490   6.020   2.300
13787TIP3   OH265339   6.676   7.441   2.099
13787TIP3    H165340   6.768   7.462   2.078
13787TIP3    H265341   6.654   7.387   2.020
13788TIP3   OH265342   7.345   7.390   2.373
13788TIP3    H165343   7.325   7.311   2.316
13788TIP3    H265344   7.341   7.463   2.307
13789TIP3   OH265345   5.967   7.408   1.961
13789TIP3    H165346   5.941   7.434   2.051
13789TIP3    H265347   6.045   7.352   1.977
13790TIP3   OH265348   7.834   6.551   3.082
13790TIP3    H165349   7.843   6.477   3.145
13790TIP3    H265350   7.914   6.601   3.104
13791TIP3   OH265351   7.908   6.978   2.946
13791TIP3    H165352   7.892   6.894   2.900
13791TIP3    H265353   8.006   6.981   2.941
13792TIP3   OH265354   7.588   6.346   2.481
13792TIP3    H165355   7.547   6.434   2.475
13792TIP3    H265356   7.530   6.292   2.425
13793TIP3   OH265357   7.663   6.569   2.694
13793TIP3    H165358   7.690   6.489   2.742
13793TIP3    H265359   7.734   6.579   2.629
13794TIP3   OH265360   7.723   6.313   2.800
13794TIP3    H165361   7.794   6.264   2.848
13794TIP3    H265362   7.742   6.284   2.710
13795TIP3   OH265363   7.933   5.958   3.127
13795TIP3    H165364   7.927   6.026   3.056
13795TIP3    H265365   7.879   5.997   3.197
13796TIP3   OH265366   7.900   6.133   2.926
13796TIP3    H165367   7.954   6.207   2.966
13796TIP3    H265368   7.959   6.106   2.854
13797TIP3   OH265369   8.036   6.960   3.228
13797TIP3    H165370   8.029   7.052   3.202
13797TIP3    H265371   7.954   6.944   3.281
13798TIP3   OH265372   7.666   6.891   2.316
13798TIP3    H165373   7.635   6.923   2.230
13798TIP3    H265374   7.667   6.973   2.369
13799TIP3   OH265375   7.980   6.569   2.370
13799TIP3    H165376   7.951   6.649   2.323
13799TIP3    H265377   7.912   6.504   2.350
13800TIP3   OH265378   7.568   7.087   2.941
13800TIP3    H165379   7.663   7.070   2.939
13800TIP3    H265380   7.562   7.166   2.996
13801TIP3   OH265381   7.884   7.360   2.560
13801TIP3    H165382   7.901   7.322   2.649
13801TIP3    H265383   7.798   7.320   2.540
13802TIP3   OH265384   7.813   6.942   3.362
13802TIP3    H165385   7.833   6.908   3.453
13802TIP3    H265386   7.726   6.901   3.347
13803TIP3   OH265387   7.837   6.290   3.200
13803TIP3    H165388   7.872   6.345   3.273
13803TIP3    H265389   7.812   6.213   3.252
13804TIP3   OH265390   7.524   6.019   2.646
13804TIP3    H165391   7.593   6.016   2.715
13804TIP3    H265392   7.572   5.985   2.567
13805TIP3   OH265393   7.649   6.093   2.181
13805TIP3    H165394   7.702   6.153   2.126
13805TIP3    H265395   7.580   6.156   2.211
13806TIP3   OH265396   7.827   6.212   2.551
13806TIP3    H165397   7.739   6.220   2.511
13806TIP3    H265398   7.860   6.125   2.521
13807TIP3   OH265399   7.930   5.937   2.479
13807TIP3    H165400   7.925   5.843   2.506
13807TIP3    H265401   8.026   5.945   2.472
13808TIP3   OH265402   7.907   6.723   2.839
13808TIP3    H165403   7.985   6.717   2.782
13808TIP3    H265404   7.915   6.641   2.893
13809TIP3   OH265405   7.732   6.551   2.043
13809TIP3    H165406   7.784   6.621   2.085
13809TIP3    H265407   7.640   6.579   2.064
13810TIP3   OH265408   7.772   6.041   3.331
13810TIP3    H165409   7.683   6.075   3.321
13810TIP3    H265410   7.762   5.958   3.377
13811TIP3   OH265411   7.749   7.217   3.168
13811TIP3    H165412   7.760   7.120   3.171
13811TIP3    H265413   7.766   7.241   3.259
13812TIP3   OH265414   7.868   6.747   2.187
13812TIP3    H165415   7.796   6.782   2.244
13812TIP3    H265416   7.917   6.828   2.167
13813TIP3   OH265417   7.918   7.008   2.071
13813TIP3    H165418   7.983   7.069   2.111
13813TIP3    H265419   7.977   6.962   2.011
13814TIP3   OH265420   7.757   6.271   1.998
13814TIP3    H165421   7.758   6.368   2.008
13814TIP3    H265422   7.670   6.255   1.960
13815TIP3   OH265423   7.836   5.753   2.867
13815TIP3    H165424   7.823   5.756   2.771
13815TIP3    H265425   7.797   5.667   2.891
13816TIP3   OH265426   7.726   7.144   2.480
13816TIP3    H165427   7.642   7.192   2.475
13816TIP3    H265428   7.778   7.188   2.413
13817TIP3   OH265429   7.647   6.973   2.027
13817TIP3    H165430   7.743   6.983   2.045
13817TIP3    H265431   7.651   6.908   1.952
13818TIP3   OH265432   7.525   7.510   2.521
13818TIP3    H165433   7.451   7.461   2.479
13818TIP3    H265434   7.553   7.446   2.591
13819TIP3   OH265435   7.605   7.323   2.708
13819TIP3    H165436   7.570   7.236   2.731
13819TIP3    H265437   7.633   7.356   2.796
13820TIP3   OH265438   7.610   6.639   2.954
13820TIP3    H165439   7.635   6.623   2.861
13820TIP3    H265440   7.692   6.614   3.001
13821TIP3   OH265441   7.688   5.991   2.866
13821TIP3    H165442   7.741   5.910   2.883
13821TIP3    H265443   7.751   6.060   2.896
13822TIP3   OH265444   7.517   6.288   2.962
13822TIP3    H165445   7.579   6.266   2.890
13822TIP3    H265446   7.562   6.368   2.996
13823TIP3   OH265447   7.557   5.917   2.372
13823TIP3    H165448   7.463   5.934   2.358
13823TIP3    H265449   7.598   5.968   2.300
13824TIP3   OH265450   7.549   5.784   3.207
13824TIP3    H165451   7.479   5.765   3.269
13824TIP3    H265452   7.507   5.850   3.147
13825TIP3   OH265453   7.794   7.527   3.231
13825TIP3    H165454   7.726   7.586   3.195
13825TIP3    H265455   7.761   7.512   3.320
13826TIP3   OH265456   8.037   7.452   3.128
13826TIP3    H165457   7.966   7.488   3.184
13826TIP3    H265458   8.056   7.532   3.077
13827TIP3   OH265459   7.747   7.392   2.941
13827TIP3    H165460   7.754   7.349   3.028
13827TIP3    H265461   7.830   7.358   2.902
13828TIP3   OH265462   7.942   7.262   2.821
13828TIP3    H165463   7.937   7.165   2.834
13828TIP3    H265464   8.032   7.275   2.856
13829TIP3   OH265465   7.799   5.733   2.595
13829TIP3    H165466   7.720   5.715   2.540
13829TIP3    H265467   7.852   5.652   2.590
13830TIP3   OH265468   7.681   5.715   2.160
13830TIP3    H165469   7.731   5.783   2.111
13830TIP3    H265470   7.626   5.770   2.218
13831TIP3   OH265471   7.676   7.310   2.264
13831TIP3    H165472   7.605   7.308   2.196
13831TIP3    H265473   7.676   7.406   2.282
13832TIP3   OH265474   7.863   5.903   2.023
13832TIP3    H165475   7.919   5.852   1.962
13832TIP3    H265476   7.928   5.947   2.079
13833TIP3   OH265477   7.859   7.415   1.961
13833TIP3    H165478   7.829   7.438   2.051
13833TIP3    H265479   7.929   7.352   1.979
13834TIP3   OH265480   1.768   7.866   3.050
13834TIP3    H165481   1.772   7.929   3.125
13834TIP3    H265482   1.809   7.915   2.979
13835TIP3   OH265483   0.524   7.959   2.728
13835TIP3    H165484   0.536   8.041   2.680
13835TIP3    H265485   0.488   7.900   2.658
13836TIP3   OH265486   1.300   7.963   2.557
13836TIP3    H165487   1.360   7.937   2.631
13836TIP3    H265488   1.362   8.021   2.513
13837TIP3   OH265489   1.781   7.997   3.284
13837TIP3    H165490   1.737   8.082   3.271
13837TIP3    H265491   1.813   8.000   3.374
13838TIP3   OH265492   0.416   7.837   3.137
13838TIP3    H165493   0.389   7.896   3.064
13838TIP3    H265494   0.350   7.867   3.205
13839TIP3   OH265495   1.470   7.887   2.764
13839TIP3    H165496   1.455   7.821   2.832
13839TIP3    H265497   1.531   7.949   2.810
13840TIP3   OH265498   0.385   7.999   2.949
13840TIP3    H165499   0.427   8.085   2.971
13840TIP3    H265500   0.427   7.984   2.861
13841TIP3   OH265501   1.509   7.768   3.121
13841TIP3    H165502   1.436   7.831   3.117
13841TIP3    H265503   1.583   7.812   3.078
13842TIP3   OH265504   0.809   7.583   2.873
13842TIP3    H165505   0.793   7.487   2.871
13842TIP3    H265506   0.724   7.614   2.910
13843TIP3   OH265507   1.644   7.573   2.180
13843TIP3    H165508   1.549   7.587   2.202
13843TIP3    H265509   1.664   7.657   2.135
13844TIP3   OH265510   0.548   7.675   2.950
13844TIP3    H165511   0.456   7.662   2.918
13844TIP3    H265512   0.535   7.753   3.007
13845TIP3   OH265513   1.009   7.639   3.292
13845TIP3    H165514   1.041   7.603   3.375
13845TIP3    H265515   0.910   7.631   3.306
13846TIP3   OH265516   1.324   8.008   3.365
13846TIP3    H165517   1.291   8.002   3.455
13846TIP3    H265518   1.325   8.104   3.347
13847TIP3   OH265519   0.981   7.891   2.031
13847TIP3    H165520   0.939   7.889   2.118
13847TIP3    H265521   0.943   7.811   1.990
13848TIP3   OH265522   0.653   7.930   1.930
13848TIP3    H165523   0.612   7.897   2.013
13848TIP3    H265524   0.580   7.974   1.886
13849TIP3   OH265525   0.012   7.939   2.654
13849TIP3    H165526   0.062   7.902   2.730
13849TIP3    H265527   0.023   7.871   2.588
13850TIP3   OH265528   0.095   7.949   2.163
13850TIP3    H165529   0.160   8.014   2.129
13850TIP3    H265530   0.048   8.016   2.214
13851TIP3   OH265531   0.806   7.925   2.664
13851TIP3    H165532   0.714   7.934   2.694
13851TIP3    H265533   0.859   7.920   2.745
13852TIP3   OH265534   1.250   7.859   2.995
13852TIP3    H165535   1.178   7.874   3.057
13852TIP3    H265536   1.202   7.837   2.914
13853TIP3   OH265537   0.443   7.827   2.503
13853TIP3    H165538   0.406   7.736   2.497
13853TIP3    H265539   0.517   7.822   2.442
13854TIP3   OH265540   0.801   8.028   3.087
13854TIP3    H165541   0.726   8.088   3.092
13854TIP3    H265542   0.854   8.067   3.158
13855TIP3   OH265543   1.245   7.957   2.095
13855TIP3    H165544   1.150   7.964   2.069
13855TIP3    H265545   1.272   8.048   2.112
13856TIP3   OH265546   0.235   7.916   3.325
13856TIP3    H165547   0.146   7.953   3.325
13856TIP3    H265548   0.222   7.833   3.374
13857TIP3   OH265549   1.093   7.901   3.234
13857TIP3    H165550   1.180   7.899   3.276
13857TIP3    H265551   1.066   7.806   3.238
13858TIP3   OH265552   1.171   7.863   2.335
13858TIP3    H165553   1.205   7.896   2.249
13858TIP3    H265554   1.237   7.895   2.400
13859TIP3   OH265555   0.916   8.020   2.416
13859TIP3    H165556   0.980   8.094   2.419
13859TIP3    H265557   0.876   8.021   2.505
13860TIP3   OH265558   0.991   7.737   2.505
13860TIP3    H165559   0.958   7.802   2.570
13860TIP3    H265560   1.059   7.791   2.458
13861TIP3   OH265561   0.559   7.846   2.173
13861TIP3    H165562   0.550   7.935   2.213
13861TIP3    H265563   0.651   7.822   2.197
13862TIP3   OH265564   1.556   7.874   3.357
13862TIP3    H165565   1.478   7.932   3.361
13862TIP3    H265566   1.619   7.920   3.298
13863TIP3   OH265567   0.298   7.638   2.861
13863TIP3    H165568   0.271   7.640   2.767
13863TIP3    H265569   0.256   7.553   2.890
13864TIP3   OH265570   0.666   7.859   3.238
13864TIP3    H165571   0.716   7.909   3.172
13864TIP3    H265572   0.573   7.861   3.208
13865TIP3   OH265573   0.747   7.609   3.263
13865TIP3    H165574   0.721   7.702   3.281
13865TIP3    H265575   0.660   7.574   3.241
13866TIP3   OH265576   1.578   7.912   1.902
13866TIP3    H165577   1.639   7.873   1.966
13866TIP3    H265578   1.492   7.871   1.920
13867TIP3   OH265579   1.554   8.052   2.434
13867TIP3    H165580   1.577   7.958   2.416
13867TIP3    H265581   1.613   8.096   2.368
13868TIP3   OH265582   1.605   7.792   2.402
13868TIP3    H165583   1.625   7.753   2.490
13868TIP3    H265584   1.544   7.727   2.362
13869TIP3   OH265585   0.158   7.874   2.861
13869TIP3    H165586   0.200   7.791   2.889
13869TIP3    H265587   0.203   7.938   2.916
13870TIP3   OH265588   1.782   7.792   2.060
13870TIP3    H165589   1.825   7.725   2.004
13870TIP3    H265590   1.852   7.860   2.071
13871TIP3   OH265591   0.033   7.777   2.335
13871TIP3    H165592  -0.059   7.806   2.343
13871TIP3    H265593   0.074   7.854   2.288
13872TIP3   OH265594   0.030   7.690   3.216
13872TIP3    H165595  -0.040   7.653   3.269
13872TIP3    H265596  -0.026   7.743   3.155
13873TIP3   OH265597   1.025   7.759   2.803
13873TIP3    H165598   0.959   7.695   2.834
13873TIP3    H265599   1.084   7.703   2.751
13874TIP3   OH265600   1.542   7.568   2.811
13874TIP3    H165601   1.603   7.627   2.762
13874TIP3    H265602   1.454   7.606   2.792
13875TIP3   OH265603   1.705   7.688   2.637
13875TIP3    H165604   1.777   7.633   2.597
13875TIP3    H265605   1.755   7.771   2.652
13876TIP3   OH265606   0.267   7.625   2.589
13876TIP3    H165607   0.186   7.605   2.539
13876TIP3    H265608   0.312   7.538   2.585
13877TIP3   OH265609   0.139   7.596   2.162
13877TIP3    H165610   0.189   7.663   2.113
13877TIP3    H265611   0.088   7.654   2.222
13878TIP3   OH265612   0.711   7.615   2.570
13878TIP3    H165613   0.801   7.653   2.564
13878TIP3    H265614   0.703   7.602   2.664
13879TIP3   OH265615   1.279   7.618   2.735
13879TIP3    H165616   1.278   7.629   2.640
13879TIP3    H265617   1.240   7.528   2.746
13880TIP3   OH265618   1.407   7.622   2.300
13880TIP3    H165619   1.333   7.683   2.287
13880TIP3    H265620   1.364   7.537   2.325
13881TIP3   OH265621   0.330   7.798   2.013
13881TIP3    H165622   0.377   7.729   1.963
13881TIP3    H265623   0.397   7.823   2.080
13882TIP3   OH265624   0.822   7.818   2.257
13882TIP3    H165625   0.853   7.761   2.329
13882TIP3    H265626   0.832   7.904   2.304
13883TIP3   OH265627   3.638   7.872   3.040
13883TIP3    H165628   3.659   7.914   3.127
13883TIP3    H265629   3.700   7.915   2.981
13884TIP3   OH265630   2.408   7.957   2.729
13884TIP3    H165631   2.423   8.040   2.681
13884TIP3    H265632   2.373   7.900   2.657
13885TIP3   OH265633   3.195   7.931   2.561
13885TIP3    H165634   3.256   7.932   2.638
13885TIP3    H265635   3.225   8.018   2.522
13886TIP3   OH265636   3.685   7.982   3.272
13886TIP3    H165637   3.650   8.069   3.248
13886TIP3    H265638   3.696   7.991   3.368
13887TIP3   OH265639   2.299   7.840   3.142
13887TIP3    H165640   2.281   7.905   3.069
13887TIP3    H265641   2.233   7.874   3.209
13888TIP3   OH265642   3.358   7.886   2.766
13888TIP3    H165643   3.340   7.822   2.834
13888TIP3    H265644   3.418   7.950   2.810
13889TIP3   OH265645   2.271   7.998   2.948
13889TIP3    H165646   2.309   8.086   2.971
13889TIP3    H265647   2.312   7.987   2.859
13890TIP3   OH265648   3.393   7.766   3.124
13890TIP3    H165649   3.325   7.835   3.128
13890TIP3    H265650   3.470   7.815   3.089
13891TIP3   OH265651   2.694   7.583   2.877
13891TIP3    H165652   2.680   7.487   2.869
13891TIP3    H265653   2.607   7.613   2.909
13892TIP3   OH265654   3.529   7.573   2.179
13892TIP3    H165655   3.434   7.589   2.202
13892TIP3    H265656   3.550   7.658   2.135
13893TIP3   OH265657   2.430   7.671   2.958
13893TIP3    H165658   2.355   7.666   2.896
13893TIP3    H265659   2.428   7.760   2.996
13894TIP3   OH265660   2.887   7.645   3.302
13894TIP3    H165661   2.929   7.596   3.373
13894TIP3    H265662   2.793   7.621   3.305
13895TIP3   OH265663   3.204   7.958   3.354
13895TIP3    H165664   3.192   7.985   3.446
13895TIP3    H265665   3.220   8.053   3.330
13896TIP3   OH265666   2.866   7.891   2.032
13896TIP3    H165667   2.826   7.889   2.120
13896TIP3    H265668   2.828   7.811   1.991
13897TIP3   OH265669   2.537   7.931   1.931
13897TIP3    H165670   2.497   7.897   2.013
13897TIP3    H265671   2.465   7.974   1.886
13898TIP3   OH265672   1.869   7.903   2.645
13898TIP3    H165673   1.934   7.902   2.718
13898TIP3    H265674   1.916   7.869   2.567
13899TIP3   OH265675   1.980   7.946   2.170
13899TIP3    H165676   2.041   8.011   2.130
13899TIP3    H265677   1.929   8.014   2.218
13900TIP3   OH265678   2.688   7.924   2.664
13900TIP3    H165679   2.597   7.936   2.695
13900TIP3    H265680   2.744   7.922   2.744
13901TIP3   OH265681   3.136   7.858   2.992
13901TIP3    H165682   3.067   7.878   3.058
13901TIP3    H265683   3.084   7.840   2.912
13902TIP3   OH265684   2.327   7.824   2.507
13902TIP3    H165685   2.293   7.734   2.495
13902TIP3    H265686   2.399   7.825   2.444
13903TIP3   OH265687   2.682   8.022   3.097
13903TIP3    H165688   2.614   8.090   3.093
13903TIP3    H265689   2.745   8.068   3.156
13904TIP3   OH265690   3.132   7.956   2.088
13904TIP3    H165691   3.035   7.966   2.071
13904TIP3    H265692   3.160   8.045   2.117
13905TIP3   OH265693   2.112   7.908   3.317
13905TIP3    H165694   2.031   7.960   3.327
13905TIP3    H265695   2.102   7.839   3.384
13906TIP3   OH265696   2.976   7.899   3.234
13906TIP3    H165697   3.067   7.908   3.274
13906TIP3    H265698   2.961   7.803   3.236
13907TIP3   OH265699   3.060   7.857   2.332
13907TIP3    H165700   3.091   7.899   2.250
13907TIP3    H265701   3.119   7.897   2.400
13908TIP3   OH265702   2.801   8.020   2.415
13908TIP3    H165703   2.867   8.093   2.417
13908TIP3    H265704   2.764   8.023   2.505
13909TIP3   OH265705   2.876   7.738   2.503
13909TIP3    H165706   2.844   7.805   2.567
13909TIP3    H265707   2.946   7.791   2.457
13910TIP3   OH265708   2.442   7.847   2.175
13910TIP3    H165709   2.435   7.935   2.213
13910TIP3    H265710   2.535   7.822   2.198
13911TIP3   OH265711   2.176   7.634   2.855
13911TIP3    H165712   2.158   7.640   2.758
13911TIP3    H265713   2.135   7.545   2.872
13912TIP3   OH265714   3.464   7.912   1.901
13912TIP3    H165715   3.524   7.873   1.967
13912TIP3    H265716   3.378   7.872   1.920
13913TIP3   OH265717   3.442   8.053   2.431
13913TIP3    H165718   3.461   7.958   2.415
13913TIP3    H265719   3.498   8.096   2.365
13914TIP3   OH265720   3.492   7.792   2.402
13914TIP3    H165721   3.508   7.753   2.492
13914TIP3    H265722   3.428   7.729   2.363
13915TIP3   OH265723   2.037   7.877   2.858
13915TIP3    H165724   2.082   7.794   2.880
13915TIP3    H265725   2.087   7.943   2.907
13916TIP3   OH265726   3.666   7.792   2.060
13916TIP3    H165727   3.711   7.725   2.005
13916TIP3    H265728   3.735   7.860   2.071
13917TIP3   OH265729   1.900   7.806   2.375
13917TIP3    H165730   1.806   7.820   2.355
13917TIP3    H265731   1.943   7.850   2.299
13918TIP3   OH265732   1.901   7.673   3.202
13918TIP3    H165733   1.831   7.649   3.266
13918TIP3    H265734   1.849   7.737   3.148
13919TIP3   OH265735   2.911   7.757   2.810
13919TIP3    H165736   2.843   7.692   2.835
13919TIP3    H265737   2.968   7.706   2.750
13920TIP3   OH265738   3.425   7.568   2.814
13920TIP3    H165739   3.487   7.626   2.765
13920TIP3    H265740   3.338   7.607   2.792
13921TIP3   OH265741   3.592   7.686   2.642
13921TIP3    H165742   3.663   7.633   2.599
13921TIP3    H265743   3.640   7.772   2.651
13922TIP3   OH265744   2.148   7.624   2.592
13922TIP3    H165745   2.069   7.606   2.537
13922TIP3    H265746   2.194   7.537   2.583
13923TIP3   OH265747   2.025   7.598   2.162
13923TIP3    H165748   2.075   7.666   2.112
13923TIP3    H265749   1.968   7.655   2.217
13924TIP3   OH265750   2.597   7.614   2.570
13924TIP3    H165751   2.686   7.653   2.563
13924TIP3    H265752   2.591   7.602   2.665
13925TIP3   OH265753   3.166   7.618   2.734
13925TIP3    H165754   3.163   7.633   2.639
13925TIP3    H265755   3.126   7.529   2.744
13926TIP3   OH265756   3.292   7.623   2.299
13926TIP3    H165757   3.219   7.685   2.289
13926TIP3    H265758   3.249   7.538   2.325
13927TIP3   OH265759   2.212   7.798   2.014
13927TIP3    H165760   2.259   7.730   1.963
13927TIP3    H265761   2.279   7.826   2.078
13928TIP3   OH265762   2.709   7.820   2.257
13928TIP3    H165763   2.738   7.761   2.329
13928TIP3    H265764   2.720   7.905   2.305
13929TIP3   OH265765   5.524   7.871   3.040
13929TIP3    H165766   5.542   7.920   3.124
13929TIP3    H265767   5.583   7.916   2.979
13930TIP3   OH265768   4.295   7.957   2.727
13930TIP3    H165769   4.308   8.040   2.680
13930TIP3    H265770   4.258   7.899   2.658
13931TIP3   OH265771   5.071   7.963   2.557
13931TIP3    H165772   5.131   7.937   2.631
13931TIP3    H265773   5.134   8.022   2.513
13932TIP3   OH265774   5.564   7.980   3.273
13932TIP3    H165775   5.538   8.070   3.246
13932TIP3    H265776   5.585   7.993   3.367
13933TIP3   OH265777   4.183   7.844   3.145
13933TIP3    H165778   4.161   7.894   3.062
13933TIP3    H265779   4.108   7.865   3.200
13934TIP3   OH265780   5.244   7.887   2.761
13934TIP3    H165781   5.229   7.820   2.828
13934TIP3    H265782   5.305   7.948   2.808
13935TIP3   OH265783   4.157   7.998   2.948
13935TIP3    H165784   4.198   8.084   2.970
13935TIP3    H265785   4.198   7.983   2.860
13936TIP3   OH265786   5.277   7.776   3.134
13936TIP3    H165787   5.205   7.837   3.110
13936TIP3    H265788   5.354   7.812   3.085
13937TIP3   OH265789   4.579   7.583   2.874
13937TIP3    H165790   4.563   7.487   2.871
13937TIP3    H265791   4.493   7.615   2.909
13938TIP3   OH265792   5.415   7.573   2.180
13938TIP3    H165793   5.321   7.587   2.202
13938TIP3    H265794   5.436   7.657   2.135
13939TIP3   OH265795   4.316   7.674   2.948
13939TIP3    H165796   4.224   7.661   2.917
13939TIP3    H265797   4.306   7.753   3.004
13940TIP3   OH265798   4.776   7.652   3.304
13940TIP3    H165799   4.806   7.583   3.362
13940TIP3    H265800   4.679   7.630   3.295
13941TIP3   OH265801   4.752   7.891   2.031
13941TIP3    H165802   4.710   7.889   2.118
13941TIP3    H265803   4.714   7.810   1.990
13942TIP3   OH265804   4.420   7.926   1.928
13942TIP3    H165805   4.384   7.898   2.014
13942TIP3    H265806   4.351   7.978   1.889
13943TIP3   OH265807   3.756   7.905   2.644
13943TIP3    H165808   3.821   7.900   2.717
13943TIP3    H265809   3.802   7.869   2.566
13944TIP3   OH265810   3.866   7.947   2.169
13944TIP3    H165811   3.927   8.013   2.132
13944TIP3    H265812   3.814   8.013   2.218
13945TIP3   OH265813   4.575   7.926   2.664
13945TIP3    H165814   4.483   7.935   2.695
13945TIP3    H265815   4.629   7.922   2.746
13946TIP3   OH265816   5.023   7.854   3.000
13946TIP3    H165817   4.947   7.877   3.056
13946TIP3    H265818   4.977   7.839   2.915
13947TIP3   OH265819   4.211   7.826   2.503
13947TIP3    H165820   4.179   7.734   2.497
13947TIP3    H265821   4.286   7.823   2.442
13948TIP3   OH265822   4.574   8.009   3.080
13948TIP3    H165823   4.507   8.081   3.085
13948TIP3    H265824   4.627   8.058   3.147
13949TIP3   OH265825   5.016   7.957   2.095
13949TIP3    H165826   4.921   7.964   2.069
13949TIP3    H265827   5.043   8.048   2.112
13950TIP3   OH265828   4.866   7.898   3.227
13950TIP3    H165829   4.941   7.910   3.284
13950TIP3    H265830   4.836   7.807   3.239
13951TIP3   OH265831   4.944   7.861   2.335
13951TIP3    H165832   4.977   7.895   2.249
13951TIP3    H265833   5.008   7.895   2.399
13952TIP3   OH265834   4.687   8.020   2.416
13952TIP3    H165835   4.751   8.094   2.419
13952TIP3    H265836   4.647   8.021   2.505
13953TIP3   OH265837   4.763   7.736   2.505
13953TIP3    H165838   4.729   7.803   2.568
13953TIP3    H265839   4.830   7.791   2.457
13954TIP3   OH265840   4.329   7.847   2.175
13954TIP3    H165841   4.321   7.935   2.213
13954TIP3    H265842   4.420   7.822   2.198
13955TIP3   OH265843   4.066   7.638   2.866
13955TIP3    H165844   4.049   7.641   2.769
13955TIP3    H265845   4.026   7.551   2.888
13956TIP3   OH265846   4.456   8.040   3.372
13956TIP3    H165847   4.399   7.967   3.397
13956TIP3    H265848   4.423   8.114   3.428
13957TIP3   OH265849   4.431   7.837   3.227
13957TIP3    H165850   4.485   7.905   3.179
13957TIP3    H265851   4.341   7.857   3.191
13958TIP3   OH265852   4.515   7.609   3.296
13958TIP3    H165853   4.496   7.702   3.267
13958TIP3    H265854   4.444   7.568   3.238
13959TIP3   OH265855   5.349   7.912   1.902
13959TIP3    H165856   5.411   7.873   1.966
13959TIP3    H265857   5.264   7.871   1.920
13960TIP3   OH265858   5.325   8.052   2.433
13960TIP3    H165859   5.348   7.958   2.416
13960TIP3    H265860   5.384   8.096   2.368
13961TIP3   OH265861   5.377   7.792   2.402
13961TIP3    H165862   5.396   7.753   2.490
13961TIP3    H265863   5.316   7.727   2.362
13962TIP3   OH265864   3.927   7.877   2.855
13962TIP3    H165865   3.968   7.793   2.885
13962TIP3    H265866   3.973   7.941   2.910
13963TIP3   OH265867   5.553   7.792   2.060
13963TIP3    H165868   5.597   7.725   2.004
13963TIP3    H265869   5.624   7.860   2.070
13964TIP3   OH265870   3.786   7.804   2.374
13964TIP3    H165871   3.692   7.820   2.355
13964TIP3    H265872   3.828   7.851   2.299
13965TIP3   OH265873   5.467   7.621   3.359
13965TIP3    H165874   5.375   7.638   3.339
13965TIP3    H265875   5.477   7.530   3.329
13966TIP3   OH265876   4.799   7.760   2.806
13966TIP3    H165877   4.731   7.697   2.835
13966TIP3    H265878   4.854   7.704   2.749
13967TIP3   OH265879   5.310   7.568   2.813
13967TIP3    H165880   5.372   7.626   2.762
13967TIP3    H265881   5.223   7.606   2.789
13968TIP3   OH265882   5.476   7.687   2.640
13968TIP3    H165883   5.547   7.635   2.597
13968TIP3    H265884   5.525   7.771   2.653
13969TIP3   OH265885   4.036   7.624   2.593
13969TIP3    H165886   3.955   7.606   2.540
13969TIP3    H265887   4.080   7.537   2.586
13970TIP3   OH265888   3.910   7.597   2.163
13970TIP3    H165889   3.960   7.665   2.114
13970TIP3    H265890   3.853   7.654   2.218
13971TIP3   OH265891   4.483   7.615   2.570
13971TIP3    H165892   4.572   7.653   2.563
13971TIP3    H265893   4.476   7.604   2.665
13972TIP3   OH265894   5.052   7.617   2.734
13972TIP3    H165895   5.048   7.629   2.639
13972TIP3    H265896   5.012   7.528   2.745
13973TIP3   OH265897   5.178   7.622   2.299
13973TIP3    H165898   5.104   7.683   2.287
13973TIP3    H265899   5.135   7.537   2.325
13974TIP3   OH265900   4.101   7.803   2.007
13974TIP3    H165901   4.146   7.726   1.968
13974TIP3    H265902   4.162   7.825   2.080
13975TIP3   OH265903   4.594   7.818   2.257
13975TIP3    H165904   4.625   7.761   2.329
13975TIP3    H265905   4.603   7.904   2.304
13976TIP3   OH265906   7.420   7.867   3.053
13976TIP3    H165907   7.427   7.930   3.125
13976TIP3    H265908   7.469   7.913   2.983
13977TIP3   OH265909   6.180   7.959   2.727
13977TIP3    H165910   6.193   8.041   2.679
13977TIP3    H265911   6.143   7.900   2.658
13978TIP3   OH265912   6.966   7.953   2.551
13978TIP3    H165913   7.016   7.933   2.634
13978TIP3    H265914   7.006   8.040   2.534
13979TIP3   OH265915   6.075   7.839   3.136
13979TIP3    H165916   6.048   7.894   3.059
13979TIP3    H265917   6.003   7.862   3.200
13980TIP3   OH265918   7.127   7.887   2.760
13980TIP3    H165919   7.112   7.821   2.829
13980TIP3    H265920   7.185   7.951   2.807
13981TIP3   OH265921   6.041   8.001   2.947
13981TIP3    H165922   6.087   8.084   2.971
13981TIP3    H265923   6.084   7.983   2.860
13982TIP3   OH265924   7.167   7.773   3.134
13982TIP3    H165925   7.093   7.834   3.124
13982TIP3    H265926   7.237   7.814   3.081
13983TIP3   OH265927   6.466   7.584   2.876
13983TIP3    H165928   6.451   7.488   2.872
13983TIP3    H265929   6.378   7.613   2.910
13984TIP3   OH265930   7.302   7.574   2.181
13984TIP3    H165931   7.207   7.585   2.200
13984TIP3    H265932   7.323   7.656   2.133
13985TIP3   OH265933   6.206   7.675   2.947
13985TIP3    H165934   6.113   7.660   2.919
13985TIP3    H265935   6.192   7.750   3.006
13986TIP3   OH265936   6.993   8.018   3.382
13986TIP3    H165937   6.945   8.001   3.464
13986TIP3    H265938   6.978   8.109   3.357
13987TIP3   OH265939   6.643   7.889   2.034
13987TIP3    H165940   6.593   7.889   2.117
13987TIP3    H265941   6.600   7.812   1.990
13988TIP3   OH265942   6.309   7.931   1.932
13988TIP3    H165943   6.268   7.897   2.013
13988TIP3    H265944   6.237   7.974   1.886
13989TIP3   OH265945   5.641   7.904   2.645
13989TIP3    H165946   5.707   7.900   2.718
13989TIP3    H265947   5.688   7.869   2.566
13990TIP3   OH265948   5.751   7.946   2.170
13990TIP3    H165949   5.812   8.011   2.131
13990TIP3    H265950   5.700   8.014   2.218
13991TIP3   OH265951   6.460   7.925   2.668
13991TIP3    H165952   6.368   7.935   2.697
13991TIP3    H265953   6.513   7.920   2.748
13992TIP3   OH265954   6.908   7.860   2.992
13992TIP3    H165955   6.836   7.870   3.055
13992TIP3    H265956   6.860   7.836   2.911
13993TIP3   OH265957   6.097   7.826   2.503
13993TIP3    H165958   6.064   7.735   2.497
13993TIP3    H265959   6.171   7.824   2.442
13994TIP3   OH265960   6.455   8.044   3.105
13994TIP3    H165961   6.374   8.096   3.108
13994TIP3    H265962   6.508   8.079   3.175
13995TIP3   OH265963   6.902   7.959   2.104
13995TIP3    H165964   6.809   7.963   2.068
13995TIP3    H265965   6.927   8.053   2.105
13996TIP3   OH265966   5.864   7.870   3.292
13996TIP3    H165967   5.803   7.943   3.314
13996TIP3    H265968   5.876   7.829   3.379
13997TIP3   OH265969   6.832   7.850   2.334
13997TIP3    H165970   6.848   7.899   2.250
13997TIP3    H265971   6.873   7.897   2.409
13998TIP3   OH265972   6.577   8.018   2.416
13998TIP3    H165973   6.634   8.097   2.418
13998TIP3    H265974   6.532   8.023   2.502
13999TIP3   OH265975   6.649   7.738   2.506
13999TIP3    H165976   6.614   7.803   2.569
13999TIP3    H265977   6.714   7.793   2.457
14000TIP3   OH265978   6.214   7.847   2.175
14000TIP3    H165979   6.206   7.935   2.213
14000TIP3    H265980   6.306   7.821   2.198
14001TIP3   OH265981   5.950   7.637   2.867
14001TIP3    H165982   5.932   7.641   2.770
14001TIP3    H265983   5.911   7.551   2.890
14002TIP3   OH265984   6.317   8.034   3.474
14002TIP3    H165985   6.288   7.953   3.425
14002TIP3    H265986   6.267   8.104   3.433
14003TIP3   OH265987   6.307   7.876   3.252
14003TIP3    H165988   6.371   7.901   3.184
14003TIP3    H265989   6.228   7.855   3.199
14004TIP3   OH265990   7.233   7.915   1.907
14004TIP3    H165991   7.298   7.870   1.965
14004TIP3    H265992   7.150   7.867   1.917
14005TIP3   OH265993   7.210   8.052   2.423
14005TIP3    H165994   7.249   7.961   2.423
14005TIP3    H265995   7.275   8.101   2.369
14006TIP3   OH265996   7.255   7.794   2.403
14006TIP3    H165997   7.284   7.752   2.488
14006TIP3    H265998   7.205   7.720   2.362
14007TIP3   OH265999   5.811   7.876   2.857
14007TIP3    H166000   5.854   7.793   2.886
14007TIP3    H266001   5.859   7.940   2.909
14008TIP3   OH266002   7.435   7.793   2.060
14008TIP3    H166003   7.481   7.726   2.005
14008TIP3    H266004   7.506   7.861   2.071
14009TIP3   OH266005   5.671   7.804   2.374
14009TIP3    H166006   5.577   7.820   2.354
14009TIP3    H266007   5.714   7.850   2.300
14010TIP3   OH266008   5.668   7.670   3.194
14010TIP3    H166009   5.603   7.654   3.268
14010TIP3    H266010   5.619   7.741   3.148
14011TIP3   OH266011   6.685   7.759   2.809
14011TIP3    H166012   6.614   7.696   2.834
14011TIP3    H266013   6.738   7.703   2.751
14012TIP3   OH266014   7.196   7.569   2.817
14012TIP3    H166015   7.259   7.624   2.766
14012TIP3    H266016   7.109   7.605   2.792
14013TIP3   OH266017   7.361   7.688   2.637
14013TIP3    H166018   7.433   7.633   2.599
14013TIP3    H266019   7.412   7.770   2.655
14014TIP3   OH266020   5.921   7.624   2.592
14014TIP3    H166021   5.840   7.606   2.540
14014TIP3    H266022   5.965   7.538   2.586
14015TIP3   OH266023   5.796   7.598   2.162
14015TIP3    H166024   5.846   7.666   2.112
14015TIP3    H266025   5.740   7.655   2.217
14016TIP3   OH266026   6.368   7.614   2.570
14016TIP3    H166027   6.457   7.653   2.563
14016TIP3    H266028   6.361   7.603   2.665
14017TIP3   OH266029   6.935   7.620   2.735
14017TIP3    H166030   6.934   7.628   2.640
14017TIP3    H266031   6.897   7.530   2.747
14018TIP3   OH266032   7.062   7.627   2.303
14018TIP3    H166033   6.983   7.677   2.283
14018TIP3    H266034   7.025   7.539   2.324
14019TIP3   OH266035   5.983   7.798   2.014
14019TIP3    H166036   6.030   7.730   1.963
14019TIP3    H266037   6.050   7.826   2.078
14020TIP3   OH266038   6.483   7.819   2.256
14020TIP3    H166039   6.508   7.761   2.329
14020TIP3    H266040   6.488   7.905   2.304
14021TIP3   OH266041   7.927   7.836   3.130
14021TIP3    H166042   7.930   7.904   3.058
14021TIP3    H266043   7.880   7.882   3.203
14022TIP3   OH266044   7.938   8.010   2.945
14022TIP3    H166045   7.968   8.102   2.962
14022TIP3    H266046   7.970   7.993   2.855
14023TIP3   OH266047   7.524   7.904   2.643
14023TIP3    H166048   7.590   7.903   2.717
14023TIP3    H266049   7.575   7.870   2.567
14024TIP3   OH266050   7.632   7.946   2.168
14024TIP3    H166051   7.696   8.010   2.132
14024TIP3    H266052   7.584   8.014   2.217
14025TIP3   OH266053   7.926   7.818   2.484
14025TIP3    H166054   7.925   7.723   2.506
14025TIP3    H266055   8.021   7.831   2.471
14026TIP3   OH266056   7.775   7.922   3.335
14026TIP3    H166057   7.685   7.956   3.322
14026TIP3    H266058   7.761   7.837   3.377
14027TIP3   OH266059   7.835   7.637   2.867
14027TIP3    H166060   7.822   7.641   2.770
14027TIP3    H266061   7.798   7.550   2.891
14028TIP3   OH266062   7.695   7.875   2.862
14028TIP3    H166063   7.743   7.792   2.883
14028TIP3    H266064   7.750   7.941   2.905
14029TIP3   OH266065   7.555   7.803   2.372
14029TIP3    H166066   7.462   7.819   2.353
14029TIP3    H266067   7.599   7.850   2.300
14030TIP3   OH266068   7.548   7.662   3.203
14030TIP3    H166069   7.480   7.655   3.272
14030TIP3    H266070   7.509   7.733   3.147
14031TIP3   OH266071   7.797   7.618   2.594
14031TIP3    H166072   7.718   7.601   2.539
14031TIP3    H266073   7.849   7.537   2.589
14032TIP3   OH266074   7.680   7.598   2.160
14032TIP3    H166075   7.730   7.668   2.113
14032TIP3    H266076   7.625   7.653   2.218
14033TIP3   OH266077   7.865   7.789   2.023
14033TIP3    H166078   7.919   7.736   1.962
14033TIP3    H266079   7.933   7.832   2.078
   8.08472   8.08472  17.00000
