;;
;; Generated by CHARMM-GUI FF-Converter
;;
;; Correspondance:
;; jul316@lehigh.edu or wonpil@lehigh.edu
;;
;; The main GROMACS topology file
;;

; Include forcefield parameters
#include "toppar/forcefield.itp"
#include "toppar/KU04.itp"
#include "toppar/PMPE.itp"
#include "toppar/OYPE.itp"
#include "toppar/PYPG.itp"
#include "toppar/POPE.itp"
#include "toppar/PMPG.itp"
#include "toppar/QMPE.itp"
#include "toppar/PVCL2.itp"
#include "toppar/SOD.itp"
#include "toppar/CLA.itp"
#include "toppar/TIP3.itp"

[ system ]
; Name
Title in water

[ molecules ]
; Compound	#mols
KU04  	           1
PMPE  	          92
OYPE  	          16
PYPG  	          18
POPE  	          26
PMPG  	          20
QMPE  	          24
PVCL2 	           4
SOD   	          78
CLA   	          36
TIP3  	       29950
