gim_only
22932
    1DOPE   NH3    1   0.533   5.951   8.072
    1DOPE   PO4    2   0.309   5.907   7.815
    1DOPE   GL1    3   0.241   6.176   7.520
    1DOPE   GL2    4   0.145   6.406   7.666
    1DOPE   C1A    5   0.272   6.186   7.079
    1DOPE   D2A    6   0.403   5.887   6.702
    1DOPE   C3A    7   0.041   5.784   6.419
    1DOPE   C4A    8  13.917   5.788   5.950
    1DOPE   C1B    9   0.192   6.637   7.324
    1DOPE   D2B   10   0.378   6.647   6.882
    1DOPE   C3B   11   0.284   6.356   6.555
    1DOPE   C4B   12   0.319   6.091   6.152
    2DOPE   NH3   13   0.689   7.141   8.125
    2DOPE   PO4   14   0.961   7.370   8.098
    2DOPE   GL1   15   0.940   7.187   7.738
    2DOPE   GL2   16   1.122   6.961   7.827
    2DOPE   C1A   17   0.913   7.376   7.327
    2DOPE   D2A   18   0.648   7.467   6.924
    2DOPE   C3A   19   0.968   7.434   6.577
    2DOPE   C4A   20   0.986   7.257   6.106
    2DOPE   C1B   21   1.076   6.915   7.383
    2DOPE   D2B   22   1.190   7.124   6.947
    2DOPE   C3B   23   1.132   6.943   6.509
    2DOPE   C4B   24   1.015   6.686   6.109
    3DOPE   NH3   25   1.226  11.391   8.636
    3DOPE   PO4   26   1.010  11.171   8.456
    3DOPE   GL1   27   0.937  11.087   8.037
    3DOPE   GL2   28   1.157  11.191   7.930
    3DOPE   C1A   29   0.819  10.878   7.652
    3DOPE   D2A   30   0.894  11.068   7.193
    3DOPE   C3A   31   0.779  11.245   6.771
    3DOPE   C4A   32   0.912  10.962   6.386
    3DOPE   C1B   33   1.296  11.078   7.551
    3DOPE   D2B   34   1.411  11.155   7.087
    3DOPE   C3B   35   1.279  11.233   6.644
    3DOPE   C4B   36   1.377  11.106   6.181
    4DOPE   NH3   37   1.357   6.589   8.062
    4DOPE   PO4   38   1.563   6.868   8.059
    4DOPE   GL1   39   1.474   6.766   7.633
    4DOPE   GL2   40   1.767   6.693   7.660
    4DOPE   C1A   41   1.547   6.828   7.209
    4DOPE   D2A   42   1.950   6.858   6.949
    4DOPE   C3A   43   1.618   6.895   6.643
    4DOPE   C4A   44   1.509   6.702   6.207
    4DOPE   C1B   45   1.960   7.041   7.450
    4DOPE   D2B   46   2.194   7.314   7.087
    4DOPE   C3B   47   2.003   7.283   6.655
    4DOPE   C4B   48   1.946   6.973   6.268
    5DOPE   NH3   49   1.704   8.419   8.199
    5DOPE   PO4   50   1.941   8.204   8.056
    5DOPE   GL1   51   1.783   8.077   7.650
    5DOPE   GL2   52   1.973   8.270   7.590
    5DOPE   C1A   53   1.670   8.139   7.215
    5DOPE   D2A   54   1.756   8.222   6.722
    5DOPE   C3A   55   1.584   8.151   6.278
    5DOPE   C4A   56   1.392   8.032   5.837
    5DOPE   C1B   57   2.188   8.230   7.222
    5DOPE   D2B   58   2.276   8.256   6.735
    5DOPE   C3B   59   2.090   8.183   6.322
    5DOPE   C4B   60   2.240   8.309   5.863
    6DOPE   NH3   61   1.238   3.254   8.182
    6DOPE   PO4   62   1.446   3.423   7.970
    6DOPE   GL1   63   1.606   3.127   7.752
    6DOPE   GL2   64   1.891   3.232   7.721
    6DOPE   C1A   65   1.433   2.986   7.359
    6DOPE   D2A   66   1.335   2.949   6.871
    6DOPE   C3A   67   1.449   2.939   6.407
    6DOPE   C4A   68   1.564   2.926   5.923
    6DOPE   C1B   69   1.896   3.143   7.290
    6DOPE   D2B   70   1.842   2.970   6.812
    6DOPE   C3B   71   1.863   3.229   6.419
    6DOPE   C4B   72   1.761   3.690   6.378
    7DOPE   NH3   73   2.686  13.756   8.150
    7DOPE   PO4   74   2.369  13.882   8.098
    7DOPE   GL1   75   2.230  13.806   7.697
    7DOPE   GL2   76   2.462  13.648   7.635
    7DOPE   C1A   77   2.093  13.986   7.315
    7DOPE   D2A   78   2.070   0.013   6.812
    7DOPE   C3A   79   2.405  13.785   6.553
    7DOPE   C4A   80   2.904  13.759   6.506
    7DOPE   C1B   81   2.394  13.284   7.384
    7DOPE   D2B   82   2.516  13.041   6.955
    7DOPE   C3B   83   2.636  13.297   6.562
    7DOPE   C4B   84   2.634  13.560   6.132
    8DOPE   NH3   85   3.194   2.572   8.314
    8DOPE   PO4   86   2.914   2.455   8.157
    8DOPE   GL1   87   3.190   2.392   7.811
    8DOPE   GL2   88   3.297   2.674   7.879
    8DOPE   C1A   89   3.105   2.370   7.353
    8DOPE   D2A   90   3.060   2.247   6.865
    8DOPE   C3A   91   3.126   2.018   6.458
    8DOPE   C4A   92   3.198   1.904   5.972
    8DOPE   C1B   93   3.151   2.848   7.508
    8DOPE   D2B   94   3.094   2.792   7.008
    8DOPE   C3B   95   3.146   2.656   6.565
    8DOPE   C4B   96   3.248   2.400   6.158
    9DOPE   NH3   97   3.253   4.051   8.157
    9DOPE   PO4   98   3.249   4.385   8.066
    9DOPE   GL1   99   3.324   4.346   7.635
    9DOPE   GL2  100   3.044   4.477   7.663
    9DOPE   C1A  101   3.324   4.373   7.189
    9DOPE   D2A  102   3.274   4.514   6.713
    9DOPE   C3A  103   3.313   4.502   6.245
    9DOPE   C4A  104   3.343   4.583   5.751
    9DOPE   C1B  105   2.884   4.612   7.279
    9DOPE   D2B  106   2.735   4.638   6.799
    9DOPE   C3B  107   2.835   4.475   6.370
    9DOPE   C4B  108   2.935   4.330   5.906
   10DOPE   NH3  109   3.176   0.111   8.026
   10DOPE   PO4  110   3.176  13.764   7.980
   10DOPE   GL1  111   3.538  13.895   7.761
   10DOPE   GL2  112   3.628  13.602   7.749
   10DOPE   C1A  113   3.806   0.124   7.466
   10DOPE   D2A  114   3.883   0.395   7.042
   10DOPE   C3A  115   3.596   0.433   6.658
   10DOPE   C4A  116   3.300   0.302   6.267
   10DOPE   C1B  117   3.321  13.319   7.548
   10DOPE   D2B  118   3.013  13.199   7.161
   10DOPE   C3B  119   3.161  13.380   6.743
   10DOPE   C4B  120   3.422  13.721   6.478
   11DOPE   NH3  121   4.073   1.741   8.013
   11DOPE   PO4  122   4.383   1.573   8.003
   11DOPE   GL1  123   4.611   1.848   7.739
   11DOPE   GL2  124   4.319   1.919   7.641
   11DOPE   C1A  125   4.728   1.780   7.333
   11DOPE   D2A  126   4.822   1.604   6.884
   11DOPE   C3A  127   4.788   1.719   6.429
   11DOPE   C4A  128   4.405   1.541   6.221
   11DOPE   C1B  129   4.188   1.743   7.253
   11DOPE   D2B  130   3.931   1.594   6.850
   11DOPE   C3B  131   3.903   1.621   6.385
   11DOPE   C4B  132   4.039   1.785   5.946
   12DOPE   NH3  133   3.650   4.708   8.192
   12DOPE   PO4  134   3.626   4.664   7.847
   12DOPE   GL1  135   3.338   4.813   7.581
   12DOPE   GL2  136   3.346   5.108   7.668
   12DOPE   C1A  137   3.486   4.853   7.167
   12DOPE   D2A  138   3.570   4.936   6.676
   12DOPE   C3A  139   3.507   4.950   6.202
   12DOPE   C4A  140   3.382   5.091   5.730
   12DOPE   C1B  141   3.500   5.375   7.348
   12DOPE   D2B  142   3.631   5.531   6.880
   12DOPE   C3B  143   3.747   5.361   6.445
   12DOPE   C4B  144   3.819   5.243   5.950
   13DOPE   NH3  145   3.897   7.444   8.246
   13DOPE   PO4  146   4.184   7.405   8.026
   13DOPE   GL1  147   4.005   7.173   7.745
   13DOPE   GL2  148   3.721   7.216   7.875
   13DOPE   C1A  149   4.073   7.219   7.305
   13DOPE   D2A  150   4.020   7.201   6.805
   13DOPE   C3A  151   3.985   7.275   6.339
   13DOPE   C4A  152   4.187   7.457   5.922
   13DOPE   C1B  153   3.590   7.283   7.495
   13DOPE   D2B  154   3.626   7.455   7.048
   13DOPE   C3B  155   3.538   7.301   6.621
   13DOPE   C4B  156   3.506   7.351   6.140
   14DOPE   NH3  157   3.763   8.194   8.197
   14DOPE   PO4  158   3.965   7.918   8.134
   14DOPE   GL1  159   3.798   7.667   7.850
   14DOPE   GL2  160   3.634   7.936   7.801
   14DOPE   C1A  161   3.891   7.697   7.447
   14DOPE   D2A  162   3.708   7.981   7.082
   14DOPE   C3A  163   3.662   7.787   6.661
   14DOPE   C4A  164   3.812   7.730   6.190
   14DOPE   C1B  165   3.871   8.214   7.557
   14DOPE   D2B  166   4.256   8.427   7.337
   14DOPE   C3B  167   4.162   8.266   6.913
   14DOPE   C4B  168   3.945   8.154   6.495
   15DOPE   NH3  169   4.956  11.764   8.158
   15DOPE   PO4  170   5.233  11.907   8.009
   15DOPE   GL1  171   5.283  11.628   7.647
   15DOPE   GL2  172   5.576  11.689   7.717
   15DOPE   C1A  173   5.277  11.545   7.176
   15DOPE   D2A  174   5.203  11.589   6.669
   15DOPE   C3A  175   5.337  11.653   6.209
   15DOPE   C4A  176   5.411  11.725   5.708
   15DOPE   C1B  177   5.552  11.927   7.338
   15DOPE   D2B  178   5.189  12.045   6.990
   15DOPE   C3B  179   5.279  12.083   6.512
   15DOPE   C4B  180   5.474  12.110   6.033
   16DOPE   NH3  181   5.144   0.057   8.051
   16DOPE   PO4  182   5.112  13.748   8.191
   16DOPE   GL1  183   5.197  13.624   7.824
   16DOPE   GL2  184   5.416  13.762   7.724
   16DOPE   C1A  185   5.064  13.615   7.415
   16DOPE   D2A  186   5.145  13.640   6.933
   16DOPE   C3A  187   4.998  13.876   6.553
   16DOPE   C4A  188   4.689  13.893   6.175
   16DOPE   C1B  189   5.560  13.497   7.398
   16DOPE   D2B  190   5.618  13.420   6.906
   16DOPE   C3B  191   5.381  13.517   6.508
   16DOPE   C4B  192   5.016  13.483   6.183
   17DOPE   NH3  193   7.075   7.297   8.120
   17DOPE   PO4  194   7.425   7.327   8.150
   17DOPE   GL1  195   7.546   7.213   7.755
   17DOPE   GL2  196   7.312   7.392   7.700
   17DOPE   C1A  197   7.651   7.355   7.359
   17DOPE   D2A  198   7.513   7.397   6.881
   17DOPE   C3A  199   7.706   7.402   6.457
   17DOPE   C4A  200   7.789   7.325   5.967
   17DOPE   C1B  201   7.142   7.412   7.298
   17DOPE   D2B  202   6.938   7.465   6.847
   17DOPE   C3B  203   7.221   7.550   6.482
   17DOPE   C4B  204   7.369   7.647   6.017
   18DOPE   NH3  205   7.001  12.127   8.074
   18DOPE   PO4  206   7.352  12.157   8.082
   18DOPE   GL1  207   7.329  11.851   7.846
   18DOPE   GL2  208   7.054  11.735   7.849
   18DOPE   C1A  209   7.360  11.982   7.428
   18DOPE   D2A  210   7.484  12.094   6.963
   18DOPE   C3A  211   7.491  12.148   6.509
   18DOPE   C4A  212   7.509  12.208   6.036
   18DOPE   C1B  213   6.908  11.706   7.459
   18DOPE   D2B  214   6.835  11.665   6.985
   18DOPE   C3B  215   7.126  11.792   6.648
   18DOPE   C4B  216   7.239  11.797   6.160
   19DOPE   NH3  217   8.067   5.486   8.004
   19DOPE   PO4  218   7.938   5.809   7.945
   19DOPE   GL1  219   8.222   5.844   7.644
   19DOPE   GL2  220   8.383   5.597   7.689
   19DOPE   C1A  221   8.211   5.739   7.219
   19DOPE   D2A  222   8.263   5.315   6.970
   19DOPE   C3A  223   8.280   5.527   6.569
   19DOPE   C4A  224   8.199   5.446   6.102
   19DOPE   C1B  225   8.103   5.306   7.460
   19DOPE   D2B  226   7.790   5.425   7.068
   19DOPE   C3B  227   7.782   5.465   6.581
   19DOPE   C4B  228   7.707   5.432   6.092
   20DOPE   NH3  229   9.412   2.702   8.214
   20DOPE   PO4  230   9.146   2.492   8.125
   20DOPE   GL1  231   9.199   2.443   7.689
   20DOPE   GL2  232   9.493   2.500   7.782
   20DOPE   C1A  233   9.133   2.578   7.271
   20DOPE   D2A  234   8.982   2.773   6.834
   20DOPE   C3A  235   8.983   2.692   6.374
   20DOPE   C4A  236   8.956   2.713   5.867
   20DOPE   C1B  237   9.622   2.758   7.468
   20DOPE   D2B  238   9.889   3.023   7.139
   20DOPE   C3B  239   9.952   2.913   6.692
   20DOPE   C4B  240   9.925   3.269   6.365
   21DOPE   NH3  241  10.176  10.395   8.276
   21DOPE   PO4  242  10.485  10.523   8.210
   21DOPE   GL1  243  10.448  10.320   7.806
   21DOPE   GL2  244  10.196  10.192   7.865
   21DOPE   C1A  245  10.395  10.222   7.373
   21DOPE   D2A  246  10.335  10.140   6.885
   21DOPE   C3A  247  10.263  10.344   6.457
   21DOPE   C4A  248  10.239  10.346   5.959
   21DOPE   C1B  249  10.033   9.917   7.531
   21DOPE   D2B  250   9.934   9.837   7.049
   21DOPE   C3B  251   9.857  10.151   6.700
   21DOPE   C4B  252   9.820  10.281   6.221
   22DOPE   NH3  253  10.326  11.100   8.423
   22DOPE   PO4  254  10.129  10.909   8.200
   22DOPE   GL1  255  10.281  11.053   7.869
   22DOPE   GL2  256  10.386  10.765   7.829
   22DOPE   C1A  257  10.050  11.140   7.512
   22DOPE   D2A  258  10.125  11.133   6.996
   22DOPE   C3A  259  10.203  11.284   6.551
   22DOPE   C4A  260  10.008  11.432   6.116
   22DOPE   C1B  261  10.221  10.676   7.453
   22DOPE   D2B  262  10.365  10.639   6.993
   22DOPE   C3B  263  10.446  10.813   6.574
   22DOPE   C4B  264  10.624  10.623   6.145
   23DOPE   NH3  265  12.409   6.733   8.087
   23DOPE   PO4  266  12.414   6.374   8.055
   23DOPE   GL1  267  12.184   6.296   7.725
   23DOPE   GL2  268  12.127   6.607   7.728
   23DOPE   C1A  269  12.322   6.174   7.326
   23DOPE   D2A  270  12.622   6.101   6.939
   23DOPE   C3A  271  12.541   6.435   6.615
   23DOPE   C4A  272  12.491   6.827   6.310
   23DOPE   C1B  273  12.246   6.763   7.345
   23DOPE   D2B  274  12.053   6.944   6.928
   23DOPE   C3B  275  12.465   7.091   6.763
   23DOPE   C4B  276  12.775   7.274   6.421
   24DOPE   NH3  277  13.500   7.773   8.137
   24DOPE   PO4  278  13.638   8.083   8.066
   24DOPE   GL1  279  13.827   8.048   7.694
   24DOPE   GL2  280   0.008   7.810   7.797
   24DOPE   C1A  281  13.678   7.939   7.280
   24DOPE   D2A  282  13.657   7.713   6.827
   24DOPE   C3A  283  13.441   7.778   6.414
   24DOPE   C4A  284  13.303   8.024   6.001
   24DOPE   C1B  285  13.828   7.534   7.539
   24DOPE   D2B  286  13.647   7.285   7.150
   24DOPE   C3B  287  13.671   7.199   6.696
   24DOPE   C4B  288  13.800   7.436   6.291
   25DOPE   NH3  289  13.454  12.217   8.278
   25DOPE   PO4  290  13.449  11.895   8.121
   25DOPE   GL1  291  13.550  11.846   7.715
   25DOPE   GL2  292  13.437  11.556   7.674
   25DOPE   C1A  293  13.730  12.116   7.384
   25DOPE   D2A  294  13.706  12.427   6.993
   25DOPE   C3A  295  13.658  12.188   6.595
   25DOPE   C4A  296  13.621  11.938   6.180
   25DOPE   C1B  297  13.479  11.496   7.241
   25DOPE   D2B  298  13.483  11.740   6.811
   25DOPE   C3B  299  13.860  11.689   6.563
   25DOPE   C4B  300   0.179  11.756   6.207
   26DOPE   NH3  301  13.797   2.448   8.190
   26DOPE   PO4  302  13.920   2.122   8.163
   26DOPE   GL1  303   0.093   2.252   7.834
   26DOPE   GL2  304  13.970   2.545   7.792
   26DOPE   C1A  305  13.916   2.194   7.458
   26DOPE   D2A  306  13.711   2.381   7.054
   26DOPE   C3A  307  13.670   2.235   6.620
   26DOPE   C4A  308  13.660   1.847   6.324
   26DOPE   C1B  309  13.730   2.683   7.474
   26DOPE   D2B  310  13.284   2.568   7.312
   26DOPE   C3B  311  13.290   2.554   6.848
   26DOPE   C4B  312  13.330   2.529   6.367
   27DVPE   NH3  313   0.098   6.953   8.109
   27DVPE   PO4  314   0.354   6.753   7.970
   27DVPE   GL1  315   0.506   7.065   7.711
   27DVPE   GL2  316   0.277   7.240   7.804
   27DVPE   C1A  317   0.560   7.010   7.276
   27DVPE   C2A  318   0.717   6.983   6.790
   27DVPE   D3A  319   0.609   6.739   6.403
   27DVPE   C4A  320   0.237   6.629   6.105
   27DVPE   C1B  321   0.060   7.107   7.466
   27DVPE   C2B  322   0.065   7.022   6.969
   27DVPE   D3B  323   0.138   6.927   6.515
   27DVPE   C4B  324   0.149   7.137   6.073
   28DVPE   NH3  325   0.382   9.280   8.172
   28DVPE   PO4  326   0.548   9.087   7.942
   28DVPE   GL1  327   0.534   9.486   7.769
   28DVPE   GL2  328   0.244   9.413   7.695
   28DVPE   C1A  329   0.649   9.551   7.364
   28DVPE   C2A  330   0.479   9.458   6.884
   28DVPE   D3A  331   0.237   9.429   6.478
   28DVPE   C4A  332   0.518   9.389   6.097
   28DVPE   C1B  333   0.265   9.217   7.298
   28DVPE   C2B  334   0.103   9.080   6.824
   28DVPE   D3B  335  13.917   9.025   6.391
   28DVPE   C4B  336   0.064   9.195   5.962
   29DVPE   NH3  337   0.781  12.308   7.924
   29DVPE   PO4  338   0.788  12.587   8.151
   29DVPE   GL1  339   0.571  12.715   7.791
   29DVPE   GL2  340   0.323  12.630   7.936
   29DVPE   C1A  341   0.587  12.604   7.350
   29DVPE   C2A  342   0.549  12.572   6.828
   29DVPE   D3A  343   0.520  12.641   6.357
   29DVPE   C4A  344   0.656  13.074   6.408
   29DVPE   C1B  345   0.142  12.484   7.560
   29DVPE   C2B  346   0.117  12.709   7.091
   29DVPE   D3B  347   0.178  12.912   6.663
   29DVPE   C4B  348   0.122  12.941   6.188
   30DVPE   NH3  349   0.542  13.988   7.872
   30DVPE   PO4  350   0.243   0.167   7.804
   30DVPE   GL1  351   0.434   0.466   7.568
   30DVPE   GL2  352   0.715   0.351   7.602
   30DVPE   C1A  353   0.304   0.379   7.148
   30DVPE   C2A  354   0.148   0.215   6.683
   30DVPE   D3A  355  13.927   0.273   6.271
   30DVPE   C4A  356   0.089   0.393   5.829
   30DVPE   C1B  357   0.796   0.283   7.163
   30DVPE   C2B  358   0.668   0.295   6.664
   30DVPE   D3B  359   0.425   0.345   6.254
   30DVPE   C4B  360   0.580   0.209   5.820
   31DVPE   NH3  361   1.278   7.753   8.051
   31DVPE   PO4  362   0.959   7.868   7.945
   31DVPE   GL1  363   0.931   7.732   7.617
   31DVPE   GL2  364   1.156   7.547   7.663
   31DVPE   C1A  365   0.730   7.861   7.267
   31DVPE   C2A  366   0.570   7.953   6.804
   31DVPE   D3A  367   0.537   8.062   6.375
   31DVPE   C4A  368   0.766   7.713   6.195
   31DVPE   C1B  369   1.508   7.732   7.538
   31DVPE   C2B  370   1.386   7.732   7.059
   31DVPE   D3B  371   1.366   7.885   6.639
   31DVPE   C4B  372   1.262   7.704   6.222
   32DVPE   NH3  373   0.994   8.378   7.984
   32DVPE   PO4  374   1.228   8.238   8.205
   32DVPE   GL1  375   1.371   8.136   7.798
   32DVPE   GL2  376   1.458   8.433   7.784
   32DVPE   C1A  377   1.178   8.103   7.384
   32DVPE   C2A  378   1.030   8.184   6.885
   32DVPE   D3A  379   1.036   8.195   6.402
   32DVPE   C4A  380   0.894   8.144   5.947
   32DVPE   C1B  381   1.208   8.613   7.441
   32DVPE   C2B  382   0.980   8.704   6.968
   32DVPE   D3B  383   0.961   8.700   6.493
   32DVPE   C4B  384   1.390   8.530   6.573
   33DVPE   NH3  385   0.985  11.575   8.137
   33DVPE   PO4  386   1.078  11.884   7.996
   33DVPE   GL1  387   1.331  11.596   7.798
   33DVPE   GL2  388   1.494  11.823   7.673
   33DVPE   C1A  389   1.084  11.505   7.445
   33DVPE   C2A  390   1.108  11.605   6.957
   33DVPE   D3A  391   1.330  11.946   6.725
   33DVPE   C4A  392   1.417  11.658   6.368
   33DVPE   C1B  393   1.313  11.940   7.279
   33DVPE   C2B  394   1.029  12.269   6.983
   33DVPE   D3B  395   0.890  12.334   6.537
   33DVPE   C4B  396   1.157  12.077   6.242
   34DVPE   NH3  397   1.049  13.027   8.108
   34DVPE   PO4  398   1.334  12.824   8.131
   34DVPE   GL1  399   1.195  12.530   7.872
   34DVPE   GL2  400   1.005  12.710   7.741
   34DVPE   C1A  401   1.370  12.362   7.520
   34DVPE   C2A  402   1.490  12.443   7.041
   34DVPE   D3A  403   1.376  12.442   6.599
   34DVPE   C4A  404   1.223  12.636   6.205
   34DVPE   C1B  405   1.075  12.740   7.299
   34DVPE   C2B  406   1.057  12.802   6.787
   34DVPE   D3B  407   1.159  13.094   6.434
   34DVPE   C4B  408   0.957  13.274   6.026
   35DVPE   NH3  409   1.160   2.089   7.994
   35DVPE   PO4  410   1.158   2.372   7.806
   35DVPE   GL1  411   0.890   2.164   7.608
   35DVPE   GL2  412   0.899   1.888   7.666
   35DVPE   C1A  413   0.905   2.038   7.212
   35DVPE   C2A  414   0.963   2.143   6.741
   35DVPE   D3A  415   0.903   2.340   6.341
   35DVPE   C4A  416   0.939   2.392   5.880
   35DVPE   C1B  417   0.630   1.645   7.411
   35DVPE   C2B  418   0.540   1.755   6.901
   35DVPE   D3B  419   0.548   1.995   6.492
   35DVPE   C4B  420   0.719   1.952   6.046
   36DVPE   NH3  421   2.288   6.223   8.035
   36DVPE   PO4  422   1.976   6.393   7.999
   36DVPE   GL1  423   2.022   6.328   7.628
   36DVPE   GL2  424   2.268   6.198   7.560
   36DVPE   C1A  425   1.778   6.391   7.289
   36DVPE   C2A  426   1.687   6.416   6.796
   36DVPE   D3A  427   1.949   6.489   6.423
   36DVPE   C4A  428   2.125   6.166   6.112
   36DVPE   C1B  429   2.227   6.174   7.112
   36DVPE   C2B  430   2.057   6.007   6.648
   36DVPE   D3B  431   1.960   5.723   6.283
   36DVPE   C4B  432   2.016   5.755   5.806
   37DVPE   NH3  433   1.791   9.353   7.905
   37DVPE   PO4  434   1.966   9.104   8.078
   37DVPE   GL1  435   1.985   8.900   7.756
   37DVPE   GL2  436   1.878   8.635   7.827
   37DVPE   C1A  437   1.858   9.123   7.387
   37DVPE   C2A  438   1.908   9.067   6.892
   37DVPE   D3A  439   1.876   8.712   6.613
   37DVPE   C4A  440   2.011   9.064   6.319
   37DVPE   C1B  441   1.730   8.615   7.427
   37DVPE   C2B  442   1.491   8.799   7.021
   37DVPE   D3B  443   1.291   9.040   6.685
   37DVPE   C4B  444   1.524   8.937   6.284
   38DVPE   NH3  445   1.908   9.675   8.276
   38DVPE   PO4  446   2.162   9.910   8.225
   38DVPE   GL1  447   2.034   9.838   7.836
   38DVPE   GL2  448   1.749   9.836   7.856
   38DVPE   C1A  449   2.083   9.592   7.475
   38DVPE   C2A  450   1.979   9.581   6.976
   38DVPE   D3A  451   1.961   9.797   6.554
   38DVPE   C4A  452   1.854   9.941   6.100
   38DVPE   C1B  453   1.557   9.632   7.493
   38DVPE   C2B  454   1.501   9.375   7.037
   38DVPE   D3B  455   1.657   9.381   6.573
   38DVPE   C4B  456   1.687   9.429   6.083
   39DVPE   NH3  457   2.040  10.817   7.994
   39DVPE   PO4  458   1.885  11.048   8.222
   39DVPE   GL1  459   1.623  11.019   7.872
   39DVPE   GL2  460   1.679  11.306   7.803
   39DVPE   C1A  461   1.784  10.962   7.455
   39DVPE   C2A  462   1.914  11.021   6.957
   39DVPE   D3A  463   2.042  10.842   6.538
   39DVPE   C4A  464   1.899  10.993   6.110
   39DVPE   C1B  465   1.634  11.490   7.396
   39DVPE   C2B  466   1.628  11.553   6.882
   39DVPE   D3B  467   1.757  11.273   6.510
   39DVPE   C4B  468   1.746  11.461   6.059
   40DVPE   NH3  469   1.961   0.122   7.929
   40DVPE   PO4  470   1.806  13.811   7.892
   40DVPE   GL1  471   1.491   0.024   7.730
   40DVPE   GL2  472   1.511   0.272   7.903
   40DVPE   C1A  473   1.583  13.986   7.271
   40DVPE   C2A  474   1.559  13.928   6.746
   40DVPE   D3A  475   1.605  13.976   6.267
   40DVPE   C4A  476   1.914   0.035   5.880
   40DVPE   C1B  477   1.721   0.442   7.559
   40DVPE   C2B  478   1.812   0.400   7.053
   40DVPE   D3B  479   1.740   0.364   6.599
   40DVPE   C4B  480   1.735   0.452   6.134
   41DVPE   NH3  481   1.654   1.055   7.873
   41DVPE   PO4  482   1.496   1.322   7.702
   41DVPE   GL1  483   1.318   1.060   7.487
   41DVPE   GL2  484   1.364   0.789   7.639
   41DVPE   C1A  485   1.291   1.143   7.038
   41DVPE   C2A  486   1.282   1.185   6.508
   41DVPE   D3A  487   1.427   1.199   6.043
   41DVPE   C4A  488   1.789   0.896   5.918
   41DVPE   C1B  489   1.438   0.693   7.234
   41DVPE   C2B  490   1.461   0.757   6.737
   41DVPE   D3B  491   1.722   0.928   6.403
   41DVPE   C4B  492   1.324   0.751   6.198
   42DVPE   NH3  493   1.638   2.671   8.054
   42DVPE   PO4  494   1.340   2.817   7.973
   42DVPE   GL1  495   1.503   2.608   7.602
   42DVPE   GL2  496   1.788   2.751   7.631
   42DVPE   C1A  497   1.382   2.512   7.162
   42DVPE   C2A  498   1.335   2.496   6.633
   42DVPE   D3A  499   1.363   2.503   6.154
   42DVPE   C4A  500   1.407   2.304   5.697
   42DVPE   C1B  501   1.876   2.623   7.236
   42DVPE   C2B  502   1.777   2.331   6.829
   42DVPE   D3B  503   1.794   2.272   6.365
   42DVPE   C4B  504   1.820   2.467   5.931
   43DVPE   NH3  505   2.447   2.713   8.031
   43DVPE   PO4  506   2.167   2.899   7.916
   43DVPE   GL1  507   2.292   3.005   7.538
   43DVPE   GL2  508   2.580   2.971   7.643
   43DVPE   C1A  509   2.281   2.917   7.083
   43DVPE   C2A  510   2.174   2.601   6.690
   43DVPE   D3A  511   1.930   2.750   6.325
   43DVPE   C4A  512   2.376   2.696   6.186
   43DVPE   C1B  513   2.694   2.765   7.288
   43DVPE   C2B  514   2.670   2.590   6.809
   43DVPE   D3B  515   2.737   2.379   6.406
   43DVPE   C4B  516   2.874   2.749   6.137
   44DVPE   NH3  517   2.476   5.858   8.339
   44DVPE   PO4  518   2.652   5.652   8.123
   44DVPE   GL1  519   2.549   5.936   7.796
   44DVPE   GL2  520   2.296   5.790   7.799
   44DVPE   C1A  521   2.618   5.930   7.365
   44DVPE   C2A  522   2.532   5.825   6.872
   44DVPE   D3A  523   2.482   5.792   6.412
   44DVPE   C4A  524   2.481   5.595   5.995
   44DVPE   C1B  525   2.242   5.597   7.399
   44DVPE   C2B  526   2.233   5.403   6.914
   44DVPE   D3B  527   2.272   5.325   6.437
   44DVPE   C4B  528   2.047   5.290   6.007
   45DVPE   NH3  529   2.742   6.633   8.154
   45DVPE   PO4  530   2.556   6.880   7.987
   45DVPE   GL1  531   2.359   6.595   7.769
   45DVPE   GL2  532   2.620   6.430   7.745
   45DVPE   C1A  533   2.261   6.645   7.344
   45DVPE   C2A  534   2.443   6.856   6.907
   45DVPE   D3A  535   2.409   7.050   6.493
   45DVPE   C4A  536   2.372   6.668   6.218
   45DVPE   C1B  537   2.767   6.602   7.355
   45DVPE   C2B  538   2.674   6.392   6.905
   45DVPE   D3B  539   2.464   6.281   6.517
   45DVPE   C4B  540   2.641   6.172   6.084
   46DVPE   NH3  541   2.119   7.385   8.082
   46DVPE   PO4  542   2.479   7.405   8.102
   46DVPE   GL1  543   2.666   7.430   7.762
   46DVPE   GL2  544   2.687   7.169   7.661
   46DVPE   C1A  545   2.460   7.614   7.435
   46DVPE   C2A  546   2.363   7.802   6.974
   46DVPE   D3A  547   2.266   7.740   6.530
   46DVPE   C4A  548   2.177   7.409   6.180
   46DVPE   C1B  549   2.675   7.173   7.233
   46DVPE   C2B  550   2.625   7.401   6.781
   46DVPE   D3B  551   2.661   7.490   6.323
   46DVPE   C4B  552   2.712   7.064   6.103
   47DVPE   NH3  553   2.183   8.650   8.190
   47DVPE   PO4  554   2.487   8.644   8.030
   47DVPE   GL1  555   2.292   8.566   7.711
   47DVPE   GL2  556   2.346   8.270   7.793
   47DVPE   C1A  557   2.253   8.754   7.320
   47DVPE   C2A  558   2.371   8.823   6.823
   47DVPE   D3A  559   2.337   8.676   6.389
   47DVPE   C4A  560   2.277   8.806   5.939
   47DVPE   C1B  561   2.628   8.098   7.526
   47DVPE   C2B  562   2.696   8.219   7.045
   47DVPE   D3B  563   2.741   8.464   6.671
   47DVPE   C4B  564   2.580   8.258   6.288
   48DVPE   NH3  565   2.500   9.590   8.417
   48DVPE   PO4  566   2.769   9.771   8.259
   48DVPE   GL1  567   2.683   9.725   7.858
   48DVPE   GL2  568   2.474   9.931   7.872
   48DVPE   C1A  569   2.612   9.541   7.477
   48DVPE   C2A  570   2.689   9.577   6.977
   48DVPE   D3A  571   2.787   9.444   6.543
   48DVPE   C4A  572   2.663   9.643   6.147
   48DVPE   C1B  573   2.279  10.056   7.511
   48DVPE   C2B  574   2.280   9.998   7.008
   48DVPE   D3B  575   2.459   9.854   6.604
   48DVPE   C4B  576   2.366  10.074   6.197
   49DVPE   NH3  577   2.889  10.573   8.113
   49DVPE   PO4  578   2.583  10.722   8.032
   49DVPE   GL1  579   2.571  10.377   7.784
   49DVPE   GL2  580   2.267  10.379   7.855
   49DVPE   C1A  581   2.722  10.245   7.389
   49DVPE   C2A  582   2.691  10.290   6.885
   49DVPE   D3A  583   2.752  10.707   6.711
   49DVPE   C4A  584   2.448  10.588   6.368
   49DVPE   C1B  585   2.264  10.576   7.460
   49DVPE   C2B  586   2.250  10.577   6.950
   49DVPE   D3B  587   2.119  10.298   6.598
   49DVPE   C4B  588   1.962  10.449   6.163
   50DVPE   NH3  589   2.402  11.186   8.088
   50DVPE   PO4  590   2.163  11.309   7.868
   50DVPE   GL1  591   2.382  10.994   7.654
   50DVPE   GL2  592   2.622  11.196   7.659
   50DVPE   C1A  593   2.357  11.032   7.218
   50DVPE   C2A  594   2.432  11.116   6.717
   50DVPE   D3A  595   2.274  11.316   6.323
   50DVPE   C4A  596   2.382  10.950   6.034
   50DVPE   C1B  597   2.639  11.476   7.303
   50DVPE   C2B  598   2.633  11.595   6.800
   50DVPE   D3B  599   2.771  11.559   6.340
   50DVPE   C4B  600   2.645  11.362   5.931
   51DVPE   NH3  601   2.462  11.907   8.135
   51DVPE   PO4  602   2.568  11.635   7.934
   51DVPE   GL1  603   2.648  11.875   7.580
   51DVPE   GL2  604   2.499  12.091   7.705
   51DVPE   C1A  605   2.679  11.995   7.146
   51DVPE   C2A  606   2.703  12.072   6.637
   51DVPE   D3A  607   2.903  12.014   6.206
   51DVPE   C4A  608   2.984  11.737   5.806
   51DVPE   C1B  609   2.249  12.140   7.354
   51DVPE   C2B  610   2.246  11.977   6.854
   51DVPE   D3B  611   2.359  11.830   6.399
   51DVPE   C4B  612   2.498  11.855   5.932
   52DVPE   NH3  613   2.584  12.782   8.311
   52DVPE   PO4  614   2.479  12.904   7.990
   52DVPE   GL1  615   2.185  12.775   7.752
   52DVPE   GL2  616   2.294  12.488   7.702
   52DVPE   C1A  617   1.932  13.005   7.485
   52DVPE   C2A  618   2.002  13.147   7.010
   52DVPE   D3A  619   2.152  13.056   6.581
   52DVPE   C4A  620   2.533  12.800   6.464
   52DVPE   C1B  621   2.648  12.448   7.423
   52DVPE   C2B  622   2.597  12.497   6.916
   52DVPE   D3B  623   2.260  12.408   6.596
   52DVPE   C4B  624   2.489  12.293   6.203
   53DVPE   NH3  625   3.116   5.932   8.105
   53DVPE   PO4  626   2.827   6.141   8.102
   53DVPE   GL1  627   3.040   6.363   7.874
   53DVPE   GL2  628   3.252   6.529   7.931
   53DVPE   C1A  629   3.022   6.189   7.471
   53DVPE   C2A  630   2.994   6.008   6.994
   53DVPE   D3A  631   2.962   5.752   6.603
   53DVPE   C4A  632   2.958   5.780   6.128
   53DVPE   C1B  633   3.408   6.493   7.532
   53DVPE   C2B  634   3.423   6.466   7.038
   53DVPE   D3B  635   3.288   6.544   6.607
   53DVPE   C4B  636   2.989   6.224   6.445
   54DVPE   NH3  637   3.176   6.900   8.220
   54DVPE   PO4  638   3.356   7.202   8.174
   54DVPE   GL1  639   3.276   7.144   7.816
   54DVPE   GL2  640   3.430   6.910   7.727
   54DVPE   C1A  641   3.090   7.327   7.474
   54DVPE   C2A  642   3.115   7.319   6.967
   54DVPE   D3A  643   3.039   7.221   6.522
   54DVPE   C4A  644   3.213   7.657   6.428
   54DVPE   C1B  645   3.257   6.900   7.304
   54DVPE   C2B  646   2.964   6.829   6.902
   54DVPE   D3B  647   2.786   6.702   6.499
   54DVPE   C4B  648   3.140   6.838   6.230
   55DVPE   NH3  649   3.267   9.613   8.315
   55DVPE   PO4  650   3.494   9.501   8.090
   55DVPE   GL1  651   3.135   9.659   7.858
   55DVPE   GL2  652   3.182   9.371   7.757
   55DVPE   C1A  653   3.036   9.836   7.448
   55DVPE   C2A  654   3.055   9.941   6.946
   55DVPE   D3A  655   2.945   9.942   6.482
   55DVPE   C4A  656   3.197   9.709   6.133
   55DVPE   C1B  657   3.114   9.372   7.319
   55DVPE   C2B  658   3.193   9.463   6.825
   55DVPE   D3B  659   3.273   9.292   6.409
   55DVPE   C4B  660   3.243   8.850   6.231
   56DVPE   NH3  661   3.257  10.880   8.260
   56DVPE   PO4  662   3.416  11.000   7.993
   56DVPE   GL1  663   3.178  10.999   7.696
   56DVPE   GL2  664   2.948  10.851   7.762
   56DVPE   C1A  665   3.251  10.885   7.293
   56DVPE   C2A  666   3.254  10.876   6.783
   56DVPE   D3A  667   3.368  11.090   6.396
   56DVPE   C4A  668   3.709  11.363   6.190
   56DVPE   C1B  669   2.756  10.764   7.392
   56DVPE   C2B  670   2.853  11.101   7.033
   56DVPE   D3B  671   3.032  11.320   6.684
   56DVPE   C4B  672   2.810  11.050   6.345
   57DVPE   NH3  673   3.085  13.069   8.060
   57DVPE   PO4  674   2.947  12.839   7.845
   57DVPE   GL1  675   3.184  12.629   7.601
   57DVPE   GL2  676   3.176  12.366   7.759
   57DVPE   C1A  677   3.067  12.692   7.184
   57DVPE   C2A  678   2.949  12.903   6.730
   57DVPE   D3A  679   2.980  13.005   6.266
   57DVPE   C4A  680   3.313  13.029   5.898
   57DVPE   C1B  681   3.130  12.205   7.348
   57DVPE   C2B  682   3.089  12.314   6.849
   57DVPE   D3B  683   2.906  12.478   6.451
   57DVPE   C4B  684   3.149  12.563   6.074
   58DVPE   NH3  685   3.602   2.317   8.043
   58DVPE   PO4  686   3.918   2.256   8.178
   58DVPE   GL1  687   4.140   2.515   7.910
   58DVPE   GL2  688   3.865   2.676   7.882
   58DVPE   C1A  689   4.058   2.343   7.525
   58DVPE   C2A  690   3.956   2.195   7.057
   58DVPE   D3A  691   3.967   2.062   6.626
   58DVPE   C4A  692   4.293   2.415   6.703
   58DVPE   C1B  693   3.584   2.555   7.526
   58DVPE   C2B  694   3.504   2.489   7.011
   58DVPE   D3B  695   3.559   2.359   6.561
   58DVPE   C4B  696   3.978   2.435   6.297
   59DVPE   NH3  697   3.733   3.895   8.252
   59DVPE   PO4  698   3.725   4.231   8.218
   59DVPE   GL1  699   3.816   4.214   7.801
   59DVPE   GL2  700   3.585   4.036   7.805
   59DVPE   C1A  701   3.818   4.312   7.359
   59DVPE   C2A  702   3.765   4.380   6.854
   59DVPE   D3A  703   3.802   4.539   6.418
   59DVPE   C4A  704   3.802   4.513   5.940
   59DVPE   C1B  705   3.490   3.928   7.381
   59DVPE   C2B  706   3.435   3.979   6.868
   59DVPE   D3B  707   3.566   4.083   6.436
   59DVPE   C4B  708   3.464   4.123   5.971
   60DVPE   NH3  709   3.960   6.944   8.152
   60DVPE   PO4  710   3.651   6.773   8.123
   60DVPE   GL1  711   3.851   6.738   7.735
   60DVPE   GL2  712   3.800   6.446   7.754
   60DVPE   C1A  713   3.761   6.817   7.304
   60DVPE   C2A  714   3.665   6.840   6.791
   60DVPE   D3A  715   3.634   6.882   6.315
   60DVPE   C4A  716   3.472   6.589   5.964
   60DVPE   C1B  717   3.848   6.315   7.349
   60DVPE   C2B  718   3.979   6.422   6.867
   60DVPE   D3B  719   4.073   6.700   6.497
   60DVPE   C4B  720   3.714   6.375   6.401
   61DVPE   NH3  721   3.770  11.722   8.104
   61DVPE   PO4  722   3.979  11.925   7.909
   61DVPE   GL1  723   4.000  12.369   7.843
   61DVPE   GL2  724   3.710  12.346   7.932
   61DVPE   C1A  725   4.170  12.390   7.427
   61DVPE   C2A  726   4.327  12.203   6.967
   61DVPE   D3A  727   4.207  12.046   6.536
   61DVPE   C4A  728   3.754  11.891   6.428
   61DVPE   C1B  729   3.589  12.386   7.515
   61DVPE   C2B  730   3.573  12.468   7.002
   61DVPE   D3B  731   3.775  12.374   6.579
   61DVPE   C4B  732   3.730  12.281   6.105
   62DVPE   NH3  733   4.195  12.761   8.148
   62DVPE   PO4  734   3.907  12.946   8.083
   62DVPE   GL1  735   3.827  12.749   7.718
   62DVPE   GL2  736   4.113  12.784   7.673
   62DVPE   C1A  737   3.543  12.871   7.404
   62DVPE   C2A  738   3.424  12.966   6.926
   62DVPE   D3A  739   3.357  12.685   6.566
   62DVPE   C4A  740   3.616  12.749   6.204
   62DVPE   C1B  741   4.284  13.128   7.452
   62DVPE   C2B  742   4.092  13.094   6.985
   62DVPE   D3B  743   3.856  12.866   6.659
   62DVPE   C4B  744   3.962  13.159   6.318
   63DVPE   NH3  745   4.329  13.284   8.062
   63DVPE   PO4  746   4.014  13.449   8.087
   63DVPE   GL1  747   3.980  13.292   7.752
   63DVPE   GL2  748   3.760  13.177   7.670
   63DVPE   C1A  749   4.060  13.614   7.479
   63DVPE   C2A  750   3.971  13.798   7.025
   63DVPE   D3A  751   3.893   0.022   6.639
   63DVPE   C4A  752   3.912  13.654   6.340
   63DVPE   C1B  753   3.726  13.321   7.248
   63DVPE   C2B  754   3.702  13.366   6.741
   63DVPE   D3B  755   3.469  13.199   6.374
   63DVPE   C4B  756   3.633  13.417   5.969
   64DVPE   NH3  757   4.524   6.349   7.989
   64DVPE   PO4  758   4.804   6.322   7.781
   64DVPE   GL1  759   4.544   6.559   7.529
   64DVPE   GL2  760   4.279   6.441   7.608
   64DVPE   C1A  761   4.448   6.521   7.100
   64DVPE   C2A  762   4.442   6.376   6.608
   64DVPE   D3A  763   4.457   6.505   6.163
   64DVPE   C4A  764   4.654   6.573   5.730
   64DVPE   C1B  765   4.305   6.094   7.339
   64DVPE   C2B  766   4.421   5.929   6.882
   64DVPE   D3B  767   4.386   5.817   6.443
   64DVPE   C4B  768   4.128   6.142   6.229
   65DVPE   NH3  769   4.970   8.662   7.964
   65DVPE   PO4  770   4.641   8.635   8.104
   65DVPE   GL1  771   4.526   8.542   7.723
   65DVPE   GL2  772   4.267   8.727   7.717
   65DVPE   C1A  773   4.764   8.542   7.352
   65DVPE   C2A  774   4.684   8.398   6.863
   65DVPE   D3A  775   4.448   8.350   6.459
   65DVPE   C4A  776   4.819   8.559   6.240
   65DVPE   C1B  777   4.393   8.915   7.321
   65DVPE   C2B  778   4.634   8.929   6.868
   65DVPE   D3B  779   4.651   9.016   6.417
   65DVPE   C4B  780   4.408   8.791   6.091
   66DVPE   NH3  781   4.452  10.437   7.968
   66DVPE   PO4  782   4.736  10.230   7.898
   66DVPE   GL1  783   4.460  10.246   7.551
   66DVPE   GL2  784   4.228  10.100   7.694
   66DVPE   C1A  785   4.551  10.267   7.120
   66DVPE   C2A  786   4.656  10.493   6.667
   66DVPE   D3A  787   4.638  10.454   6.205
   66DVPE   C4A  788   4.630   9.965   6.189
   66DVPE   C1B  789   4.407   9.782   7.460
   66DVPE   C2B  790   4.766   9.794   7.083
   66DVPE   D3B  791   4.605   9.971   6.680
   66DVPE   C4B  792   4.259   9.725   6.426
   67DVPE   NH3  793   4.652  10.905   8.087
   67DVPE   PO4  794   4.945  11.095   8.097
   67DVPE   GL1  795   4.817  11.427   7.873
   67DVPE   GL2  796   4.519  11.327   7.858
   67DVPE   C1A  797   4.866  11.445   7.454
   67DVPE   C2A  798   4.854  11.314   6.960
   67DVPE   D3A  799   4.769  11.046   6.593
   67DVPE   C4A  800   5.028  10.719   6.369
   67DVPE   C1B  801   4.343  11.354   7.446
   67DVPE   C2B  802   4.311  11.176   6.957
   67DVPE   D3B  803   4.279  10.877   6.594
   67DVPE   C4B  804   4.219  11.195   6.241
   68DVPE   NH3  805   4.394  13.800   8.140
   68DVPE   PO4  806   4.636   0.044   8.117
   68DVPE   GL1  807   4.774   0.199   7.767
   68DVPE   GL2  808   4.847  13.897   7.724
   68DVPE   C1A  809   4.714   0.113   7.349
   68DVPE   C2A  810   4.671  13.820   6.947
   68DVPE   D3A  811   4.358  13.733   6.617
   68DVPE   C4A  812   4.237   0.048   6.273
   68DVPE   C1B  813   4.570  13.619   7.463
   68DVPE   C2B  814   4.556  13.331   7.032
   68DVPE   D3B  815   4.788  13.396   6.631
   68DVPE   C4B  816   4.518  13.428   6.239
   69DVPE   NH3  817   4.597   2.574   8.099
   69DVPE   PO4  818   4.924   2.687   8.056
   69DVPE   GL1  819   4.754   2.901   7.723
   69DVPE   GL2  820   4.507   2.767   7.712
   69DVPE   C1A  821   4.739   3.106   7.337
   69DVPE   C2A  822   4.693   3.290   6.857
   69DVPE   D3A  823   4.716   3.416   6.399
   69DVPE   C4A  824   4.725   2.997   6.161
   69DVPE   C1B  825   4.397   2.681   7.325
   69DVPE   C2B  826   4.323   2.912   6.863
   69DVPE   D3B  827   4.244   2.910   6.392
   69DVPE   C4B  828   3.900   3.179   6.178
   70DVPE   NH3  829   4.356   3.510   8.076
   70DVPE   PO4  830   4.486   3.174   8.030
   70DVPE   GL1  831   4.177   3.037   7.752
   70DVPE   GL2  832   4.079   3.317   7.758
   70DVPE   C1A  833   4.224   3.139   7.333
   70DVPE   C2A  834   4.242   3.509   6.987
   70DVPE   D3A  835   4.236   3.395   6.541
   70DVPE   C4A  836   4.228   3.661   6.147
   70DVPE   C1B  837   4.312   3.599   7.503
   70DVPE   C2B  838   4.632   3.787   7.145
   70DVPE   D3B  839   4.499   3.828   6.696
   70DVPE   C4B  840   4.022   3.865   6.576
   71DVPE   NH3  841   5.013   6.527   8.190
   71DVPE   PO4  842   5.342   6.607   8.087
   71DVPE   GL1  843   5.290   6.757   7.705
   71DVPE   GL2  844   5.499   6.976   7.748
   71DVPE   C1A  845   5.226   6.578   7.289
   71DVPE   C2A  846   4.911   6.347   6.940
   71DVPE   D3A  847   4.855   6.094   6.543
   71DVPE   C4A  848   5.176   6.448   6.508
   71DVPE   C1B  849   5.729   6.885   7.380
   71DVPE   C2B  850   5.833   6.652   6.939
   71DVPE   D3B  851   5.679   6.348   6.619
   71DVPE   C4B  852   5.563   6.607   6.232
   72DVPE   NH3  853   5.210   7.093   8.133
   72DVPE   PO4  854   5.385   7.387   8.055
   72DVPE   GL1  855   5.043   7.396   7.793
   72DVPE   GL2  856   5.095   7.151   7.691
   72DVPE   C1A  857   5.132   7.575   7.421
   72DVPE   C2A  858   5.015   7.419   6.962
   72DVPE   D3A  859   4.906   7.276   6.550
   72DVPE   C4A  860   5.030   7.303   6.092
   72DVPE   C1B  861   5.249   7.085   7.298
   72DVPE   C2B  862   5.284   6.900   6.825
   72DVPE   D3B  863   5.225   6.935   6.365
   72DVPE   C4B  864   5.241   6.789   5.889
   73DVPE   NH3  865   5.393   7.982   8.309
   73DVPE   PO4  866   5.169   8.248   8.261
   73DVPE   GL1  867   5.296   8.330   7.866
   73DVPE   GL2  868   5.515   8.129   7.873
   73DVPE   C1A  869   5.133   8.197   7.473
   73DVPE   C2A  870   5.106   8.006   6.990
   73DVPE   D3A  871   5.134   7.804   6.562
   73DVPE   C4A  872   4.802   8.029   6.295
   73DVPE   C1B  873   5.526   7.878   7.495
   73DVPE   C2B  874   5.465   7.639   7.027
   73DVPE   D3B  875   5.409   7.374   6.639
   73DVPE   C4B  876   5.450   7.577   6.227
   74DVPE   NH3  877   5.500   8.622   8.403
   74DVPE   PO4  878   5.667   8.400   8.221
   74DVPE   GL1  879   5.689   8.594   7.873
   74DVPE   GL2  880   5.436   8.765   7.914
   74DVPE   C1A  881   5.680   8.367   7.511
   74DVPE   C2A  882   5.612   8.140   7.069
   74DVPE   D3A  883   5.546   8.124   6.624
   74DVPE   C4A  884   5.125   8.333   6.574
   74DVPE   C1B  885   5.265   8.697   7.502
   74DVPE   C2B  886   5.152   8.655   6.997
   74DVPE   D3B  887   5.114   8.865   6.574
   74DVPE   C4B  888   5.066   8.990   6.104
   75DVPE   NH3  889   5.297  10.287   8.064
   75DVPE   PO4  890   5.625  10.177   8.142
   75DVPE   GL1  891   5.565  10.091   7.748
   75DVPE   GL2  892   5.484   9.849   7.653
   75DVPE   C1A  893   5.609  10.320   7.409
   75DVPE   C2A  894   5.564  10.199   6.936
   75DVPE   D3A  895   5.524  10.106   6.494
   75DVPE   C4A  896   5.758  10.448   6.245
   75DVPE   C1B  897   5.247   9.956   7.296
   75DVPE   C2B  898   5.054  10.178   6.870
   75DVPE   D3B  899   5.027  10.208   6.412
   75DVPE   C4B  900   5.318  10.299   6.043
   76DVPE   NH3  901   5.324  11.415   8.083
   76DVPE   PO4  902   5.468  11.101   8.063
   76DVPE   GL1  903   5.525  11.241   7.700
   76DVPE   GL2  904   5.197  11.198   7.687
   76DVPE   C1A  905   5.592  11.160   7.304
   76DVPE   C2A  906   5.428  11.138   6.826
   76DVPE   D3A  907   5.271  11.158   6.387
   76DVPE   C4A  908   5.207  11.240   5.906
   76DVPE   C1B  909   5.095  11.003   7.314
   76DVPE   C2B  910   5.092  10.728   6.887
   76DVPE   D3B  911   5.433  10.586   6.616
   76DVPE   C4B  912   5.742  10.914   6.483
   77DVPE   NH3  913   5.257   0.470   8.340
   77DVPE   PO4  914   4.946   0.516   8.178
   77DVPE   GL1  915   5.165   0.611   7.852
   77DVPE   GL2  916   5.370   0.398   7.860
   77DVPE   C1A  917   4.939   0.529   7.496
   77DVPE   C2A  918   4.718   0.516   7.025
   77DVPE   D3A  919   4.658   0.732   6.619
   77DVPE   C4A  920   4.987   0.824   6.283
   77DVPE   C1B  921   5.228   0.122   7.519
   77DVPE   C2B  922   5.107   0.160   7.024
   77DVPE   D3B  923   5.080   0.430   6.655
   77DVPE   C4B  924   4.971   0.298   6.226
   78DVPE   NH3  925   4.928   2.167   8.099
   78DVPE   PO4  926   5.245   2.286   8.187
   78DVPE   GL1  927   5.304   2.187   7.823
   78DVPE   GL2  928   5.580   2.200   7.783
   78DVPE   C1A  929   5.070   2.137   7.460
   78DVPE   C2A  930   4.915   2.162   6.973
   78DVPE   D3A  931   4.796   2.223   6.529
   78DVPE   C4A  932   4.890   2.131   6.071
   78DVPE   C1B  933   5.497   1.848   7.534
   78DVPE   C2B  934   5.247   1.766   7.112
   78DVPE   D3B  935   5.206   1.858   6.660
   78DVPE   C4B  936   5.293   2.195   6.359
   79DVPE   NH3  937   5.353   3.558   8.158
   79DVPE   PO4  938   5.165   3.751   7.940
   79DVPE   GL1  939   5.196   3.454   7.652
   79DVPE   GL2  940   5.443   3.334   7.770
   79DVPE   C1A  941   5.080   3.489   7.220
   79DVPE   C2A  942   5.017   3.672   6.730
   79DVPE   D3A  943   5.126   3.752   6.267
   79DVPE   C4A  944   5.004   3.996   5.858
   79DVPE   C1B  945   5.649   3.293   7.422
   79DVPE   C2B  946   5.642   3.196   6.935
   79DVPE   D3B  947   5.407   3.380   6.594
   79DVPE   C4B  948   5.564   3.506   6.184
   80DVPE   NH3  949   6.221   7.100   8.168
   80DVPE   PO4  950   6.157   6.952   7.867
   80DVPE   GL1  951   6.048   7.359   7.795
   80DVPE   GL2  952   5.777   7.307   7.819
   80DVPE   C1A  953   6.133   7.363   7.367
   80DVPE   C2A  954   6.214   6.985   7.075
   80DVPE   D3A  955   6.196   7.054   6.625
   80DVPE   C4A  956   6.100   7.000   6.150
   80DVPE   C1B  957   5.639   7.384   7.426
   80DVPE   C2B  958   5.752   7.196   6.955
   80DVPE   D3B  959   5.707   6.962   6.541
   80DVPE   C4B  960   5.593   7.122   6.084
   81DVPE   NH3  961   6.107   9.091   8.237
   81DVPE   PO4  962   5.808   8.939   8.152
   81DVPE   GL1  963   5.871   9.072   7.817
   81DVPE   GL2  964   6.144   9.165   7.759
   81DVPE   C1A  965   5.740   8.874   7.479
   81DVPE   C2A  966   5.711   8.651   7.031
   81DVPE   D3A  967   5.727   8.602   6.577
   81DVPE   C4A  968   5.556   8.956   6.314
   81DVPE   C1B  969   6.224   8.964   7.361
   81DVPE   C2B  970   6.211   8.787   6.865
   81DVPE   D3B  971   6.187   8.736   6.395
   81DVPE   C4B  972   5.931   8.859   6.007
   82DVPE   NH3  973   6.133  10.315   8.157
   82DVPE   PO4  974   6.258  10.082   7.934
   82DVPE   GL1  975   6.126  10.381   7.653
   82DVPE   GL2  976   5.857  10.413   7.802
   82DVPE   C1A  977   6.096  10.262   7.216
   82DVPE   C2A  978   5.993   9.962   6.813
   82DVPE   D3A  979   6.030  10.050   6.365
   82DVPE   C4A  980   6.393  10.242   6.619
   82DVPE   C1B  981   5.750  10.768   7.572
   82DVPE   C2B  982   5.740  10.728   7.054
   82DVPE   D3B  983   5.942  10.481   6.714
   82DVPE   C4B  984   6.234  10.664   6.381
   83DVPE   NH3  985   5.933  11.150   8.229
   83DVPE   PO4  986   5.830  11.471   8.146
   83DVPE   GL1  987   6.163  11.499   7.877
   83DVPE   GL2  988   6.166  11.202   7.810
   83DVPE   C1A  989   5.963  11.535   7.484
   83DVPE   C2A  990   5.833  11.449   6.988
   83DVPE   D3A  991   5.734  11.463   6.525
   83DVPE   C4A  992   5.684  11.269   6.094
   83DVPE   C1B  993   6.134  11.071   7.357
   83DVPE   C2B  994   6.113  11.061   6.823
   83DVPE   D3B  995   6.145  11.170   6.347
   83DVPE   C4B  996   5.959  10.860   6.005
   84DVPE   NH3  997   6.041  13.596   8.138
   84DVPE   PO4  998   6.086  13.256   8.051
   84DVPE   GL1  999   5.986  13.329   7.668
   84DVPE   GL2 1000   5.927  13.626   7.677
   84DVPE   C1A 1001   5.979  13.178   7.254
   84DVPE   C2A 1002   6.004  13.137   6.746
   84DVPE   D3A 1003   5.754  13.209   6.362
   84DVPE   C4A 1004   6.178  13.435   6.360
   84DVPE   C1B 1005   5.999  13.699   7.234
   84DVPE   C2B 1006   5.958  13.743   6.713
   84DVPE   D3B 1007   5.791  13.751   6.271
   84DVPE   C4B 1008   5.800  13.857   5.792
   85DVPE   NH3 1009   5.529   1.849   8.076
   85DVPE   PO4 1010   5.779   1.585   8.098
   85DVPE   GL1 1011   5.812   1.483   7.699
   85DVPE   GL2 1012   5.777   1.200   7.768
   85DVPE   C1A 1013   5.816   1.549   7.261
   85DVPE   C2A 1014   5.929   1.586   6.764
   85DVPE   D3A 1015   5.912   1.628   6.306
   85DVPE   C4A 1016   5.438   1.679   6.203
   85DVPE   C1B 1017   5.724   1.030   7.358
   85DVPE   C2B 1018   5.811   1.090   6.848
   85DVPE   D3B 1019   6.075   1.151   6.453
   85DVPE   C4B 1020   6.372   1.407   6.163
   86DVPE   NH3 1021   5.694   2.775   8.248
   86DVPE   PO4 1022   5.738   2.464   8.120
   86DVPE   GL1 1023   5.856   2.656   7.790
   86DVPE   GL2 1024   5.980   2.396   7.697
   86DVPE   C1A 1025   5.671   2.785   7.431
   86DVPE   C2A 1026   5.643   2.686   6.936
   86DVPE   D3A 1027   5.637   2.516   6.499
   86DVPE   C4A 1028   5.479   2.927   6.306
   86DVPE   C1B 1029   5.695   2.288   7.362
   86DVPE   C2B 1030   5.495   2.190   6.915
   86DVPE   D3B 1031   5.701   1.998   6.567
   86DVPE   C4B 1032   5.831   2.154   6.145
   87DVPE   NH3 1033   6.123   3.350   8.184
   87DVPE   PO4 1034   5.806   3.237   8.082
   87DVPE   GL1 1035   6.041   3.101   7.771
   87DVPE   GL2 1036   6.188   3.372   7.739
   87DVPE   C1A 1037   6.090   3.056   7.349
   87DVPE   C2A 1038   6.136   3.275   6.896
   87DVPE   D3A 1039   5.916   3.401   6.528
   87DVPE   C4A 1040   5.917   3.159   6.117
   87DVPE   C1B 1041   6.064   3.589   7.387
   87DVPE   C2B 1042   5.814   3.690   6.952
   87DVPE   D3B 1043   5.658   3.855   6.538
   87DVPE   C4B 1044   6.037   3.776   6.246
   88DVPE   NH3 1045   6.257   2.435   8.076
   88DVPE   PO4 1046   6.184   2.780   8.095
   88DVPE   GL1 1047   6.274   2.746   7.662
   88DVPE   GL2 1048   6.465   2.539   7.682
   88DVPE   C1A 1049   6.112   2.562   7.290
   88DVPE   C2A 1050   6.036   2.400   6.806
   88DVPE   D3A 1051   6.146   2.549   6.375
   88DVPE   C4A 1052   5.920   2.912   6.581
   88DVPE   C1B 1053   6.349   2.157   7.468
   88DVPE   C2B 1054   6.250   1.972   6.982
   88DVPE   D3B 1055   6.211   2.033   6.507
   88DVPE   C4B 1056   6.542   2.274   6.238
   89DVPE   NH3 1057   6.581   3.555   8.058
   89DVPE   PO4 1058   6.874   3.647   7.894
   89DVPE   GL1 1059   6.606   3.454   7.620
   89DVPE   GL2 1060   6.461   3.721   7.625
   89DVPE   C1A 1061   6.484   3.338   7.260
   89DVPE   C2A 1062   6.362   3.713   6.954
   89DVPE   D3A 1063   6.403   3.576   6.522
   89DVPE   C4A 1064   6.349   3.106   6.422
   89DVPE   C1B 1065   6.745   3.811   7.299
   89DVPE   C2B 1066   7.126   3.770   6.963
   89DVPE   D3B 1067   7.164   3.642   6.519
   89DVPE   C4B 1068   6.780   3.740   6.243
   90DVPE   NH3 1069   6.489   7.451   7.921
   90DVPE   PO4 1070   6.713   7.664   8.088
   90DVPE   GL1 1071   6.865   7.636   7.666
   90DVPE   GL2 1072   6.879   7.332   7.695
   90DVPE   C1A 1073   6.885   7.833   7.244
   90DVPE   C2A 1074   7.014   7.949   6.743
   90DVPE   D3A 1075   6.792   7.766   6.359
   90DVPE   C4A 1076   6.912   7.379   6.084
   90DVPE   C1B 1077   6.636   7.318   7.343
   90DVPE   C2B 1078   6.430   7.420   6.896
   90DVPE   D3B 1079   6.599   7.310   6.471
   90DVPE   C4B 1080   6.403   7.432   6.061
   91DVPE   NH3 1081   6.431   8.055   8.251
   91DVPE   PO4 1082   6.511   8.366   8.111
   91DVPE   GL1 1083   6.436   8.082   7.792
   91DVPE   GL2 1084   6.740   8.035   7.807
   91DVPE   C1A 1085   6.177   8.215   7.438
   91DVPE   C2A 1086   6.088   8.250   6.927
   91DVPE   D3A 1087   6.167   8.228   6.465
   91DVPE   C4A 1088   6.351   7.953   6.098
   91DVPE   C1B 1089   6.696   8.253   7.444
   91DVPE   C2B 1090   6.562   8.437   7.010
   91DVPE   D3B 1091   6.619   8.497   6.559
   91DVPE   C4B 1092   6.784   8.233   6.188
   92DVPE   NH3 1093   6.860   8.716   8.244
   92DVPE   PO4 1094   6.549   8.866   8.254
   92DVPE   GL1 1095   6.671   8.934   7.860
   92DVPE   GL2 1096   6.571   9.224   7.888
   92DVPE   C1A 1097   6.702   8.794   7.442
   92DVPE   C2A 1098   6.802   8.890   6.945
   92DVPE   D3A 1099   6.977   8.969   6.523
   92DVPE   C4A 1100   6.688   8.797   6.168
   92DVPE   C1B 1101   6.492   9.393   7.491
   92DVPE   C2B 1102   6.445   9.268   6.995
   92DVPE   D3B 1103   6.496   9.107   6.570
   92DVPE   C4B 1104   6.337   9.160   6.134
   93DVPE   NH3 1105   6.909   9.652   8.446
   93DVPE   PO4 1106   6.631   9.817   8.285
   93DVPE   GL1 1107   6.709   9.980   7.872
   93DVPE   GL2 1108   6.555   9.781   7.745
   93DVPE   C1A 1109   6.957   9.920   7.529
   93DVPE   C2A 1110   6.960   9.900   7.014
   93DVPE   D3A 1111   6.860  10.019   6.556
   93DVPE   C4A 1112   6.530  10.008   6.193
   93DVPE   C1B 1113   6.502   9.899   7.309
   93DVPE   C2B 1114   6.496   9.763   6.816
   93DVPE   D3B 1115   6.659   9.569   6.426
   93DVPE   C4B 1116   6.199   9.586   6.370
   94DVPE   NH3 1117   6.647  10.306   8.187
   94DVPE   PO4 1118   6.574  10.587   8.360
   94DVPE   GL1 1119   6.688  10.743   7.981
   94DVPE   GL2 1120   6.480  10.550   7.854
   94DVPE   C1A 1121   6.655  10.935   7.592
   94DVPE   C2A 1122   6.602  11.005   7.086
   94DVPE   D3A 1123   6.573  10.988   6.623
   94DVPE   C4A 1124   6.833  10.928   6.244
   94DVPE   C1B 1125   6.565  10.412   7.452
   94DVPE   C2B 1126   6.735  10.363   6.988
   94DVPE   D3B 1127   6.816  10.538   6.575
   94DVPE   C4B 1128   7.155  10.465   6.262
   95DVPE   NH3 1129   7.658   4.284   8.149
   95DVPE   PO4 1130   7.760   4.493   7.880
   95DVPE   GL1 1131   7.477   4.323   7.618
   95DVPE   GL2 1132   7.244   4.467   7.737
   95DVPE   C1A 1133   7.542   4.443   7.190
   95DVPE   C2A 1134   7.656   4.563   6.700
   95DVPE   D3A 1135   7.711   4.556   6.232
   95DVPE   C4A 1136   7.853   4.431   5.790
   95DVPE   C1B 1137   7.130   4.716   7.381
   95DVPE   C2B 1138   7.178   4.724   6.874
   95DVPE   D3B 1139   7.220   4.591   6.413
   95DVPE   C4B 1140   7.310   4.496   5.946
   96DVPE   NH3 1141   7.162   5.030   8.189
   96DVPE   PO4 1142   7.361   4.872   7.954
   96DVPE   GL1 1143   7.460   5.035   7.599
   96DVPE   GL2 1144   7.613   4.772   7.516
   96DVPE   C1A 1145   7.408   5.117   7.187
   96DVPE   C2A 1146   7.478   5.072   6.689
   96DVPE   D3A 1147   7.441   5.003   6.237
   96DVPE   C4A 1148   7.288   5.280   5.873
   96DVPE   C1B 1149   7.875   4.882   7.156
   96DVPE   C2B 1150   7.987   5.009   6.655
   96DVPE   D3B 1151   7.942   5.005   6.174
   96DVPE   C4B 1152   7.642   4.893   5.798
   97DVPE   NH3 1153   7.473   5.701   8.087
   97DVPE   PO4 1154   7.480   6.046   8.041
   97DVPE   GL1 1155   7.537   5.902   7.671
   97DVPE   GL2 1156   7.770   6.065   7.585
   97DVPE   C1A 1157   7.357   5.654   7.349
   97DVPE   C2A 1158   7.360   5.575   6.847
   97DVPE   D3A 1159   7.280   5.445   6.405
   97DVPE   C4A 1160   6.862   5.377   6.170
   97DVPE   C1B 1161   7.762   5.983   7.146
   97DVPE   C2B 1162   7.666   5.953   6.643
   97DVPE   D3B 1163   7.522   5.879   6.196
   97DVPE   C4B 1164   7.509   5.725   5.727
   98DVPE   NH3 1165   7.653   6.522   8.126
   98DVPE   PO4 1166   7.675   6.830   7.992
   98DVPE   GL1 1167   7.531   6.686   7.670
   98DVPE   GL2 1168   7.463   6.389   7.724
   98DVPE   C1A 1169   7.295   6.960   7.435
   98DVPE   C2A 1170   7.173   7.034   6.941
   98DVPE   D3A 1171   7.049   7.065   6.487
   98DVPE   C4A 1172   7.372   7.166   6.174
   98DVPE   C1B 1173   7.341   6.164   7.359
   98DVPE   C2B 1174   7.217   6.091   6.875
   98DVPE   D3B 1175   7.286   6.248   6.449
   98DVPE   C4B 1176   7.374   6.673   6.244
   99DVPE   NH3 1177   7.079  10.041   8.148
   99DVPE   PO4 1178   7.380   9.893   8.080
   99DVPE   GL1 1179   7.335  10.195   7.740
   99DVPE   GL2 1180   7.591  10.111   7.649
   99DVPE   C1A 1181   7.157  10.310   7.317
   99DVPE   C2A 1182   7.232  10.286   6.809
   99DVPE   D3A 1183   7.350  10.017   6.446
   99DVPE   C4A 1184   7.440  10.126   6.009
   99DVPE   C1B 1185   7.425   9.808   7.344
   99DVPE   C2B 1186   7.398   9.699   6.836
   99DVPE   D3B 1187   7.639   9.598   6.416
   99DVPE   C4B 1188   7.696   9.694   5.932
  100DVPE   NH3 1189   6.800  11.468   8.440
  100DVPE   PO4 1190   7.083  11.623   8.291
  100DVPE   GL1 1191   7.312  11.416   7.993
  100DVPE   GL2 1192   7.261  11.160   8.053
  100DVPE   C1A 1193   7.365  11.493   7.561
  100DVPE   C2A 1194   7.398  11.575   7.069
  100DVPE   D3A 1195   7.628  11.681   6.688
  100DVPE   C4A 1196   7.445  11.369   6.404
  100DVPE   C1B 1197   7.453  11.031   7.698
  100DVPE   C2B 1198   7.496  11.058   7.205
  100DVPE   D3B 1199   7.657  11.137   6.787
  100DVPE   C4B 1200   7.708  10.912   6.374
  101DVPE   NH3 1201   8.433   3.875   8.260
  101DVPE   PO4 1202   8.220   3.613   8.189
  101DVPE   GL1 1203   8.386   3.653   7.811
  101DVPE   GL2 1204   8.209   3.903   7.809
  101DVPE   C1A 1205   8.213   3.543   7.440
  101DVPE   C2A 1206   7.862   3.592   7.069
  101DVPE   D3A 1207   8.060   3.732   6.685
  101DVPE   C4A 1208   8.212   3.786   6.258
  101DVPE   C1B 1209   7.950   3.985   7.452
  101DVPE   C2B 1210   7.892   4.147   6.966
  101DVPE   D3B 1211   7.955   4.186   6.495
  101DVPE   C4B 1212   8.248   4.249   6.101
  102DVPE   NH3 1213   7.876   6.138   8.342
  102DVPE   PO4 1214   8.155   6.301   8.228
  102DVPE   GL1 1215   8.105   6.240   7.835
  102DVPE   GL2 1216   7.919   6.464   7.762
  102DVPE   C1A 1217   8.197   6.239   7.417
  102DVPE   C2A 1218   8.120   6.292   6.920
  102DVPE   D3A 1219   8.257   6.282   6.475
  102DVPE   C4A 1220   8.040   5.895   6.296
  102DVPE   C1B 1221   7.757   6.477   7.329
  102DVPE   C2B 1222   7.640   6.448   6.813
  102DVPE   D3B 1223   7.769   6.372   6.349
  102DVPE   C4B 1224   7.656   6.484   5.880
  103DVPE   NH3 1225   8.097   8.642   8.371
  103DVPE   PO4 1226   8.182   8.908   8.176
  103DVPE   GL1 1227   8.137   8.862   7.777
  103DVPE   GL2 1228   7.912   8.715   7.769
  103DVPE   C1A 1229   8.363   8.662   7.470
  103DVPE   C2A 1230   8.486   8.642   6.973
  103DVPE   D3A 1231   8.566   8.824   6.544
  103DVPE   C4A 1232   8.424   9.200   6.290
  103DVPE   C1B 1233   7.914   8.365   7.512
  103DVPE   C2B 1234   7.733   8.214   7.049
  103DVPE   D3B 1235   7.615   8.407   6.625
  103DVPE   C4B 1236   7.908   8.702   6.352
  104DVPE   NH3 1237   7.834  10.122   8.079
  104DVPE   PO4 1238   7.811  10.472   8.037
  104DVPE   GL1 1239   8.186  10.581   7.860
  104DVPE   GL2 1240   8.251  10.272   7.897
  104DVPE   C1A 1241   8.192  10.566   7.440
  104DVPE   C2A 1242   8.135  10.395   6.977
  104DVPE   D3A 1243   8.155  10.326   6.529
  104DVPE   C4A 1244   8.255  10.309   6.068
  104DVPE   C1B 1245   8.055  10.089   7.544
  104DVPE   C2B 1246   7.730  10.158   7.164
  104DVPE   D3B 1247   7.783  10.008   6.736
  104DVPE   C4B 1248   7.861  10.031   6.268
  105DVPE   NH3 1249   7.585  11.698   8.225
  105DVPE   PO4 1250   7.793  11.895   8.027
  105DVPE   GL1 1251   7.721  11.740   7.682
  105DVPE   GL2 1252   7.763  11.453   7.806
  105DVPE   C1A 1253   7.830  11.824   7.261
  105DVPE   C2A 1254   7.968  12.043   6.812
  105DVPE   D3A 1255   7.993  12.196   6.366
  105DVPE   C4A 1256   8.333  11.950   6.119
  105DVPE   C1B 1257   7.885  11.342   7.400
  105DVPE   C2B 1258   8.035  11.462   6.915
  105DVPE   D3B 1259   8.103  11.677   6.495
  105DVPE   C4B 1260   7.754  11.784   6.191
  106DVPE   NH3 1261   7.841  12.377   8.122
  106DVPE   PO4 1262   8.045  12.534   7.899
  106DVPE   GL1 1263   7.887  12.188   7.675
  106DVPE   GL2 1264   7.611  12.310   7.693
  106DVPE   C1A 1265   7.922  12.321   7.270
  106DVPE   C2A 1266   7.867  12.541   6.824
  106DVPE   D3A 1267   7.777  12.745   6.422
  106DVPE   C4A 1268   7.695  12.656   5.967
  106DVPE   C1B 1269   7.427  12.477   7.280
  106DVPE   C2B 1270   7.373  12.580   6.769
  106DVPE   D3B 1271   7.292  12.628   6.301
  106DVPE   C4B 1272   7.193  12.557   5.835
  107DVPE   NH3 1273   8.760   0.565   7.996
  107DVPE   PO4 1274   8.562   0.327   7.833
  107DVPE   GL1 1275   8.762   0.398   7.433
  107DVPE   GL2 1276   8.612   0.668   7.508
  107DVPE   C1A 1277   8.718   0.255   6.978
  107DVPE   C2A 1278   8.760   0.156   6.444
  107DVPE   D3A 1279   8.861   0.104   5.971
  107DVPE   C4A 1280   8.989  13.685   5.783
  107DVPE   C1B 1281   8.480   0.702   7.107
  107DVPE   C2B 1282   8.433   0.544   6.618
  107DVPE   D3B 1283   8.254   0.211   6.327
  107DVPE   C4B 1284   8.555   0.480   6.095
  108DVPE   NH3 1285   8.767   2.838   8.093
  108DVPE   PO4 1286   8.642   2.537   8.224
  108DVPE   GL1 1287   8.514   2.486   7.872
  108DVPE   GL2 1288   8.452   2.755   7.780
  108DVPE   C1A 1289   8.691   2.402   7.511
  108DVPE   C2A 1290   8.611   2.489   7.037
  108DVPE   D3A 1291   8.602   2.431   6.595
  108DVPE   C4A 1292   8.565   2.515   6.136
  108DVPE   C1B 1293   8.785   2.900   7.504
  108DVPE   C2B 1294   8.897   3.217   7.101
  108DVPE   D3B 1295   8.826   3.235   6.637
  108DVPE   C4B 1296   8.887   3.133   6.178
  109DVPE   NH3 1297   8.948   4.013   8.194
  109DVPE   PO4 1298   9.035   4.349   8.109
  109DVPE   GL1 1299   8.665   4.440   7.888
  109DVPE   GL2 1300   8.593   4.142   7.905
  109DVPE   C1A 1301   8.675   4.512   7.454
  109DVPE   C2A 1302   8.794   4.316   6.987
  109DVPE   D3A 1303   9.005   4.071   6.644
  109DVPE   C4A 1304   9.147   4.208   6.214
  109DVPE   C1B 1305   8.509   4.004   7.489
  109DVPE   C2B 1306   8.371   4.019   7.000
  109DVPE   D3B 1307   8.458   4.217   6.587
  109DVPE   C4B 1308   8.676   4.007   6.224
  110DVPE   NH3 1309   8.719   5.767   8.251
  110DVPE   PO4 1310   8.422   5.864   8.091
  110DVPE   GL1 1311   8.594   6.056   7.760
  110DVPE   GL2 1312   8.840   5.889   7.792
  110DVPE   C1A 1313   8.631   5.990   7.334
  110DVPE   C2A 1314   8.561   6.060   6.832
  110DVPE   D3A 1315   8.603   5.912   6.390
  110DVPE   C4A 1316   8.667   5.478   6.228
  110DVPE   C1B 1317   8.996   5.640   7.457
  110DVPE   C2B 1318   9.048   5.282   7.096
  110DVPE   D3B 1319   9.143   5.153   6.669
  110DVPE   C4B 1320   8.932   5.051   6.277
  111DVPE   NH3 1321   9.034   6.554   8.133
  111DVPE   PO4 1322   8.881   6.237   8.109
  111DVPE   GL1 1323   8.759   6.473   7.760
  111DVPE   GL2 1324   8.485   6.482   7.900
  111DVPE   C1A 1325   8.649   6.498   7.336
  111DVPE   C2A 1326   8.547   6.582   6.845
  111DVPE   D3A 1327   8.779   6.391   6.501
  111DVPE   C4A 1328   8.627   6.307   6.068
  111DVPE   C1B 1329   8.266   6.720   7.591
  111DVPE   C2B 1330   8.151   6.784   7.106
  111DVPE   D3B 1331   8.069   6.738   6.647
  111DVPE   C4B 1332   8.416   6.747   6.316
  112DVPE   NH3 1333   8.860   7.352   8.225
  112DVPE   PO4 1334   8.919   7.384   7.885
  112DVPE   GL1 1335   8.962   6.999   7.676
  112DVPE   GL2 1336   9.209   7.177   7.606
  112DVPE   C1A 1337   8.645   7.008   7.364
  112DVPE   C2A 1338   8.519   7.127   6.878
  112DVPE   D3A 1339   8.579   7.477   6.568
  112DVPE   C4A 1340   8.488   7.597   6.119
  112DVPE   C1B 1341   9.101   7.285   7.184
  112DVPE   C2B 1342   9.062   7.343   6.663
  112DVPE   D3B 1343   8.977   7.505   6.208
  112DVPE   C4B 1344   8.704   7.138   6.160
  113DVPE   NH3 1345   9.117   8.271   8.068
  113DVPE   PO4 1346   8.777   8.186   8.102
  113DVPE   GL1 1347   8.637   8.212   7.743
  113DVPE   GL2 1348   8.398   8.022   7.740
  113DVPE   C1A 1349   8.957   8.194   7.442
  113DVPE   C2A 1350   9.065   8.217   6.944
  113DVPE   D3A 1351   8.759   8.351   6.613
  113DVPE   C4A 1352   8.840   8.286   6.147
  113DVPE   C1B 1353   8.600   7.751   7.454
  113DVPE   C2B 1354   8.812   7.710   6.986
  113DVPE   D3B 1355   8.921   7.873   6.553
  113DVPE   C4B 1356   8.468   7.994   6.418
  114DVPE   NH3 1357   8.594   8.634   8.252
  114DVPE   PO4 1358   8.912   8.700   8.184
  114DVPE   GL1 1359   8.730   8.637   7.796
  114DVPE   GL2 1360   8.573   8.892   7.833
  114DVPE   C1A 1361   8.864   8.701   7.376
  114DVPE   C2A 1362   8.976   8.728   6.873
  114DVPE   D3A 1363   9.055   8.713   6.409
  114DVPE   C4A 1364   8.746   8.782   6.035
  114DVPE   C1B 1365   8.787   9.168   7.552
  114DVPE   C2B 1366   8.837   9.187   7.048
  114DVPE   D3B 1367   8.945   9.182   6.585
  114DVPE   C4B 1368   8.918   9.248   6.105
  115DVPE   NH3 1369   8.945  10.020   8.108
  115DVPE   PO4 1370   8.626  10.153   8.145
  115DVPE   GL1 1371   8.678  10.331   7.765
  115DVPE   GL2 1372   8.993  10.356   7.791
  115DVPE   C1A 1373   8.549  10.204   7.346
  115DVPE   C2A 1374   8.563  10.142   6.831
  115DVPE   D3A 1375   8.608  10.144   6.369
  115DVPE   C4A 1376   8.720  10.448   6.001
  115DVPE   C1B 1377   9.064  10.354   7.380
  115DVPE   C2B 1378   9.028  10.385   6.883
  115DVPE   D3B 1379   9.030  10.411   6.435
  115DVPE   C4B 1380   9.064  10.767   6.139
  116DVPE   NH3 1381   8.889  11.111   8.205
  116DVPE   PO4 1382   8.749  11.379   8.053
  116DVPE   GL1 1383   8.878  11.199   7.697
  116DVPE   GL2 1384   8.887  10.932   7.779
  116DVPE   C1A 1385   8.801  11.143   7.275
  116DVPE   C2A 1386   8.922  11.021   6.791
  116DVPE   D3A 1387   9.205  11.123   6.441
  116DVPE   C4A 1388   8.990  11.398   6.118
  116DVPE   C1B 1389   8.697  10.694   7.472
  116DVPE   C2B 1390   8.587  10.639   6.971
  116DVPE   D3B 1391   8.574  10.666   6.492
  116DVPE   C4B 1392   8.618  10.992   6.126
  117DVPE   NH3 1393   9.373   2.064   7.885
  117DVPE   PO4 1394   9.531   1.760   7.946
  117DVPE   GL1 1395   9.767   1.816   7.593
  117DVPE   GL2 1396   9.492   1.892   7.481
  117DVPE   C1A 1397   9.793   1.619   7.209
  117DVPE   C2A 1398   9.596   1.368   6.817
  117DVPE   D3A 1399   9.597   1.216   6.394
  117DVPE   C4A 1400   9.869   1.557   6.203
  117DVPE   C1B 1401   9.394   2.138   7.118
  117DVPE   C2B 1402   9.269   2.361   6.674
  117DVPE   D3B 1403   9.423   2.483   6.252
  117DVPE   C4B 1404   9.476   2.002   6.296
  118DVPE   NH3 1405   9.470   4.190   8.314
  118DVPE   PO4 1406   9.643   3.953   8.145
  118DVPE   GL1 1407   9.670   4.242   7.863
  118DVPE   GL2 1408   9.449   4.437   7.915
  118DVPE   C1A 1409   9.733   4.214   7.429
  118DVPE   C2A 1410   9.768   4.085   6.929
  118DVPE   D3A 1411   9.522   3.849   6.599
  118DVPE   C4A 1412   9.442   3.808   6.134
  118DVPE   C1B 1413   9.306   4.563   7.512
  118DVPE   C2B 1414   9.393   4.454   7.020
  118DVPE   D3B 1415   9.481   4.355   6.580
  118DVPE   C4B 1416   9.567   4.542   6.145
  119DVPE   NH3 1417   9.407   5.174   8.210
  119DVPE   PO4 1418   9.727   5.270   8.084
  119DVPE   GL1 1419   9.585   5.524   7.756
  119DVPE   GL2 1420   9.323   5.380   7.793
  119DVPE   C1A 1421   9.510   5.656   7.340
  119DVPE   C2A 1422   9.373   5.578   6.847
  119DVPE   D3A 1423   9.532   5.379   6.459
  119DVPE   C4A 1424   9.702   5.522   6.059
  119DVPE   C1B 1425   9.347   5.113   7.455
  119DVPE   C2B 1426   9.473   4.958   6.987
  119DVPE   D3B 1427   9.516   4.860   6.524
  119DVPE   C4B 1428   9.412   5.057   6.075
  120DVPE   NH3 1429   9.581   7.780   8.316
  120DVPE   PO4 1430   9.566   7.969   8.033
  120DVPE   GL1 1431   9.253   7.957   7.750
  120DVPE   GL2 1432   9.366   8.244   7.682
  120DVPE   C1A 1433   9.216   7.749   7.380
  120DVPE   C2A 1434   9.307   7.730   6.884
  120DVPE   D3A 1435   9.382   7.665   6.439
  120DVPE   C4A 1436   9.248   7.970   6.093
  120DVPE   C1B 1437   9.723   8.231   7.441
  120DVPE   C2B 1438   9.585   8.161   6.973
  120DVPE   D3B 1439   9.479   8.132   6.538
  120DVPE   C4B 1440   9.779   7.903   6.231
  121DVPE   NH3 1441   9.657   8.463   7.987
  121DVPE   PO4 1442   9.416   8.677   8.098
  121DVPE   GL1 1443   9.173   8.637   7.745
  121DVPE   GL2 1444   9.079   8.935   7.831
  121DVPE   C1A 1445   9.344   8.571   7.303
  121DVPE   C2A 1446   9.452   8.603   6.780
  121DVPE   D3A 1447   9.545   8.567   6.321
  121DVPE   C4A 1448   9.644   8.319   5.906
  121DVPE   C1B 1449   9.293   9.054   7.496
  121DVPE   C2B 1450   9.341   9.044   7.014
  121DVPE   D3B 1451   9.488   9.132   6.599
  121DVPE   C4B 1452   9.376   9.018   6.161
  122DVPE   NH3 1453   9.609  10.013   8.298
  122DVPE   PO4 1454   9.779  10.164   8.059
  122DVPE   GL1 1455   9.415  10.162   7.827
  122DVPE   GL2 1456   9.491  10.456   7.802
  122DVPE   C1A 1457   9.372   9.950   7.446
  122DVPE   C2A 1458   9.421   9.994   6.929
  122DVPE   D3A 1459   9.425  10.081   6.458
  122DVPE   C4A 1460   9.353  10.351   6.052
  122DVPE   C1B 1461   9.566  10.417   7.374
  122DVPE   C2B 1462   9.519  10.508   6.867
  122DVPE   D3B 1463   9.506  10.659   6.422
  122DVPE   C4B 1464   9.509  10.951   6.033
  123DVPE   NH3 1465   9.620  10.996   8.001
  123DVPE   PO4 1466   9.297  10.860   8.024
  123DVPE   GL1 1467   9.245  10.747   7.600
  123DVPE   GL2 1468   9.555  10.844   7.574
  123DVPE   C1A 1469   9.196  10.798   7.174
  123DVPE   C2A 1470   9.491  11.035   6.837
  123DVPE   D3A 1471   9.740  11.127   6.461
  123DVPE   C4A 1472   9.515  11.451   6.217
  123DVPE   C1B 1473   9.785  10.823   7.192
  123DVPE   C2B 1474   9.949  10.729   6.702
  123DVPE   D3B 1475  10.037  10.752   6.236
  123DVPE   C4B 1476   9.968  11.021   5.852
  124DVPE   NH3 1477   9.981  11.359   8.045
  124DVPE   PO4 1478   9.675  11.487   8.135
  124DVPE   GL1 1479   9.664  11.355   7.676
  124DVPE   GL2 1480   9.826  11.620   7.677
  124DVPE   C1A 1481   9.702  11.355   7.212
  124DVPE   C2A 1482   9.615  11.564   6.744
  124DVPE   D3A 1483   9.511  11.907   6.433
  124DVPE   C4A 1484   9.355  11.856   5.984
  124DVPE   C1B 1485   9.888  11.837   7.300
  124DVPE   C2B 1486   9.792  12.063   6.845
  124DVPE   D3B 1487   9.745  12.354   6.463
  124DVPE   C4B 1488   9.436  12.358   6.087
  125DVPE   NH3 1489  10.151   1.022   8.098
  125DVPE   PO4 1490  10.335   1.273   7.940
  125DVPE   GL1 1491  10.334   1.106   7.558
  125DVPE   GL2 1492  10.226   0.827   7.672
  125DVPE   C1A 1493  10.174   1.242   7.136
  125DVPE   C2A 1494  10.088   1.293   6.614
  125DVPE   D3A 1495  10.191   1.170   6.143
  125DVPE   C4A 1496  10.438   0.929   5.778
  125DVPE   C1B 1497   9.954   0.820   7.355
  125DVPE   C2B 1498   9.837   0.915   6.875
  125DVPE   D3B 1499   9.936   0.837   6.440
  125DVPE   C4B 1500  10.414   0.916   6.531
  126DVPE   NH3 1501  10.048   1.699   7.946
  126DVPE   PO4 1502   9.940   1.878   8.228
  126DVPE   GL1 1503   9.836   2.152   7.893
  126DVPE   GL2 1504  10.120   2.114   7.789
  126DVPE   C1A 1505   9.758   2.256   7.478
  126DVPE   C2A 1506   9.889   2.116   7.004
  126DVPE   D3A 1507   9.815   1.832   6.641
  126DVPE   C4A 1508   9.977   2.057   6.252
  126DVPE   C1B 1509  10.173   1.915   7.381
  126DVPE   C2B 1510  10.240   1.740   6.895
  126DVPE   D3B 1511  10.303   1.697   6.421
  126DVPE   C4B 1512  10.274   1.744   5.944
  127DVPE   NH3 1513  10.038   3.941   7.840
  127DVPE   PO4 1514  10.099   4.212   8.060
  127DVPE   GL1 1515  10.114   4.396   7.662
  127DVPE   GL2 1516   9.897   4.579   7.721
  127DVPE   C1A 1517  10.167   4.405   7.216
  127DVPE   C2A 1518  10.230   4.267   6.734
  127DVPE   D3A 1519  10.361   3.980   6.407
  127DVPE   C4A 1520  10.220   4.169   5.992
  127DVPE   C1B 1521   9.776   4.726   7.335
  127DVPE   C2B 1522   9.874   4.651   6.834
  127DVPE   D3B 1523  10.012   4.587   6.392
  127DVPE   C4B 1524   9.875   4.143   6.377
  128DVPE   NH3 1525  10.151   4.988   8.119
  128DVPE   PO4 1526  10.282   4.707   7.955
  128DVPE   GL1 1527  10.182   4.878   7.572
  128DVPE   GL2 1528   9.978   5.084   7.681
  128DVPE   C1A 1529  10.226   4.912   7.125
  128DVPE   C2A 1530  10.288   4.957   6.615
  128DVPE   D3A 1531  10.371   5.073   6.176
  128DVPE   C4A 1532  10.345   5.010   5.703
  128DVPE   C1B 1533   9.830   5.235   7.271
  128DVPE   C2B 1534   9.861   5.170   6.751
  128DVPE   D3B 1535   9.885   5.059   6.264
  128DVPE   C4B 1536   9.849   5.117   5.779
  129DVPE   NH3 1537  10.360   8.537   7.886
  129DVPE   PO4 1538  10.106   8.658   8.085
  129DVPE   GL1 1539  10.043   8.979   7.825
  129DVPE   GL2 1540  10.334   9.019   7.799
  129DVPE   C1A 1541   9.832   8.995   7.441
  129DVPE   C2A 1542   9.851   8.894   6.941
  129DVPE   D3A 1543   9.914   8.872   6.479
  129DVPE   C4A 1544   9.807   9.267   6.211
  129DVPE   C1B 1545  10.358   8.855   7.435
  129DVPE   C2B 1546  10.419   8.821   6.952
  129DVPE   D3B 1547  10.530   9.001   6.562
  129DVPE   C4B 1548  10.320   8.793   6.200
  130DVPE   NH3 1549  10.507   9.672   8.248
  130DVPE   PO4 1550  10.551  10.007   8.167
  130DVPE   GL1 1551  10.434   9.834   7.809
  130DVPE   GL2 1552  10.150   9.740   7.949
  130DVPE   C1A 1553  10.535   9.698   7.401
  130DVPE   C2A 1554  10.436   9.638   6.903
  130DVPE   D3A 1555  10.141   9.761   6.564
  130DVPE   C4A 1556  10.226   9.884   6.124
  130DVPE   C1B 1557  10.143   9.418   7.643
  130DVPE   C2B 1558  10.190   9.263   7.160
  130DVPE   D3B 1559  10.101   9.278   6.703
  130DVPE   C4B 1560  10.287   9.367   6.271
  131DVPE   NH3 1561  10.297  12.314   7.953
  131DVPE   PO4 1562  10.601  12.451   8.065
  131DVPE   GL1 1563  10.740  12.591   7.730
  131DVPE   GL2 1564  10.741  12.876   7.736
  131DVPE   C1A 1565  10.453  12.490   7.412
  131DVPE   C2A 1566  10.353  12.639   6.939
  131DVPE   D3A 1567  10.396  12.701   6.472
  131DVPE   C4A 1568  10.088  12.593   6.116
  131DVPE   C1B 1569  10.479  12.994   7.386
  131DVPE   C2B 1570  10.337  13.152   6.921
  131DVPE   D3B 1571  10.252  13.203   6.451
  131DVPE   C4B 1572  10.174  13.395   6.016
  132DVPE   NH3 1573  10.590  13.735   7.910
  132DVPE   PO4 1574  10.512  13.454   8.101
  132DVPE   GL1 1575  10.467  13.268   7.758
  132DVPE   GL2 1576  10.189  13.150   7.770
  132DVPE   C1A 1577  10.483  13.510   7.402
  132DVPE   C2A 1578  10.490  13.669   6.933
  132DVPE   D3A 1579  10.487  13.749   6.487
  132DVPE   C4A 1580  10.303   0.011   6.155
  132DVPE   C1B 1581  10.036  13.285   7.351
  132DVPE   C2B 1582   9.999  13.535   6.871
  132DVPE   D3B 1583   9.951  13.640   6.401
  132DVPE   C4B 1584   9.577  13.549   6.105
  133DVPE   NH3 1585  10.779   0.492   8.214
  133DVPE   PO4 1586  10.664   0.177   8.141
  133DVPE   GL1 1587  10.811   0.142   7.763
  133DVPE   GL2 1588  10.861   0.455   7.727
  133DVPE   C1A 1589  10.592   0.028   7.382
  133DVPE   C2A 1590  10.554   0.184   6.880
  133DVPE   D3A 1591  10.704   0.247   6.435
  133DVPE   C4A 1592  10.566   0.412   5.990
  133DVPE   C1B 1593  10.918   0.401   7.296
  133DVPE   C2B 1594  11.051   0.336   6.817
  133DVPE   D3B 1595  11.109   0.552   6.424
  133DVPE   C4B 1596  11.084   0.334   6.014
  134DVPE   NH3 1597  10.611   0.846   7.917
  134DVPE   PO4 1598  10.891   0.977   8.085
  134DVPE   GL1 1599  10.906   1.079   7.665
  134DVPE   GL2 1600  10.736   1.302   7.714
  134DVPE   C1A 1601  10.687   0.858   7.370
  134DVPE   C2A 1602  10.723   0.720   6.891
  134DVPE   D3A 1603  10.924   1.002   6.578
  134DVPE   C4A 1604  10.789   0.854   6.144
  134DVPE   C1B 1605  10.642   1.400   7.297
  134DVPE   C2B 1606  10.592   1.381   6.783
  134DVPE   D3B 1607  10.629   1.323   6.318
  134DVPE   C4B 1608  10.631   1.390   5.853
  135DVPE   NH3 1609  10.645   2.589   8.203
  135DVPE   PO4 1610  10.909   2.507   8.010
  135DVPE   GL1 1611  10.844   2.710   7.718
  135DVPE   GL2 1612  10.981   2.975   7.733
  135DVPE   C1A 1613  10.862   2.500   7.339
  135DVPE   C2A 1614  10.922   2.297   6.894
  135DVPE   D3A 1615  10.711   2.434   6.531
  135DVPE   C4A 1616  10.606   2.657   6.144
  135DVPE   C1B 1617  11.058   2.967   7.322
  135DVPE   C2B 1618  11.018   2.816   6.847
  135DVPE   D3B 1619  11.191   2.858   6.427
  135DVPE   C4B 1620  11.067   2.507   6.140
  136DVPE   NH3 1621  10.951   4.100   8.070
  136DVPE   PO4 1622  10.952   4.437   8.119
  136DVPE   GL1 1623  10.694   4.466   7.821
  136DVPE   GL2 1624  10.523   4.252   7.912
  136DVPE   C1A 1625  10.931   4.254   7.501
  136DVPE   C2A 1626  11.090   4.434   7.075
  136DVPE   D3A 1627  11.133   4.666   6.698
  136DVPE   C4A 1628  11.028   4.521   6.257
  136DVPE   C1B 1629  10.458   4.124   7.508
  136DVPE   C2B 1630  10.642   4.180   7.032
  136DVPE   D3B 1631  10.814   4.185   6.585
  136DVPE   C4B 1632  10.706   4.158   6.108
  137DVPE   NH3 1633  10.625   4.770   8.323
  137DVPE   PO4 1634  10.785   4.894   8.045
  137DVPE   GL1 1635  10.614   4.894   7.694
  137DVPE   GL2 1636  10.463   5.157   7.789
  137DVPE   C1A 1637  10.643   4.672   7.303
  137DVPE   C2A 1638  10.607   4.607   6.783
  137DVPE   D3A 1639  10.524   4.589   6.306
  137DVPE   C4A 1640  10.794   4.875   5.991
  137DVPE   C1B 1641  10.299   5.340   7.430
  137DVPE   C2B 1642  10.281   5.388   6.921
  137DVPE   D3B 1643  10.549   5.401   6.536
  137DVPE   C4B 1644  10.970   5.416   6.309
  138DVPE   NH3 1645  10.676   7.244   8.101
  138DVPE   PO4 1646  10.510   7.549   8.010
  138DVPE   GL1 1647  10.610   7.246   7.649
  138DVPE   GL2 1648  10.859   7.414   7.699
  138DVPE   C1A 1649  10.596   7.167   7.207
  138DVPE   C2A 1650  10.757   7.165   6.707
  138DVPE   D3A 1651  10.835   7.194   6.239
  138DVPE   C4A 1652  10.818   7.117   5.752
  138DVPE   C1B 1653  10.828   7.608   7.336
  138DVPE   C2B 1654  10.608   7.748   6.905
  138DVPE   D3B 1655  10.584   7.602   6.472
  138DVPE   C4B 1656  10.968   7.723   6.210
  139DVPE   NH3 1657  11.147   7.995   8.086
  139DVPE   PO4 1658  10.991   7.684   8.093
  139DVPE   GL1 1659  11.221   7.670   7.714
  139DVPE   GL2 1660  10.999   7.882   7.661
  139DVPE   C1A 1661  11.307   7.835   7.318
  139DVPE   C2A 1662  11.226   8.128   6.900
  139DVPE   D3A 1663  11.192   8.329   6.481
  139DVPE   C4A 1664  10.762   8.107   6.506
  139DVPE   C1B 1665  10.875   8.108   7.293
  139DVPE   C2B 1666  10.518   8.270   6.968
  139DVPE   D3B 1667  10.405   8.472   6.566
  139DVPE   C4B 1668  10.507   8.327   6.116
  140DVPE   NH3 1669  10.598   8.901   8.152
  140DVPE   PO4 1670  10.699   9.218   8.032
  140DVPE   GL1 1671  10.782   9.056   7.679
  140DVPE   GL2 1672  10.743   8.766   7.720
  140DVPE   C1A 1673  10.723   9.161   7.258
  140DVPE   C2A 1674  10.975   9.079   6.819
  140DVPE   D3A 1675  11.095   9.103   6.369
  140DVPE   C4A 1676  10.690   9.127   6.104
  140DVPE   C1B 1677  10.806   8.622   7.299
  140DVPE   C2B 1678  10.855   8.587   6.781
  140DVPE   D3B 1679  10.835   8.664   6.319
  140DVPE   C4B 1680  10.727   8.712   5.848
  141DVPE   NH3 1681  11.034   9.290   8.400
  141DVPE   PO4 1682  10.949   9.628   8.473
  141DVPE   GL1 1683  10.922   9.696   8.043
  141DVPE   GL2 1684  11.059   9.957   8.074
  141DVPE   C1A 1685  11.009   9.611   7.620
  141DVPE   C2A 1686  11.094   9.489   7.133
  141DVPE   D3A 1687  11.187   9.517   6.684
  141DVPE   C4A 1688  10.742   9.467   6.521
  141DVPE   C1B 1689  11.314  10.019   7.700
  141DVPE   C2B 1690  11.191   9.977   7.209
  141DVPE   D3B 1691  10.899   9.888   6.843
  141DVPE   C4B 1692  11.045   9.873   6.372
  142DVPE   NH3 1693  10.907  10.280   8.425
  142DVPE   PO4 1694  11.000  10.616   8.348
  142DVPE   GL1 1695  10.828  10.604   7.916
  142DVPE   GL2 1696  10.854  10.320   7.965
  142DVPE   C1A 1697  10.738  10.645   7.482
  142DVPE   C2A 1698  10.856  10.796   6.991
  142DVPE   D3A 1699  11.160  10.681   6.647
  142DVPE   C4A 1700  11.050  10.361   6.296
  142DVPE   C1B 1701  10.837  10.121   7.582
  142DVPE   C2B 1702  10.807  10.301   7.104
  142DVPE   D3B 1703  10.727  10.384   6.664
  142DVPE   C4B 1704  10.580   9.965   6.468
  143DVPE   NH3 1705  10.896  11.309   8.103
  143DVPE   PO4 1706  10.696  11.014   8.099
  143DVPE   GL1 1707  10.690  11.048   7.704
  143DVPE   GL2 1708  10.614  11.327   7.721
  143DVPE   C1A 1709  10.526  11.067   7.308
  143DVPE   C2A 1710  10.596  11.335   6.885
  143DVPE   D3A 1711  10.844  11.443   6.512
  143DVPE   C4A 1712  10.873  10.993   6.383
  143DVPE   C1B 1713  10.906  11.393   7.412
  143DVPE   C2B 1714  11.062  11.562   6.973
  143DVPE   D3B 1715  11.032  11.957   6.748
  143DVPE   C4B 1716  10.900  11.890   6.285
  144DVPE   NH3 1717  11.088  12.580   8.210
  144DVPE   PO4 1718  11.312  12.830   8.092
  144DVPE   GL1 1719  11.162  12.718   7.715
  144DVPE   GL2 1720  11.197  12.417   7.779
  144DVPE   C1A 1721  10.944  12.784   7.311
  144DVPE   C2A 1722  10.828  12.833   6.794
  144DVPE   D3A 1723  10.813  12.934   6.315
  144DVPE   C4A 1724  10.467  12.946   6.001
  144DVPE   C1B 1725  11.259  12.387   7.355
  144DVPE   C2B 1726  11.202  12.450   6.855
  144DVPE   D3B 1727  11.197  12.658   6.441
  144DVPE   C4B 1728  11.101  12.671   5.953
  145DVPE   NH3 1729  11.502   1.173   8.283
  145DVPE   PO4 1730  11.643   0.962   8.037
  145DVPE   GL1 1731  11.282   0.934   7.837
  145DVPE   GL2 1732  11.228   1.263   7.906
  145DVPE   C1A 1733  11.211   0.838   7.393
  145DVPE   C2A 1734  11.294   0.813   6.872
  145DVPE   D3A 1735  11.525   0.828   6.438
  145DVPE   C4A 1736  11.304   0.794   6.003
  145DVPE   C1B 1737  11.132   1.436   7.498
  145DVPE   C2B 1738  11.109   1.303   6.992
  145DVPE   D3B 1739  11.378   1.268   6.594
  145DVPE   C4B 1740  11.119   1.247   6.172
  146DVPE   NH3 1741  11.281   2.038   8.428
  146DVPE   PO4 1742  11.070   2.058   8.177
  146DVPE   GL1 1743  11.325   2.227   7.876
  146DVPE   GL2 1744  11.121   2.284   7.680
  146DVPE   C1A 1745  11.619   2.137   7.564
  146DVPE   C2A 1746  11.710   2.051   7.064
  146DVPE   D3A 1747  11.545   1.982   6.634
  146DVPE   C4A 1748  11.115   2.093   6.446
  146DVPE   C1B 1749  11.189   2.096   7.294
  146DVPE   C2B 1750  11.136   1.813   6.892
  146DVPE   D3B 1751  11.003   1.568   6.542
  146DVPE   C4B 1752  11.373   1.674   6.268
  147DVPE   NH3 1753  11.621   5.099   8.289
  147DVPE   PO4 1754  11.533   5.320   8.026
  147DVPE   GL1 1755  11.256   5.141   7.796
  147DVPE   GL2 1756  11.004   5.219   7.804
  147DVPE   C1A 1757  11.275   5.100   7.367
  147DVPE   C2A 1758  11.189   5.185   6.867
  147DVPE   D3A 1759  11.299   5.575   6.650
  147DVPE   C4A 1760  11.633   5.228   6.582
  147DVPE   C1B 1761  10.789   5.209   7.411
  147DVPE   C2B 1762  10.693   5.087   6.931
  147DVPE   D3B 1763  10.797   4.974   6.489
  147DVPE   C4B 1764  11.239   4.990   6.321
  148DVPE   NH3 1765  11.389   6.225   8.035
  148DVPE   PO4 1766  11.545   5.916   8.125
  148DVPE   GL1 1767  11.472   5.708   7.746
  148DVPE   GL2 1768  11.268   5.933   7.704
  148DVPE   C1A 1769  11.493   5.579   7.335
  148DVPE   C2A 1770  11.732   5.640   6.888
  148DVPE   D3A 1771  11.940   5.630   6.470
  148DVPE   C4A 1772  11.834   5.821   6.045
  148DVPE   C1B 1773  11.460   6.100   7.376
  148DVPE   C2B 1774  11.616   6.135   6.902
  148DVPE   D3B 1775  11.551   5.995   6.454
  148DVPE   C4B 1776  11.137   5.905   6.286
  149DVPE   NH3 1777  11.585   7.265   8.217
  149DVPE   PO4 1778  11.501   7.593   8.095
  149DVPE   GL1 1779  11.751   7.414   7.784
  149DVPE   GL2 1780  11.574   7.163   7.765
  149DVPE   C1A 1781  11.756   7.614   7.395
  149DVPE   C2A 1782  11.615   7.782   6.921
  149DVPE   D3A 1783  11.418   7.870   6.500
  149DVPE   C4A 1784  11.733   7.521   6.490
  149DVPE   C1B 1785  11.305   7.307   7.437
  149DVPE   C2B 1786  11.166   7.460   6.955
  149DVPE   D3B 1787  11.237   7.375   6.495
  149DVPE   C4B 1788  11.435   7.562   6.090
  150DVPE   NH3 1789  11.549   8.105   8.367
  150DVPE   PO4 1790  11.738   8.067   8.077
  150DVPE   GL1 1791  11.593   7.914   7.725
  150DVPE   GL2 1792  11.369   8.114   7.697
  150DVPE   C1A 1793  11.756   8.119   7.374
  150DVPE   C2A 1794  11.736   8.290   6.896
  150DVPE   D3A 1795  11.720   8.284   6.437
  150DVPE   C4A 1796  11.875   7.906   6.184
  150DVPE   C1B 1797  11.310   8.385   7.340
  150DVPE   C2B 1798  11.345   8.641   6.891
  150DVPE   D3B 1799  11.479   8.754   6.458
  150DVPE   C4B 1800  11.754   8.643   6.069
  151DVPE   NH3 1801  11.383   9.632   8.195
  151DVPE   PO4 1802  11.697   9.774   8.118
  151DVPE   GL1 1803  11.736   9.773   7.754
  151DVPE   GL2 1804  11.842  10.048   7.723
  151DVPE   C1A 1805  11.510   9.610   7.424
  151DVPE   C2A 1806  11.571   9.744   6.934
  151DVPE   D3A 1807  11.633   9.864   6.497
  151DVPE   C4A 1808  11.396   9.574   6.200
  151DVPE   C1B 1809  11.712  10.080   7.317
  151DVPE   C2B 1810  11.797  10.234   6.846
  151DVPE   D3B 1811  12.007  10.227   6.430
  151DVPE   C4B 1812  11.903   9.979   6.032
  152DVPE   NH3 1813  11.724  10.173   8.431
  152DVPE   PO4 1814  11.388  10.122   8.353
  152DVPE   GL1 1815  11.292  10.379   8.039
  152DVPE   GL2 1816  11.605  10.323   7.973
  152DVPE   C1A 1817  11.194  10.496   7.634
  152DVPE   C2A 1818  11.289  10.473   7.128
  152DVPE   D3A 1819  11.293  10.196   6.738
  152DVPE   C4A 1820  11.551  10.441   6.414
  152DVPE   C1B 1821  11.695  10.510   7.579
  152DVPE   C2B 1822  11.751  10.718   7.099
  152DVPE   D3B 1823  11.978  10.759   6.686
  152DVPE   C4B 1824  11.958  10.683   6.210
  153DVPE   NH3 1825  11.317  10.952   8.623
  153DVPE   PO4 1826  11.281  11.053   8.301
  153DVPE   GL1 1827  11.205  10.827   7.986
  153DVPE   GL2 1828  11.487  10.779   7.892
  153DVPE   C1A 1829  11.129  10.992   7.606
  153DVPE   C2A 1830  11.252  11.085   7.130
  153DVPE   D3A 1831  11.253  11.184   6.686
  153DVPE   C4A 1832  11.581  10.961   6.433
  153DVPE   C1B 1833  11.624  11.019   7.525
  153DVPE   C2B 1834  11.750  11.260   7.081
  153DVPE   D3B 1835  11.708  11.421   6.642
  153DVPE   C4B 1836  11.318  11.648   6.474
  154DVPE   NH3 1837  11.449  11.821   8.244
  154DVPE   PO4 1838  11.379  11.511   8.100
  154DVPE   GL1 1839  11.486  11.665   7.766
  154DVPE   GL2 1840  11.428  11.967   7.805
  154DVPE   C1A 1841  11.409  11.517   7.375
  154DVPE   C2A 1842  11.512  11.777   6.948
  154DVPE   D3A 1843  11.703  11.959   6.553
  154DVPE   C4A 1844  11.313  12.158   6.370
  154DVPE   C1B 1845  11.664  12.149   7.492
  154DVPE   C2B 1846  11.721  12.244   7.000
  154DVPE   D3B 1847  11.638  12.462   6.596
  154DVPE   C4B 1848  11.570  12.530   6.142
  155DVPE   NH3 1849  11.702  12.561   8.298
  155DVPE   PO4 1850  11.542  12.314   8.113
  155DVPE   GL1 1851  11.870  12.486   7.806
  155DVPE   GL2 1852  11.606  12.615   7.783
  155DVPE   C1A 1853  11.992  12.547   7.358
  155DVPE   C2A 1854  12.039  12.595   6.826
  155DVPE   D3A 1855  12.021  12.691   6.337
  155DVPE   C4A 1856  11.958  12.566   5.842
  155DVPE   C1B 1857  11.528  12.831   7.422
  155DVPE   C2B 1858  11.305  12.959   6.987
  155DVPE   D3B 1859  11.197  13.151   6.586
  155DVPE   C4B 1860  11.656  12.978   6.573
  156DVPE   NH3 1861  11.520  13.949   8.077
  156DVPE   PO4 1862  11.777  13.729   8.021
  156DVPE   GL1 1863  11.648  13.772   7.638
  156DVPE   GL2 1864  11.379  13.674   7.717
  156DVPE   C1A 1865  11.775  13.707   7.225
  156DVPE   C2A 1866  11.898  13.807   6.741
  156DVPE   D3A 1867  11.781  13.921   6.304
  156DVPE   C4A 1868  11.855  13.899   5.826
  156DVPE   C1B 1869  11.316  13.329   7.464
  156DVPE   C2B 1870  11.327  13.465   6.974
  156DVPE   D3B 1871  11.504  13.550   6.542
  156DVPE   C4B 1872  11.665  13.474   6.095
  157DVPE   NH3 1873  12.014   6.110   8.216
  157DVPE   PO4 1874  11.871   6.394   8.064
  157DVPE   GL1 1875  11.748   6.198   7.746
  157DVPE   GL2 1876  11.851   5.945   7.774
  157DVPE   C1A 1877  11.864   6.403   7.376
  157DVPE   C2A 1878  12.111   6.451   6.928
  157DVPE   D3A 1879  12.053   6.661   6.502
  157DVPE   C4A 1880  11.608   6.515   6.577
  157DVPE   C1B 1881  11.931   5.855   7.350
  157DVPE   C2B 1882  12.226   5.766   6.932
  157DVPE   D3B 1883  12.394   5.903   6.521
  157DVPE   C4B 1884  12.006   6.151   6.540
  158DVPE   NH3 1885  12.213   8.946   7.983
  158DVPE   PO4 1886  12.080   9.133   7.718
  158DVPE   GL1 1887  12.469   9.271   7.492
  158DVPE   GL2 1888  12.553   9.001   7.639
  158DVPE   C1A 1889  12.625   9.236   7.045
  158DVPE   C2A 1890  12.772   9.095   6.551
  158DVPE   D3A 1891  12.842   9.041   6.073
  158DVPE   C4A 1892  12.496   9.025   5.725
  158DVPE   C1B 1893  12.453   8.791   7.254
  158DVPE   C2B 1894  12.343   8.900   6.753
  158DVPE   D3B 1895  12.397   8.928   6.269
  158DVPE   C4B 1896  12.247   8.624   5.939
  159DVPE   NH3 1897  12.419  10.017   7.945
  159DVPE   PO4 1898  12.122  10.139   8.091
  159DVPE   GL1 1899  12.159  10.375   7.733
  159DVPE   GL2 1900  12.448  10.371   7.674
  159DVPE   C1A 1901  12.114  10.432   7.310
  159DVPE   C2A 1902  12.292  10.366   6.843
  159DVPE   D3A 1903  12.522  10.319   6.448
  159DVPE   C4A 1904  12.304  10.350   6.027
  159DVPE   C1B 1905  12.541  10.700   7.405
  159DVPE   C2B 1906  12.428  10.864   6.936
  159DVPE   D3B 1907  12.454  10.831   6.466
  159DVPE   C4B 1908  12.790  11.026   6.170
  160DVPE   NH3 1909  12.307  11.959   8.092
  160DVPE   PO4 1910  12.067  12.210   8.168
  160DVPE   GL1 1911  11.874  12.048   7.884
  160DVPE   GL2 1912  11.894  11.777   7.861
  160DVPE   C1A 1913  12.174  12.105   7.553
  160DVPE   C2A 1914  12.273  12.173   7.070
  160DVPE   D3A 1915  12.257  12.160   6.614
  160DVPE   C4A 1916  12.006  12.204   6.214
  160DVPE   C1B 1917  11.881  11.706   7.411
  160DVPE   C2B 1918  12.010  11.759   6.902
  160DVPE   D3B 1919  12.118  11.682   6.437
  160DVPE   C4B 1920  11.727  11.569   6.160
  161DVPE   NH3 1921  12.195  12.701   8.120
  161DVPE   PO4 1922  12.428  12.856   8.336
  161DVPE   GL1 1923  12.523  12.984   7.932
  161DVPE   GL2 1924  12.640  12.704   7.901
  161DVPE   C1A 1925  12.178  12.974   7.641
  161DVPE   C2A 1926  12.191  12.989   7.143
  161DVPE   D3A 1927  12.240  13.020   6.690
  161DVPE   C4A 1928  12.379  13.066   6.251
  161DVPE   C1B 1929  12.544  12.633   7.469
  161DVPE   C2B 1930  12.512  12.617   6.955
  161DVPE   D3B 1931  12.505  12.622   6.480
  161DVPE   C4B 1932  12.414  12.637   5.995
  162DVPE   NH3 1933  12.201   2.862   8.349
  162DVPE   PO4 1934  12.447   2.684   8.192
  162DVPE   GL1 1935  12.244   3.016   7.914
  162DVPE   GL2 1936  12.046   2.778   7.918
  162DVPE   C1A 1937  12.084   3.065   7.501
  162DVPE   C2A 1938  12.095   2.964   7.000
  162DVPE   D3A 1939  12.118   2.919   6.533
  162DVPE   C4A 1940  12.149   3.146   6.109
  162DVPE   C1B 1941  12.236   2.596   7.576
  162DVPE   C2B 1942  12.353   2.507   7.101
  162DVPE   D3B 1943  12.382   2.490   6.651
  162DVPE   C4B 1944  12.470   2.159   6.345
  163DVPE   NH3 1945  13.155   9.263   7.969
  163DVPE   PO4 1946  12.898   9.295   7.736
  163DVPE   GL1 1947  12.862   9.651   7.538
  163DVPE   GL2 1948  12.570   9.698   7.604
  163DVPE   C1A 1949  13.002   9.630   7.130
  163DVPE   C2A 1950  13.134   9.401   6.702
  163DVPE   D3A 1951  13.271   9.118   6.358
  163DVPE   C4A 1952  13.243   9.356   5.946
  163DVPE   C1B 1953  12.490   9.706   7.181
  163DVPE   C2B 1954  12.678   9.666   6.696
  163DVPE   D3B 1955  12.863   9.530   6.276
  163DVPE   C4B 1956  12.810   9.601   5.793
  164DVPE   NH3 1957  13.169  10.135   7.992
  164DVPE   PO4 1958  12.852  10.281   7.989
  164DVPE   GL1 1959  12.780  10.083   7.635
  164DVPE   GL2 1960  13.064  10.055   7.540
  164DVPE   C1A 1961  12.592  10.209   7.259
  164DVPE   C2A 1962  12.783  10.502   6.876
  164DVPE   D3A 1963  12.965  10.618   6.463
  164DVPE   C4A 1964  12.768  10.541   6.035
  164DVPE   C1B 1965  13.074  10.131   7.094
  164DVPE   C2B 1966  12.962  10.084   6.590
  164DVPE   D3B 1967  12.800  10.017   6.142
  164DVPE   C4B 1968  12.806  10.173   5.688
  165DVPE   NH3 1969  12.907  13.503   8.246
  165DVPE   PO4 1970  12.595  13.363   8.197
  165DVPE   GL1 1971  12.677  13.390   7.815
  165DVPE   GL2 1972  12.915  13.581   7.795
  165DVPE   C1A 1973  12.610  13.155   7.450
  165DVPE   C2A 1974  12.671  13.117   6.944
  165DVPE   D3A 1975  12.652  13.349   6.549
  165DVPE   C4A 1976  12.742  13.377   6.083
  165DVPE   C1B 1977  12.952  13.538   7.365
  165DVPE   C2B 1978  12.980  13.598   6.854
  165DVPE   D3B 1979  12.930  13.744   6.404
  165DVPE   C4B 1980  13.107  13.711   5.945
  166DVPE   NH3 1981  12.843   2.499   8.456
  166DVPE   PO4 1982  13.123   2.555   8.266
  166DVPE   GL1 1983  12.801   2.455   7.956
  166DVPE   GL2 1984  12.993   2.313   7.810
  166DVPE   C1A 1985  12.734   2.649   7.565
  166DVPE   C2A 1986  12.836   2.631   7.057
  166DVPE   D3A 1987  12.867   2.560   6.585
  166DVPE   C4A 1988  12.594   2.632   6.200
  166DVPE   C1B 1989  12.916   2.218   7.373
  166DVPE   C2B 1990  12.745   2.154   6.890
  166DVPE   D3B 1991  12.784   1.828   6.554
  166DVPE   C4B 1992  13.180   2.099   6.598
  167DVPE   NH3 1993  12.735   2.993   8.459
  167DVPE   PO4 1994  12.561   3.225   8.288
  167DVPE   GL1 1995  12.670   3.052   7.980
  167DVPE   GL2 1996  12.870   2.869   8.013
  167DVPE   C1A 1997  12.605   3.152   7.578
  167DVPE   C2A 1998  12.704   3.245   7.103
  167DVPE   D3A 1999  12.556   2.946   6.801
  167DVPE   C4A 2000  12.593   3.100   6.385
  167DVPE   C1B 2001  13.106   2.972   7.651
  167DVPE   C2B 2002  13.152   3.014   7.142
  167DVPE   D3B 2003  13.054   3.022   6.696
  167DVPE   C4B 2004  13.038   2.922   6.234
  168DVPE   NH3 2005  12.822   3.651   8.234
  168DVPE   PO4 2006  12.900   3.881   7.989
  168DVPE   GL1 2007  12.647   3.530   7.835
  168DVPE   GL2 2008  12.927   3.392   7.842
  168DVPE   C1A 2009  12.633   3.648   7.424
  168DVPE   C2A 2010  12.722   3.790   6.956
  168DVPE   D3A 2011  12.658   3.992   6.551
  168DVPE   C4A 2012  12.222   4.004   6.364
  168DVPE   C1B 2013  13.103   3.439   7.437
  168DVPE   C2B 2014  13.137   3.475   6.927
  168DVPE   D3B 2015  12.873   3.505   6.555
  168DVPE   C4B 2016  12.913   3.417   6.090
  169DVPE   NH3 2017  13.206   6.966   8.165
  169DVPE   PO4 2018  13.547   6.988   8.076
  169DVPE   GL1 2019  13.301   6.960   7.707
  169DVPE   GL2 2020  13.557   7.098   7.587
  169DVPE   C1A 2021  13.218   6.677   7.389
  169DVPE   C2A 2022  13.359   6.776   6.919
  169DVPE   D3A 2023  13.358   6.741   6.482
  169DVPE   C4A 2024  13.462   6.529   6.073
  169DVPE   C1B 2025  13.703   6.794   7.283
  169DVPE   C2B 2026  13.867   6.544   6.863
  169DVPE   D3B 2027  13.836   6.511   6.400
  169DVPE   C4B 2028  13.719   6.948   6.234
  170DVPE   NH3 2029  13.436   8.553   8.046
  170DVPE   PO4 2030  13.775   8.561   7.970
  170DVPE   GL1 2031  13.771   8.845   7.663
  170DVPE   GL2 2032  13.478   8.763   7.626
  170DVPE   C1A 2033  13.795   8.957   7.248
  170DVPE   C2A 2034  13.673   8.788   6.785
  170DVPE   D3A 2035  13.555   8.670   6.353
  170DVPE   C4A 2036  13.595   8.954   5.970
  170DVPE   C1B 2037  13.623   8.466   7.317
  170DVPE   C2B 2038  13.721   8.258   6.851
  170DVPE   D3B 2039  13.715   8.196   6.387
  170DVPE   C4B 2040  13.676   8.365   5.935
  171DVPE   NH3 2041  13.882  10.197   8.207
  171DVPE   PO4 2042  13.669   9.994   8.013
  171DVPE   GL1 2043  13.757  10.309   7.753
  171DVPE   GL2 2044  13.472  10.245   7.641
  171DVPE   C1A 2045  13.956  10.416   7.392
  171DVPE   C2A 2046  13.828  10.449   6.898
  171DVPE   D3A 2047  13.579  10.210   6.585
  171DVPE   C4A 2048  13.990  10.264   6.343
  171DVPE   C1B 2049  13.498   9.954   7.308
  171DVPE   C2B 2050  13.436   9.783   6.831
  171DVPE   D3B 2051  13.320   9.782   6.369
  171DVPE   C4B 2052  13.258  10.240   6.203
  172DVPE   NH3 2053  13.439  11.063   8.018
  172DVPE   PO4 2054  13.297  10.965   7.724
  172DVPE   GL1 2055  13.552  10.680   7.522
  172DVPE   GL2 2056  13.763  10.769   7.729
  172DVPE   C1A 2057  13.602  10.899   7.122
  172DVPE   C2A 2058  13.565  11.243   6.724
  172DVPE   D3A 2059  13.496  11.463   6.301
  172DVPE   C4A 2060  13.828  11.516   5.953
  172DVPE   C1B 2061  13.900  11.167   7.586
  172DVPE   C2B 2062  13.990  11.242   7.088
  172DVPE   D3B 2063  13.973  10.941   6.723
  172DVPE   C4B 2064   0.014  11.252   6.356
  173DVPE   NH3 2065  13.668  13.751   7.927
  173DVPE   PO4 2066  13.359  13.611   8.037
  173DVPE   GL1 2067  13.343  13.419   7.646
  173DVPE   GL2 2068  13.646  13.361   7.655
  173DVPE   C1A 2069  13.416  13.401   7.212
  173DVPE   C2A 2070  13.498  13.567   6.739
  173DVPE   D3A 2071  13.431  13.766   6.332
  173DVPE   C4A 2072  13.223  13.334   6.293
  173DVPE   C1B 2073  13.927  13.420   7.299
  173DVPE   C2B 2074   0.007  13.679   6.849
  173DVPE   D3B 2075  13.930  13.766   6.399
  173DVPE   C4B 2076  13.756  13.318   6.365
  174POPE   NH3 2077   0.576   7.609   8.315
  174POPE   PO4 2078   0.296   7.564   8.132
  174POPE   GL1 2079   0.604   7.533   7.828
  174POPE   GL2 2080   0.499   7.824   7.791
  174POPE   C1A 2081   0.426   7.472   7.440
  174POPE   D2A 2082   0.087   7.526   7.087
  174POPE   C3A 2083   0.189   7.420   6.655
  174POPE   C4A 2084   0.544   7.246   6.369
  174POPE   C1B 2085   0.303   7.913   7.474
  174POPE   C2B 2086   0.147   8.019   7.090
  174POPE   C3B 2087   0.088   7.932   6.612
  174POPE   C4B 2088   0.247   7.680   6.212
  175POPE   NH3 2089   0.373   8.468   8.389
  175POPE   PO4 2090   0.523   8.574   8.081
  175POPE   GL1 2091   0.209   8.597   7.821
  175POPE   GL2 2092   0.198   8.881   7.731
  175POPE   C1A 2093   0.146   8.339   7.479
  175POPE   D2A 2094   0.543   8.337   7.157
  175POPE   C3A 2095   0.562   8.463   6.699
  175POPE   C4A 2096   0.588   8.513   6.194
  175POPE   C1B 2097   0.196   8.773   7.376
  175POPE   C2B 2098   0.111   8.587   7.007
  175POPE   C3B 2099   0.078   8.542   6.521
  175POPE   C4B 2100   0.058   8.677   6.043
  176POPE   NH3 2101   0.310   9.916   7.686
  176POPE   PO4 2102   0.321  10.135   7.965
  176POPE   GL1 2103   0.777  10.149   7.847
  176POPE   GL2 2104   0.724  10.447   7.856
  176POPE   C1A 2105   0.751  10.061   7.412
  176POPE   D2A 2106   0.343   9.906   7.149
  176POPE   C3A 2107   0.312   9.893   6.685
  176POPE   C4A 2108   0.719   9.697   6.459
  176POPE   C1B 2109   0.535  10.492   7.537
  176POPE   C2B 2110   0.427  10.408   7.142
  176POPE   C3B 2111   0.300  10.495   6.677
  176POPE   C4B 2112   0.605  10.529   6.283
  177POPE   NH3 2113   0.560  11.279   8.258
  177POPE   PO4 2114   0.325  11.039   8.186
  177POPE   GL1 2115   0.398  10.978   7.808
  177POPE   GL2 2116   0.211  10.725   7.796
  177POPE   C1A 2117   0.388  11.245   7.445
  177POPE   D2A 2118   0.421  11.604   7.105
  177POPE   C3A 2119   0.369  11.564   6.649
  177POPE   C4A 2120   0.497  11.371   6.217
  177POPE   C1B 2121   0.190  10.811   7.436
  177POPE   C2B 2122   0.383  10.898   7.082
  177POPE   C3B 2123   0.727  10.733   6.812
  177POPE   C4B 2124   0.430  10.972   6.512
  178POPE   NH3 2125   0.607   1.047   8.064
  178POPE   PO4 2126   0.316   1.202   7.932
  178POPE   GL1 2127   0.493   1.189   7.561
  178POPE   GL2 2128   0.586   0.895   7.603
  178POPE   C1A 2129   0.427   1.251   7.126
  178POPE   D2A 2130   0.371   1.303   6.632
  178POPE   C3A 2131   0.535   1.530   6.264
  178POPE   C4A 2132   0.657   1.515   5.781
  178POPE   C1B 2133   0.568   0.772   7.252
  178POPE   C2B 2134   0.503   0.758   6.839
  178POPE   C3B 2135   0.418   0.841   6.366
  178POPE   C4B 2136   0.335   1.147   5.983
  179POPE   NH3 2137   0.427   2.104   8.222
  179POPE   PO4 2138   0.682   1.941   8.073
  179POPE   GL1 2139   0.480   2.051   7.718
  179POPE   GL2 2140   0.530   2.333   7.789
  179POPE   C1A 2141   0.378   2.073   7.293
  179POPE   D2A 2142   0.101   2.054   6.872
  179POPE   C3A 2143   0.114   1.740   6.514
  179POPE   C4A 2144   0.077   1.620   6.027
  179POPE   C1B 2145   0.321   2.522   7.562
  179POPE   C2B 2146   0.174   2.560   7.184
  179POPE   C3B 2147   0.045   2.578   6.723
  179POPE   C4B 2148   0.114   2.232   6.371
  180POPE   NH3 2149   1.125  10.432   8.154
  180POPE   PO4 2150   1.261  10.760   8.117
  180POPE   GL1 2151   1.405  10.638   7.721
  180POPE   GL2 2152   1.162  10.444   7.704
  180POPE   C1A 2153   1.387  10.658   7.282
  180POPE   D2A 2154   1.253  10.768   6.819
  180POPE   C3A 2155   1.066  10.494   6.530
  180POPE   C4A 2156   0.697  10.188   6.640
  180POPE   C1B 2157   0.965  10.483   7.398
  180POPE   C2B 2158   0.996  10.336   7.016
  180POPE   C3B 2159   1.167  10.039   6.659
  180POPE   C4B 2160   1.410   9.787   6.319
  181POPE   NH3 2161   1.058  13.544   8.183
  181POPE   PO4 2162   1.021  13.851   8.010
  181POPE   GL1 2163   1.127  13.458   7.748
  181POPE   GL2 2164   1.371  13.610   7.770
  181POPE   C1A 2165   0.993  13.388   7.323
  181POPE   D2A 2166   0.869  13.301   6.839
  181POPE   C3A 2167   0.858  13.541   6.432
  181POPE   C4A 2168   1.156  13.743   6.074
  181POPE   C1B 2169   1.228  13.783   7.478
  181POPE   C2B 2170   1.115  13.865   7.100
  181POPE   C3B 2171   1.058  13.930   6.646
  181POPE   C4B 2172   0.851   0.083   6.232
  182POPE   NH3 2173   0.829   3.503   8.095
  182POPE   PO4 2174   0.633   3.644   7.863
  182POPE   GL1 2175   0.749   3.265   7.654
  182POPE   GL2 2176   1.037   3.285   7.746
  182POPE   C1A 2177   0.860   3.202   7.223
  182POPE   D2A 2178   0.936   3.228   6.732
  182POPE   C3A 2179   0.915   3.341   6.265
  182POPE   C4A 2180   1.005   3.639   5.864
  182POPE   C1B 2181   1.232   3.395   7.451
  182POPE   C2B 2182   1.432   3.419   7.087
  182POPE   C3B 2183   1.413   3.403   6.608
  182POPE   C4B 2184   1.400   3.372   6.113
  183POPE   NH3 2185   1.556  11.873   8.126
  183POPE   PO4 2186   1.830  11.683   8.027
  183POPE   GL1 2187   2.156  11.798   7.755
  183POPE   GL2 2188   2.062  12.094   7.839
  183POPE   C1A 2189   2.141  11.652   7.311
  183POPE   D2A 2190   2.119  11.493   6.830
  183POPE   C3A 2191   1.897  11.743   6.489
  183POPE   C4A 2192   2.004  11.914   6.038
  183POPE   C1B 2193   1.829  12.085   7.547
  183POPE   C2B 2194   1.793  12.026   7.138
  183POPE   C3B 2195   1.798  12.191   6.689
  183POPE   C4B 2196   1.673  12.258   6.217
  184POPE   NH3 2197   1.689  12.537   8.331
  184POPE   PO4 2198   1.703  12.331   8.063
  184POPE   GL1 2199   1.827  12.524   7.758
  184POPE   GL2 2200   1.579  12.692   7.734
  184POPE   C1A 2201   1.906  12.508   7.344
  184POPE   D2A 2202   1.914  12.673   6.885
  184POPE   C3A 2203   1.787  12.691   6.451
  184POPE   C4A 2204   2.145  12.656   6.151
  184POPE   C1B 2205   1.531  12.788   7.384
  184POPE   C2B 2206   1.498  12.978   7.025
  184POPE   C3B 2207   1.651  13.145   6.608
  184POPE   C4B 2208   1.872  13.135   6.161
  185POPE   NH3 2209   1.841  13.408   8.192
  185POPE   PO4 2210   1.509  13.323   8.109
  185POPE   GL1 2211   1.673  13.295   7.746
  185POPE   GL2 2212   1.927  13.390   7.735
  185POPE   C1A 2213   1.512  13.400   7.359
  185POPE   D2A 2214   1.343  13.465   6.899
  185POPE   C3A 2215   1.396  13.543   6.452
  185POPE   C4A 2216   1.612  13.542   6.008
  185POPE   C1B 2217   1.966  13.518   7.395
  185POPE   C2B 2218   1.842  13.611   7.012
  185POPE   C3B 2219   1.905  13.597   6.530
  185POPE   C4B 2220   2.118  13.606   6.094
  186POPE   NH3 2221   1.585   1.821   7.907
  186POPE   PO4 2222   1.616   2.135   7.740
  186POPE   GL1 2223   1.309   2.065   7.469
  186POPE   GL2 2224   1.316   1.776   7.531
  186POPE   C1A 2225   1.386   2.028   7.032
  186POPE   D2A 2226   1.398   2.014   6.538
  186POPE   C3A 2227   1.227   2.017   6.112
  186POPE   C4A 2228   1.054   1.925   5.652
  186POPE   C1B 2229   1.400   1.598   7.212
  186POPE   C2B 2230   1.461   1.567   6.800
  186POPE   C3B 2231   1.527   1.595   6.319
  186POPE   C4B 2232   1.516   1.717   5.835
  187POPE   NH3 2233   2.242   2.227   8.093
  187POPE   PO4 2234   2.030   2.410   7.885
  187POPE   GL1 2235   2.305   2.553   7.589
  187POPE   GL2 2236   2.421   2.262   7.647
  187POPE   C1A 2237   2.338   2.418   7.173
  187POPE   D2A 2238   2.559   2.062   6.911
  187POPE   C3A 2239   2.305   2.109   6.525
  187POPE   C4A 2240   2.247   2.225   6.061
  187POPE   C1B 2241   2.347   2.012   7.380
  187POPE   C2B 2242   2.070   1.946   7.075
  187POPE   C3B 2243   1.873   1.853   6.642
  187POPE   C4B 2244   1.929   1.843   6.145
  188POPE   NH3 2245   1.908   3.594   8.030
  188POPE   PO4 2246   2.212   3.422   8.051
  188POPE   GL1 2247   2.425   3.421   7.734
  188POPE   GL2 2248   2.609   3.659   7.758
  188POPE   C1A 2249   2.355   3.394   7.326
  188POPE   D2A 2250   2.488   3.357   6.867
  188POPE   C3A 2251   2.322   3.068   6.565
  188POPE   C4A 2252   2.335   3.209   6.102
  188POPE   C1B 2253   2.717   3.680   7.401
  188POPE   C2B 2254   2.833   3.708   7.006
  188POPE   C3B 2255   2.786   3.664   6.535
  188POPE   C4B 2256   2.713   3.603   6.059
  189POPE   NH3 2257   2.767   4.621   8.012
  189POPE   PO4 2258   2.456   4.788   7.941
  189POPE   GL1 2259   2.628   4.989   7.627
  189POPE   GL2 2260   2.902   4.900   7.655
  189POPE   C1A 2261   2.506   4.947   7.201
  189POPE   D2A 2262   2.288   4.904   6.758
  189POPE   C3A 2263   2.561   4.916   6.388
  189POPE   C4A 2264   2.503   5.093   5.945
  189POPE   C1B 2265   3.033   5.052   7.340
  189POPE   C2B 2266   3.072   5.002   6.933
  189POPE   C3B 2267   3.065   4.913   6.464
  189POPE   C4B 2268   2.965   4.850   5.988
  190POPE   NH3 2269   2.921   2.940   8.013
  190POPE   PO4 2270   2.691   3.193   8.043
  190POPE   GL1 2271   2.873   3.300   7.686
  190POPE   GL2 2272   3.159   3.250   7.765
  190POPE   C1A 2273   2.875   3.244   7.253
  190POPE   D2A 2274   2.958   3.205   6.760
  190POPE   C3A 2275   2.767   3.191   6.351
  190POPE   C4A 2276   2.933   3.187   5.883
  190POPE   C1B 2277   3.354   3.252   7.465
  190POPE   C2B 2278   3.503   3.016   7.175
  190POPE   C3B 2279   3.454   3.027   6.703
  190POPE   C4B 2280   3.249   3.107   6.273
  191POPE   NH3 2281   2.762   5.148   8.114
  191POPE   PO4 2282   2.949   5.303   7.867
  191POPE   GL1 2283   2.714   5.559   7.654
  191POPE   GL2 2284   2.939   5.776   7.708
  191POPE   C1A 2285   2.693   5.427   7.231
  191POPE   D2A 2286   2.698   5.285   6.752
  191POPE   C3A 2287   2.815   5.339   6.309
  191POPE   C4A 2288   2.944   5.344   5.841
  191POPE   C1B 2289   3.079   5.705   7.381
  191POPE   C2B 2290   3.141   5.515   7.021
  191POPE   C3B 2291   3.257   5.354   6.591
  191POPE   C4B 2292   3.351   5.424   6.127
  192POPE   NH3 2293   3.464   7.585   8.500
  192POPE   PO4 2294   3.471   7.747   8.201
  192POPE   GL1 2295   3.375   7.559   7.840
  192POPE   GL2 2296   3.082   7.557   7.864
  192POPE   C1A 2297   3.381   7.760   7.451
  192POPE   D2A 2298   3.180   8.118   7.178
  192POPE   C3A 2299   3.254   8.116   6.723
  192POPE   C4A 2300   3.472   8.084   6.288
  192POPE   C1B 2301   2.922   7.731   7.556
  192POPE   C2B 2302   2.853   7.739   7.131
  192POPE   C3B 2303   2.793   7.882   6.641
  192POPE   C4B 2304   2.900   7.910   6.131
  193POPE   NH3 2305   2.905   8.829   8.224
  193POPE   PO4 2306   3.231   8.733   8.123
  193POPE   GL1 2307   3.066   8.952   7.813
  193POPE   GL2 2308   2.895   8.685   7.753
  193POPE   C1A 2309   3.226   8.904   7.438
  193POPE   D2A 2310   3.031   8.624   7.095
  193POPE   C3A 2311   3.216   8.627   6.683
  193POPE   C4A 2312   3.072   8.376   6.289
  193POPE   C1B 2313   3.133   8.470   7.548
  193POPE   C2B 2314   3.490   8.481   7.308
  193POPE   C3B 2315   3.658   8.440   6.850
  193POPE   C4B 2316   3.620   8.544   6.371
  194POPE   NH3 2317   2.950  10.109   7.891
  194POPE   PO4 2318   3.180  10.092   8.147
  194POPE   GL1 2319   3.408  10.290   7.869
  194POPE   GL2 2320   3.285  10.553   7.878
  194POPE   C1A 2321   3.433  10.135   7.456
  194POPE   D2A 2322   3.543  10.124   6.982
  194POPE   C3A 2323   3.433   9.945   6.570
  194POPE   C4A 2324   3.338  10.210   6.159
  194POPE   C1B 2325   3.130  10.500   7.546
  194POPE   C2B 2326   3.135  10.422   7.136
  194POPE   C3B 2327   3.157  10.383   6.655
  194POPE   C4B 2328   2.931  10.530   6.241
  195POPE   NH3 2329   3.005  11.750   8.166
  195POPE   PO4 2330   2.945  11.996   7.932
  195POPE   GL1 2331   3.078  11.771   7.594
  195POPE   GL2 2332   2.950  11.524   7.671
  195POPE   C1A 2333   3.098  11.729   7.148
  195POPE   D2A 2334   3.134  11.835   6.664
  195POPE   C3A 2335   3.325  12.177   6.397
  195POPE   C4A 2336   3.303  12.119   5.897
  195POPE   C1B 2337   3.110  11.326   7.398
  195POPE   C2B 2338   3.384  11.314   7.073
  195POPE   C3B 2339   3.508  11.502   6.646
  195POPE   C4B 2340   3.332  11.699   6.209
  196POPE   NH3 2341   3.851   3.411   8.187
  196POPE   PO4 2342   3.890   3.082   8.115
  196POPE   GL1 2343   3.654   3.250   7.783
  196POPE   GL2 2344   3.569   2.987   7.740
  196POPE   C1A 2345   3.792   3.396   7.383
  196POPE   D2A 2346   3.886   3.190   6.926
  196POPE   C3A 2347   3.733   3.443   6.579
  196POPE   C4A 2348   3.688   3.672   6.148
  196POPE   C1B 2349   3.839   2.925   7.500
  196POPE   C2B 2350   3.933   2.725   7.155
  196POPE   C3B 2351   3.864   2.732   6.688
  196POPE   C4B 2352   3.612   2.773   6.259
  197POPE   NH3 2353   4.002   9.403   8.161
  197POPE   PO4 2354   3.949   9.653   7.929
  197POPE   GL1 2355   3.807   9.364   7.718
  197POPE   GL2 2356   3.961   9.109   7.785
  197POPE   C1A 2357   3.610   9.223   7.368
  197POPE   D2A 2358   3.395   9.016   6.970
  197POPE   C3A 2359   3.658   8.997   6.589
  197POPE   C4A 2360   3.930   8.958   6.180
  197POPE   C1B 2361   3.949   8.918   7.459
  197POPE   C2B 2362   3.968   8.787   7.055
  197POPE   C3B 2363   4.071   8.670   6.585
  197POPE   C4B 2364   4.050   8.455   6.120
  198POPE   NH3 2365   3.680   9.966   8.267
  198POPE   PO4 2366   3.949  10.127   8.101
  198POPE   GL1 2367   3.775  10.068   7.747
  198POPE   GL2 2368   3.539   9.881   7.835
  198POPE   C1A 2369   3.926   9.952   7.342
  198POPE   D2A 2370   4.231   9.773   6.986
  198POPE   C3A 2371   3.925   9.956   6.706
  198POPE   C4A 2372   3.814   9.975   6.236
  198POPE   C1B 2373   3.476   9.672   7.540
  198POPE   C2B 2374   3.539   9.654   7.137
  198POPE   C3B 2375   3.697   9.500   6.714
  198POPE   C4B 2376   3.835   9.456   6.252
  199POPE   NH3 2377   4.788   7.846   8.305
  199POPE   PO4 2378   5.012   7.767   8.049
  199POPE   GL1 2379   4.777   7.748   7.672
  199POPE   GL2 2380   4.602   7.515   7.757
  199POPE   C1A 2381   4.710   7.760   7.217
  199POPE   D2A 2382   4.654   7.723   6.709
  199POPE   C3A 2383   4.606   7.555   6.253
  199POPE   C4A 2384   4.622   7.662   5.755
  199POPE   C1B 2385   4.362   7.560   7.466
  199POPE   C2B 2386   4.220   7.652   7.072
  199POPE   C3B 2387   4.164   7.687   6.594
  199POPE   C4B 2388   4.269   7.916   6.173
  200POPE   NH3 2389   4.290  11.788   8.291
  200POPE   PO4 2390   4.481  11.800   7.995
  200POPE   GL1 2391   4.809  12.100   7.848
  200POPE   GL2 2392   4.883  11.855   7.691
  200POPE   C1A 2393   4.762  12.307   7.447
  200POPE   D2A 2394   4.834  12.408   6.961
  200POPE   C3A 2395   4.743  12.093   6.619
  200POPE   C4A 2396   4.579  11.858   6.218
  200POPE   C1B 2397   4.628  11.836   7.412
  200POPE   C2B 2398   4.463  11.692   7.055
  200POPE   C3B 2399   4.531  11.526   6.606
  200POPE   C4B 2400   4.864  11.430   6.263
  201POPE   NH3 2401   4.477   0.528   7.986
  201POPE   PO4 2402   4.194   0.329   8.069
  201POPE   GL1 2403   4.260   0.222   7.710
  201POPE   GL2 2404   4.379  13.968   7.693
  201POPE   C1A 2405   4.339   0.487   7.372
  201POPE   D2A 2406   4.269   0.748   6.946
  201POPE   C3A 2407   4.126   0.502   6.563
  201POPE   C4A 2408   3.820   0.313   6.213
  201POPE   C1B 2409   4.275  13.996   7.334
  201POPE   C2B 2410   4.323   0.169   6.962
  201POPE   C3B 2411   4.596   0.227   6.586
  201POPE   C4B 2412   4.499   0.509   6.198
  202POPE   NH3 2413   4.813   0.941   7.927
  202POPE   PO4 2414   4.832   1.252   8.084
  202POPE   GL1 2415   4.759   1.419   7.740
  202POPE   GL2 2416   4.509   1.247   7.699
  202POPE   C1A 2417   4.962   1.349   7.361
  202POPE   D2A 2418   4.892   1.097   6.933
  202POPE   C3A 2419   4.696   1.222   6.531
  202POPE   C4A 2420   4.496   1.024   6.134
  202POPE   C1B 2421   4.480   1.364   7.347
  202POPE   C2B 2422   4.372   1.293   6.951
  202POPE   C3B 2423   4.170   1.186   6.513
  202POPE   C4B 2424   4.042   1.272   6.030
  203POPE   NH3 2425   5.249   9.556   8.339
  203POPE   PO4 2426   5.363   9.751   8.085
  203POPE   GL1 2427   5.097   9.656   7.782
  203POPE   GL2 2428   5.027   9.402   7.927
  203POPE   C1A 2429   5.247   9.456   7.417
  203POPE   D2A 2430   5.420   9.079   7.146
  203POPE   C3A 2431   5.456   9.228   6.714
  203POPE   C4A 2432   5.327   9.406   6.267
  203POPE   C1B 2433   5.059   9.109   7.690
  203POPE   C2B 2434   4.932   9.035   7.299
  203POPE   C3B 2435   5.016   9.337   6.933
  203POPE   C4B 2436   5.092   9.716   6.611
  204POPE   NH3 2437   5.311  12.820   8.111
  204POPE   PO4 2438   5.594  12.604   8.122
  204POPE   GL1 2439   5.584  12.546   7.694
  204POPE   GL2 2440   5.369  12.745   7.654
  204POPE   C1A 2441   5.455  12.464   7.275
  204POPE   D2A 2442   5.341  12.499   6.790
  204POPE   C3A 2443   4.986  12.528   6.475
  204POPE   C4A 2444   5.030  12.595   5.981
  204POPE   C1B 2445   5.525  12.928   7.371
  204POPE   C2B 2446   5.590  12.919   6.962
  204POPE   C3B 2447   5.292  12.977   6.567
  204POPE   C4B 2448   4.868  12.997   6.279
  205POPE   NH3 2449   5.547   1.152   8.220
  205POPE   PO4 2450   5.278   0.945   8.164
  205POPE   GL1 2451   5.225   1.179   7.852
  205POPE   GL2 2452   5.391   1.410   7.847
  205POPE   C1A 2453   5.229   0.945   7.496
  205POPE   D2A 2454   5.177   0.706   7.082
  205POPE   C3A 2455   5.333   0.879   6.682
  205POPE   C4A 2456   5.582   1.171   6.372
  205POPE   C1B 2457   5.423   1.381   7.472
  205POPE   C2B 2458   5.372   1.280   7.062
  205POPE   C3B 2459   5.188   1.361   6.610
  205POPE   C4B 2460   5.029   1.333   6.138
  206POPE   NH3 2461   5.017   3.175   7.983
  206POPE   PO4 2462   5.303   3.066   8.127
  206POPE   GL1 2463   5.477   2.899   7.834
  206POPE   GL2 2464   5.373   2.635   7.906
  206POPE   C1A 2465   5.216   2.992   7.481
  206POPE   D2A 2466   5.169   3.025   6.994
  206POPE   C3A 2467   5.044   3.049   6.556
  206POPE   C4A 2468   5.146   3.252   6.121
  206POPE   C1B 2469   5.295   2.534   7.574
  206POPE   C2B 2470   5.239   2.535   7.177
  206POPE   C3B 2471   5.170   2.563   6.702
  206POPE   C4B 2472   5.049   2.617   6.224
  207POPE   NH3 2473   6.065   5.434   8.005
  207POPE   PO4 2474   6.413   5.390   7.933
  207POPE   GL1 2475   6.527   5.492   7.538
  207POPE   GL2 2476   6.252   5.658   7.549
  207POPE   C1A 2477   6.557   5.403   7.094
  207POPE   D2A 2478   6.554   5.322   6.589
  207POPE   C3A 2479   6.363   5.279   6.144
  207POPE   C4A 2480   6.322   5.263   5.630
  207POPE   C1B 2481   6.317   5.815   7.215
  207POPE   C2B 2482   6.424   5.832   6.811
  207POPE   C3B 2483   6.508   5.748   6.338
  207POPE   C4B 2484   6.542   5.647   5.853
  208POPE   NH3 2485   6.031   6.627   8.245
  208POPE   PO4 2486   6.180   6.321   8.186
  208POPE   GL1 2487   6.258   6.497   7.786
  208POPE   GL2 2488   6.128   6.232   7.710
  208POPE   C1A 2489   6.341   6.547   7.341
  208POPE   D2A 2490   6.359   6.576   6.832
  208POPE   C3A 2491   6.073   6.601   6.466
  208POPE   C4A 2492   5.932   6.351   6.061
  208POPE   C1B 2493   6.070   6.168   7.353
  208POPE   C2B 2494   6.072   6.177   6.938
  208POPE   C3B 2495   6.163   6.110   6.463
  208POPE   C4B 2496   6.173   5.937   5.996
  209POPE   NH3 2497   5.757   7.746   7.978
  209POPE   PO4 2498   6.108   7.783   7.963
  209POPE   GL1 2499   6.273   7.724   7.595
  209POPE   GL2 2500   5.964   7.750   7.543
  209POPE   C1A 2501   6.383   7.833   7.193
  209POPE   D2A 2502   6.521   7.993   6.747
  209POPE   C3A 2503   6.282   7.690   6.503
  209POPE   C4A 2504   5.899   7.399   6.413
  209POPE   C1B 2505   5.900   7.756   7.185
  209POPE   C2B 2506   5.879   7.780   6.773
  209POPE   C3B 2507   5.855   7.879   6.290
  209POPE   C4B 2508   5.910   7.979   5.819
  210POPE   NH3 2509   5.847   9.794   7.937
  210POPE   PO4 2510   5.843   9.527   7.730
  210POPE   GL1 2511   6.148   9.770   7.566
  210POPE   GL2 2512   5.959  10.000   7.552
  210POPE   C1A 2513   6.108   9.603   7.161
  210POPE   D2A 2514   5.907   9.178   7.003
  210POPE   C3A 2515   5.959   9.164   6.548
  210POPE   C4A 2516   5.825   9.351   6.115
  210POPE   C1B 2517   5.738   9.892   7.284
  210POPE   C2B 2518   5.583   9.647   6.998
  210POPE   C3B 2519   5.704   9.630   6.539
  210POPE   C4B 2520   5.605   9.813   6.104
  211POPE   NH3 2521   5.936  11.899   7.919
  211POPE   PO4 2522   5.689  12.143   7.918
  211POPE   GL1 2523   5.859  12.258   7.509
  211POPE   GL2 2524   6.028  12.014   7.491
  211POPE   C1A 2525   5.838  12.244   7.058
  211POPE   D2A 2526   5.620  11.864   6.828
  211POPE   C3A 2527   5.772  11.986   6.423
  211POPE   C4A 2528   5.893  12.378   6.173
  211POPE   C1B 2529   6.032  11.848   7.159
  211POPE   C2B 2530   6.118  11.803   6.759
  211POPE   C3B 2531   6.197  11.727   6.300
  211POPE   C4B 2532   6.295  11.763   5.813
  212POPE   NH3 2533   5.724   0.681   8.268
  212POPE   PO4 2534   5.729   0.353   8.182
  212POPE   GL1 2535   5.804   0.375   7.773
  212POPE   GL2 2536   5.841   0.081   7.729
  212POPE   C1A 2537   5.562   0.491   7.414
  212POPE   D2A 2538   5.562   0.441   6.919
  212POPE   C3A 2539   5.783   0.656   6.575
  212POPE   C4A 2540   5.834   0.766   6.106
  212POPE   C1B 2541   5.669  13.976   7.418
  212POPE   C2B 2542   5.563  13.925   7.018
  212POPE   C3B 2543   5.469   0.096   6.564
  212POPE   C4B 2544   5.416   0.508   6.261
  213POPE   NH3 2545   6.856   4.695   7.897
  213POPE   PO4 2546   6.687   4.896   8.135
  213POPE   GL1 2547   6.795   5.160   7.794
  213POPE   GL2 2548   6.584   4.994   7.648
  213POPE   C1A 2549   6.961   5.245   7.398
  213POPE   D2A 2550   7.000   5.226   6.901
  213POPE   C3A 2551   6.975   5.015   6.495
  213POPE   C4A 2552   6.996   4.891   6.013
  213POPE   C1B 2553   6.618   4.955   7.276
  213POPE   C2B 2554   6.591   4.904   6.861
  213POPE   C3B 2555   6.508   4.839   6.380
  213POPE   C4B 2556   6.514   4.878   5.886
  214POPE   NH3 2557   7.032   6.056   7.779
  214POPE   PO4 2558   6.822   5.769   7.820
  214POPE   GL1 2559   6.574   5.946   7.569
  214POPE   GL2 2560   6.581   6.213   7.681
  214POPE   C1A 2561   6.800   5.858   7.187
  214POPE   D2A 2562   6.894   5.700   6.726
  214POPE   C3A 2563   7.023   5.847   6.319
  214POPE   C4A 2564   7.035   5.722   5.846
  214POPE   C1B 2565   6.760   6.329   7.389
  214POPE   C2B 2566   6.759   6.319   6.982
  214POPE   C3B 2567   6.691   6.200   6.520
  214POPE   C4B 2568   6.717   6.087   6.026
  215POPE   NH3 2569   6.493  11.063   8.557
  215POPE   PO4 2570   6.429  11.051   8.211
  215POPE   GL1 2571   6.571  11.329   7.961
  215POPE   GL2 2572   6.849  11.320   8.007
  215POPE   C1A 2573   6.489  11.421   7.533
  215POPE   D2A 2574   6.352  11.469   7.061
  215POPE   C3A 2575   6.507  11.482   6.614
  215POPE   C4A 2576   6.526  11.402   6.111
  215POPE   C1B 2577   6.993  11.247   7.687
  215POPE   C2B 2578   7.021  11.230   7.279
  215POPE   C3B 2579   7.055  11.250   6.803
  215POPE   C4B 2580   6.953  11.413   6.357
  216POPE   NH3 2581   6.374  11.980   8.187
  216POPE   PO4 2582   6.628  11.772   8.073
  216POPE   GL1 2583   6.417  11.884   7.706
  216POPE   GL2 2584   6.625  12.112   7.770
  216POPE   C1A 2585   6.474  11.936   7.264
  216POPE   D2A 2586   6.565  12.042   6.774
  216POPE   C3A 2587   6.712  11.893   6.344
  216POPE   C4A 2588   6.812  11.760   5.875
  216POPE   C1B 2589   6.831  12.164   7.468
  216POPE   C2B 2590   6.982  12.181   7.083
  216POPE   C3B 2591   6.985  12.298   6.610
  216POPE   C4B 2592   6.766  12.577   6.267
  217POPE   NH3 2593   6.585  12.439   8.136
  217POPE   PO4 2594   6.440  12.755   8.071
  217POPE   GL1 2595   6.501  12.603   7.661
  217POPE   GL2 2596   6.747  12.525   7.718
  217POPE   C1A 2597   6.466  12.494   7.228
  217POPE   D2A 2598   6.559  12.562   6.737
  217POPE   C3A 2599   6.279  12.638   6.363
  217POPE   C4A 2600   6.256  12.594   5.863
  217POPE   C1B 2601   6.893  12.604   7.403
  217POPE   C2B 2602   6.958  12.705   7.029
  217POPE   C3B 2603   6.979  12.883   6.607
  217POPE   C4B 2604   6.892  13.044   6.161
  218POPE   NH3 2605   6.501  13.216   8.331
  218POPE   PO4 2606   6.809  13.162   8.173
  218POPE   GL1 2607   6.524  13.147   7.822
  218POPE   GL2 2608   6.746  12.966   7.723
  218POPE   C1A 2609   6.428  13.372   7.443
  218POPE   D2A 2610   6.349  13.459   6.947
  218POPE   C3A 2611   6.536  13.717   6.604
  218POPE   C4A 2612   6.887  13.898   6.294
  218POPE   C1B 2613   6.806  13.050   7.368
  218POPE   C2B 2614   6.876  13.213   6.991
  218POPE   C3B 2615   6.924  13.388   6.546
  218POPE   C4B 2616   6.634  13.477   6.159
  219POPE   NH3 2617   6.975   3.192   8.096
  219POPE   PO4 2618   7.194   2.940   7.994
  219POPE   GL1 2619   7.337   3.008   7.642
  219POPE   GL2 2620   7.545   3.175   7.606
  219POPE   C1A 2621   7.115   2.971   7.259
  219POPE   D2A 2622   6.828   2.912   6.849
  219POPE   C3A 2623   7.160   2.885   6.534
  219POPE   C4A 2624   7.298   3.234   6.224
  219POPE   C1B 2625   7.581   3.084   7.239
  219POPE   C2B 2626   7.650   2.927   6.848
  219POPE   C3B 2627   7.642   2.871   6.357
  219POPE   C4B 2628   7.642   3.085   5.897
  220POPE   NH3 2629   7.403   8.057   7.989
  220POPE   PO4 2630   7.209   7.772   7.948
  220POPE   GL1 2631   7.243   7.823   7.535
  220POPE   GL2 2632   7.136   8.102   7.587
  220POPE   C1A 2633   7.377   7.830   7.105
  220POPE   D2A 2634   7.621   7.871   6.671
  220POPE   C3A 2635   7.356   8.035   6.338
  220POPE   C4A 2636   7.201   8.117   5.881
  220POPE   C1B 2637   7.126   8.255   7.253
  220POPE   C2B 2638   7.067   8.437   6.885
  220POPE   C3B 2639   7.145   8.498   6.421
  220POPE   C4B 2640   7.506   8.459   6.092
  221POPE   NH3 2641   7.878  13.561   7.798
  221POPE   PO4 2642   7.581  13.485   7.969
  221POPE   GL1 2643   7.491  13.238   7.628
  221POPE   GL2 2644   7.196  13.280   7.655
  221POPE   C1A 2645   7.627  13.387   7.233
  221POPE   D2A 2646   7.705  13.502   6.746
  221POPE   C3A 2647   7.844  13.800   6.393
  221POPE   C4A 2648   7.886   0.090   5.985
  221POPE   C1B 2649   7.150  13.412   7.312
  221POPE   C2B 2650   7.229  13.573   6.931
  221POPE   C3B 2651   7.334  13.708   6.472
  221POPE   C4B 2652   7.387  13.919   6.019
  222POPE   NH3 2653   8.259   1.809   7.951
  222POPE   PO4 2654   8.198   1.459   7.954
  222POPE   GL1 2655   8.464   1.444   7.669
  222POPE   GL2 2656   8.682   1.627   7.727
  222POPE   C1A 2657   8.385   1.603   7.266
  222POPE   D2A 2658   8.377   1.728   6.774
  222POPE   C3A 2659   8.159   1.407   6.530
  222POPE   C4A 2660   7.780   1.283   6.233
  222POPE   C1B 2661   8.832   1.604   7.382
  222POPE   C2B 2662   8.800   1.525   6.963
  222POPE   C3B 2663   8.688   1.439   6.489
  222POPE   C4B 2664   8.752   1.349   5.993
  223POPE   NH3 2665   7.920   2.385   8.343
  223POPE   PO4 2666   8.174   2.292   8.123
  223POPE   GL1 2667   8.108   2.464   7.706
  223POPE   GL2 2668   8.225   2.200   7.648
  223POPE   C1A 2669   8.266   2.689   7.369
  223POPE   D2A 2670   8.105   2.696   6.906
  223POPE   C3A 2671   8.071   2.586   6.469
  223POPE   C4A 2672   8.075   2.668   5.994
  223POPE   C1B 2673   8.257   2.215   7.285
  223POPE   C2B 2674   8.197   2.190   6.882
  223POPE   C3B 2675   8.258   2.112   6.415
  223POPE   C4B 2676   8.319   2.140   5.929
  224POPE   NH3 2677   7.664   3.090   8.056
  224POPE   PO4 2678   7.903   3.296   7.929
  224POPE   GL1 2679   7.960   3.010   7.592
  224POPE   GL2 2680   8.239   3.098   7.621
  224POPE   C1A 2681   8.028   3.129   7.176
  224POPE   D2A 2682   8.371   3.447   6.980
  224POPE   C3A 2683   8.123   3.218   6.667
  224POPE   C4A 2684   8.046   3.122   6.205
  224POPE   C1B 2685   8.452   3.125   7.310
  224POPE   C2B 2686   8.505   2.970   6.923
  224POPE   C3B 2687   8.480   2.904   6.437
  224POPE   C4B 2688   8.466   3.004   5.934
  225POPE   NH3 2689   8.141   4.550   8.255
  225POPE   PO4 2690   8.172   4.258   8.092
  225POPE   GL1 2691   8.240   4.402   7.737
  225POPE   GL2 2692   8.232   4.694   7.817
  225POPE   C1A 2693   8.190   4.412   7.310
  225POPE   D2A 2694   8.145   4.562   6.852
  225POPE   C3A 2695   8.179   4.623   6.405
  225POPE   C4A 2696   8.277   4.699   5.918
  225POPE   C1B 2697   8.281   4.841   7.485
  225POPE   C2B 2698   8.473   4.875   7.126
  225POPE   C3B 2699   8.594   4.730   6.694
  225POPE   C4B 2700   8.655   4.571   6.248
  226POPE   NH3 2701   7.922   9.269   7.936
  226POPE   PO4 2702   8.269   9.303   7.866
  226POPE   GL1 2703   8.302   9.145   7.474
  226POPE   GL2 2704   7.995   9.259   7.472
  226POPE   C1A 2705   8.286   9.305   7.072
  226POPE   D2A 2706   7.864   9.534   6.950
  226POPE   C3A 2707   7.996   9.290   6.585
  226POPE   C4A 2708   7.933   9.256   6.109
  226POPE   C1B 2709   8.069   9.617   7.384
  226POPE   C2B 2710   8.205   9.876   7.085
  226POPE   C3B 2711   8.231   9.809   6.602
  226POPE   C4B 2712   8.189   9.676   6.133
  227POPE   NH3 2713   8.008  10.911   8.297
  227POPE   PO4 2714   7.870  11.234   8.217
  227POPE   GL1 2715   8.046  11.108   7.829
  227POPE   GL2 2716   7.852  10.893   7.852
  227POPE   C1A 2717   8.310  11.058   7.451
  227POPE   D2A 2718   8.424  11.117   6.948
  227POPE   C3A 2719   8.313  11.211   6.499
  227POPE   C4A 2720   7.944  11.308   6.189
  227POPE   C1B 2721   7.858  10.889   7.492
  227POPE   C2B 2722   7.981  10.902   7.107
  227POPE   C3B 2723   8.091  10.801   6.674
  227POPE   C4B 2724   8.163  10.791   6.193
  228POPE   NH3 2725   8.896   1.037   8.159
  228POPE   PO4 2726   8.735   1.333   8.085
  228POPE   GL1 2727   8.871   1.224   7.720
  228POPE   GL2 2728   8.913   0.938   7.687
  228POPE   C1A 2729   8.651   1.169   7.346
  228POPE   D2A 2730   8.264   1.171   7.040
  228POPE   C3A 2731   8.601   1.043   6.763
  228POPE   C4A 2732   8.599   0.971   6.291
  228POPE   C1B 2733   8.971   0.829   7.324
  228POPE   C2B 2734   8.946   0.701   6.922
  228POPE   C3B 2735   8.932   0.648   6.452
  228POPE   C4B 2736   8.955   0.751   5.970
  229POPE   NH3 2737   8.942   9.539   8.265
  229POPE   PO4 2738   8.618   9.638   8.174
  229POPE   GL1 2739   8.636   9.585   7.754
  229POPE   GL2 2740   8.640   9.886   7.761
  229POPE   C1A 2741   8.601   9.616   7.315
  229POPE   D2A 2742   8.649   9.584   6.806
  229POPE   C3A 2743   8.668   9.647   6.331
  229POPE   C4A 2744   8.568   9.910   5.909
  229POPE   C1B 2745   8.895   9.943   7.514
  229POPE   C2B 2746   8.948   9.929   7.107
  229POPE   C3B 2747   8.987   9.924   6.634
  229POPE   C4B 2748   9.040   9.953   6.150
  230POPE   NH3 2749   8.186  11.761   7.738
  230POPE   PO4 2750   8.254  11.503   7.959
  230POPE   GL1 2751   8.496  11.403   7.660
  230POPE   GL2 2752   8.699  11.626   7.665
  230POPE   C1A 2753   8.415  11.531   7.262
  230POPE   D2A 2754   8.448  11.818   6.864
  230POPE   C3A 2755   8.604  11.634   6.468
  230POPE   C4A 2756   8.495  11.479   6.016
  230POPE   C1B 2757   8.949  11.561   7.390
  230POPE   C2B 2758   9.145  11.457   7.021
  230POPE   C3B 2759   9.114  11.617   6.555
  230POPE   C4B 2760   8.906  11.918   6.187
  231POPE   NH3 2761   9.353   1.010   7.784
  231POPE   PO4 2762   9.241   0.704   7.915
  231POPE   GL1 2763   9.249   0.578   7.538
  231POPE   GL2 2764   9.536   0.674   7.498
  231POPE   C1A 2765   9.185   0.323   7.196
  231POPE   D2A 2766   9.183   0.272   6.694
  231POPE   C3A 2767   9.246   0.335   6.214
  231POPE   C4A 2768   9.182   0.395   5.702
  231POPE   C1B 2769   9.698   0.446   7.247
  231POPE   C2B 2770   9.687   0.310   6.852
  231POPE   C3B 2771   9.548  13.982   6.506
  231POPE   C4B 2772   9.143  13.809   6.274
  232POPE   NH3 2773   9.763   1.394   8.218
  232POPE   PO4 2774   9.764   1.273   7.891
  232POPE   GL1 2775   9.534   1.444   7.599
  232POPE   GL2 2776   9.256   1.471   7.694
  232POPE   C1A 2777   9.570   1.154   7.279
  232POPE   D2A 2778   9.412   0.748   7.066
  232POPE   C3A 2779   9.425   0.726   6.613
  232POPE   C4A 2780   9.528   0.751   6.148
  232POPE   C1B 2781   9.136   1.267   7.406
  232POPE   C2B 2782   9.126   1.161   7.013
  232POPE   C3B 2783   9.097   1.133   6.546
  232POPE   C4B 2784   9.210   1.167   6.078
  233POPE   NH3 2785   9.505   5.723   8.165
  233POPE   PO4 2786   9.190   5.744   8.050
  233POPE   GL1 2787   9.336   5.919   7.719
  233POPE   GL2 2788   9.644   5.964   7.797
  233POPE   C1A 2789   9.096   6.184   7.454
  233POPE   D2A 2790   8.994   6.311   6.984
  233POPE   C3A 2791   9.061   5.975   6.668
  233POPE   C4A 2792   9.127   5.632   6.326
  233POPE   C1B 2793   9.902   5.812   7.590
  233POPE   C2B 2794  10.027   5.733   7.215
  233POPE   C3B 2795   9.847   5.718   6.787
  233POPE   C4B 2796   9.563   5.878   6.419
  234POPE   NH3 2797   9.449   7.452   7.941
  234POPE   PO4 2798   9.664   7.254   8.154
  234POPE   GL1 2799   9.721   7.078   7.755
  234POPE   GL2 2800   9.811   7.365   7.668
  234POPE   C1A 2801   9.485   6.904   7.402
  234POPE   D2A 2802   9.443   6.573   7.045
  234POPE   C3A 2803   9.366   6.845   6.666
  234POPE   C4A 2804   9.235   7.077   6.246
  234POPE   C1B 2805   9.567   7.357   7.393
  234POPE   C2B 2806   9.563   7.282   6.983
  234POPE   C3B 2807   9.636   7.250   6.508
  234POPE   C4B 2808   9.534   7.427   6.032
  235POPE   NH3 2809  10.448   3.391   8.409
  235POPE   PO4 2810  10.246   3.347   8.122
  235POPE   GL1 2811  10.364   3.364   7.746
  235POPE   GL2 2812  10.396   3.645   7.736
  235POPE   C1A 2813  10.313   3.237   7.345
  235POPE   D2A 2814  10.246   3.306   6.859
  235POPE   C3A 2815  10.399   3.463   6.450
  235POPE   C4A 2816  10.437   3.667   5.991
  235POPE   C1B 2817  10.294   3.713   7.401
  235POPE   C2B 2818  10.244   3.840   7.020
  235POPE   C3B 2819  10.005   3.718   6.633
  235POPE   C4B 2820   9.952   3.712   6.142
  236POPE   NH3 2821  10.438  11.875   8.238
  236POPE   PO4 2822  10.438  11.534   8.122
  236POPE   GL1 2823  10.268  11.599   7.755
  236POPE   GL2 2824  10.345  11.884   7.777
  236POPE   C1A 2825  10.286  11.529   7.326
  236POPE   D2A 2826  10.113  11.648   6.881
  236POPE   C3A 2827  10.026  11.813   6.449
  236POPE   C4A 2828   9.847  12.063   6.058
  236POPE   C1B 2829  10.310  12.026   7.447
  236POPE   C2B 2830  10.256  12.146   7.066
  236POPE   C3B 2831  10.214  12.252   6.616
  236POPE   C4B 2832  10.355  12.157   6.174
  237POPE   NH3 2833  11.047   2.949   8.189
  237POPE   PO4 2834  10.927   3.269   8.267
  237POPE   GL1 2835  10.713   3.444   7.991
  237POPE   GL2 2836  10.817   3.676   8.014
  237POPE   C1A 2837  10.784   3.350   7.562
  237POPE   D2A 2838  10.754   3.288   7.059
  237POPE   C3A 2839  10.874   3.271   6.603
  237POPE   C4A 2840  10.859   3.116   6.143
  237POPE   C1B 2841  10.783   3.821   7.683
  237POPE   C2B 2842  10.739   3.760   7.277
  237POPE   C3B 2843  10.696   3.725   6.800
  237POPE   C4B 2844  10.802   3.727   6.328
  238POPE   NH3 2845  11.120   5.627   8.015
  238POPE   PO4 2846  10.776   5.591   7.938
  238POPE   GL1 2847  10.935   5.673   7.553
  238POPE   GL2 2848  10.826   5.966   7.628
  238POPE   C1A 2849  10.999   5.611   7.115
  238POPE   D2A 2850  10.831   5.813   6.681
  238POPE   C3A 2851  10.645   5.789   6.231
  238POPE   C4A 2852  10.978   5.748   5.844
  238POPE   C1B 2853  10.636   6.167   7.373
  238POPE   C2B 2854  10.487   6.280   7.002
  238POPE   C3B 2855  10.582   6.244   6.535
  238POPE   C4B 2856  10.801   6.245   6.108
  239POPE   NH3 2857  10.756   6.519   8.408
  239POPE   PO4 2858  11.096   6.455   8.370
  239POPE   GL1 2859  11.019   6.514   7.971
  239POPE   GL2 2860  10.906   6.792   7.997
  239POPE   C1A 2861  11.055   6.351   7.560
  239POPE   D2A 2862  11.010   6.154   7.094
  239POPE   C3A 2863  11.125   6.273   6.654
  239POPE   C4A 2864  11.287   6.402   6.208
  239POPE   C1B 2865  10.794   6.802   7.645
  239POPE   C2B 2866  10.801   6.667   7.250
  239POPE   C3B 2867  10.782   6.654   6.771
  239POPE   C4B 2868  10.690   6.707   6.289
  240POPE   NH3 2869  11.673   2.793   8.208
  240POPE   PO4 2870  11.398   2.580   8.167
  240POPE   GL1 2871  11.304   2.698   7.804
  240POPE   GL2 2872  11.397   2.990   7.886
  240POPE   C1A 2873  11.369   2.566   7.384
  240POPE   D2A 2874  11.404   2.426   6.896
  240POPE   C3A 2875  11.486   2.438   6.425
  240POPE   C4A 2876  11.505   2.479   5.923
  240POPE   C1B 2877  11.565   3.074   7.586
  240POPE   C2B 2878  11.604   2.990   7.200
  240POPE   C3B 2879  11.631   2.863   6.749
  240POPE   C4B 2880  11.697   2.857   6.266
  241POPE   NH3 2881  11.579   3.925   7.903
  241POPE   PO4 2882  11.703   3.657   8.102
  241POPE   GL1 2883  11.412   3.445   7.838
  241POPE   GL2 2884  11.207   3.665   7.819
  241POPE   C1A 2885  11.301   3.401   7.404
  241POPE   D2A 2886  11.269   3.267   6.926
  241POPE   C3A 2887  11.477   3.275   6.507
  241POPE   C4A 2888  11.646   3.296   6.031
  241POPE   C1B 2889  11.172   3.834   7.487
  241POPE   C2B 2890  11.183   3.901   7.072
  241POPE   C3B 2891  11.195   3.698   6.635
  241POPE   C4B 2892  11.202   3.496   6.171
  242POPE   NH3 2893  11.638   6.757   8.322
  242POPE   PO4 2894  11.402   6.773   8.070
  242POPE   GL1 2895  11.680   6.691   7.749
  242POPE   GL2 2896  11.468   6.509   7.656
  242POPE   C1A 2897  11.729   6.930   7.383
  242POPE   D2A 2898  11.640   7.265   7.026
  242POPE   C3A 2899  11.634   7.036   6.625
  242POPE   C4A 2900  11.659   6.827   6.186
  242POPE   C1B 2901  11.390   6.574   7.299
  242POPE   C2B 2902  11.276   6.709   6.919
  242POPE   C3B 2903  11.180   6.846   6.455
  242POPE   C4B 2904  11.262   7.082   6.018
  243POPE   NH3 2905  12.445   9.413   7.952
  243POPE   PO4 2906  12.155   9.610   7.921
  243POPE   GL1 2907  12.139   9.748   7.573
  243POPE   GL2 2908  12.235  10.000   7.507
  243POPE   C1A 2909  11.979   9.580   7.219
  243POPE   D2A 2910  11.989   9.315   6.816
  243POPE   C3A 2911  12.322   9.362   6.514
  243POPE   C4A 2912  12.415   9.411   6.043
  243POPE   C1B 2913  12.148  10.008   7.142
  243POPE   C2B 2914  12.164   9.848   6.757
  243POPE   C3B 2915  12.331   9.846   6.299
  243POPE   C4B 2916  12.374   9.892   5.804
  244POPE   NH3 2917  11.738  11.110   8.114
  244POPE   PO4 2918  11.974  11.328   7.983
  244POPE   GL1 2919  12.195  11.000   7.809
  244POPE   GL2 2920  12.454  11.161   7.810
  244POPE   C1A 2921  12.123  10.991   7.383
  244POPE   D2A 2922  12.241  11.432   7.206
  244POPE   C3A 2923  12.176  11.283   6.781
  244POPE   C4A 2924  12.051  11.168   6.325
  244POPE   C1B 2925  12.572  11.221   7.451
  244POPE   C2B 2926  12.686  11.287   7.045
  244POPE   C3B 2927  12.622  11.309   6.561
  244POPE   C4B 2928  12.455  11.411   6.100
  245POPE   NH3 2929  12.184  13.650   8.306
  245POPE   PO4 2930  12.080  13.334   8.168
  245POPE   GL1 2931  12.013  13.406   7.773
  245POPE   GL2 2932  11.727  13.338   7.728
  245POPE   C1A 2933  12.196  13.452   7.378
  245POPE   D2A 2934  12.295  13.498   6.887
  245POPE   C3A 2935  12.369  13.758   6.488
  245POPE   C4A 2936  12.592  13.872   6.049
  245POPE   C1B 2937  11.765  13.250   7.360
  245POPE   C2B 2938  11.820  13.286   6.941
  245POPE   C3B 2939  11.980  13.378   6.480
  245POPE   C4B 2940  12.196  13.523   6.069
  246POPE   NH3 2941  11.702   2.167   8.155
  246POPE   PO4 2942  11.975   2.395   8.211
  246POPE   GL1 2943  11.972   2.314   7.802
  246POPE   GL2 2944  11.709   2.503   7.824
  246POPE   C1A 2945  12.118   2.136   7.400
  246POPE   D2A 2946  12.236   2.041   6.911
  246POPE   C3A 2947  12.023   1.992   6.493
  246POPE   C4A 2948  11.701   2.069   6.124
  246POPE   C1B 2949  11.783   2.695   7.539
  246POPE   C2B 2950  11.846   2.542   7.169
  246POPE   C3B 2951  11.899   2.430   6.715
  246POPE   C4B 2952  12.048   2.463   6.241
  247POPE   NH3 2953  12.071   3.362   8.333
  247POPE   PO4 2954  12.244   3.581   8.113
  247POPE   GL1 2955  12.015   3.632   7.751
  247POPE   GL2 2956  12.252   3.476   7.621
  247POPE   C1A 2957  11.803   3.486   7.397
  247POPE   D2A 2958  11.793   3.354   6.912
  247POPE   C3A 2959  11.950   3.435   6.482
  247POPE   C4A 2960  12.001   3.648   6.039
  247POPE   C1B 2961  12.266   3.416   7.239
  247POPE   C2B 2962  12.336   3.444   6.817
  247POPE   C3B 2963  12.421   3.553   6.337
  247POPE   C4B 2964  12.439   3.501   5.848
  248POPE   NH3 2965  12.024   4.065   8.085
  248POPE   PO4 2966  12.199   4.359   8.028
  248POPE   GL1 2967  11.858   4.330   7.739
  248POPE   GL2 2968  11.942   4.053   7.619
  248POPE   C1A 2969  11.877   4.445   7.336
  248POPE   D2A 2970  12.058   4.185   6.949
  248POPE   C3A 2971  11.830   4.234   6.542
  248POPE   C4A 2972  11.827   4.124   6.051
  248POPE   C1B 2973  11.806   3.947   7.269
  248POPE   C2B 2974  11.672   3.844   6.866
  248POPE   C3B 2975  11.608   3.788   6.367
  248POPE   C4B 2976  11.518   3.762   5.864
  249POPE   NH3 2977  12.906   7.671   8.148
  249POPE   PO4 2978  12.930   7.363   8.312
  249POPE   GL1 2979  12.871   7.244   7.941
  249POPE   GL2 2980  12.810   6.985   7.898
  249POPE   C1A 2981  12.930   7.439   7.574
  249POPE   D2A 2982  13.191   7.173   7.275
  249POPE   C3A 2983  13.159   7.228   6.812
  249POPE   C4A 2984  13.281   7.244   6.338
  249POPE   C1B 2985  12.856   6.944   7.525
  249POPE   C2B 2986  12.816   6.906   7.103
  249POPE   C3B 2987  12.888   6.830   6.632
  249POPE   C4B 2988  12.995   6.833   6.150
  250POPE   NH3 2989  12.904   8.543   8.076
  250POPE   PO4 2990  13.027   8.753   7.814
  250POPE   GL1 2991  12.973   8.327   7.673
  250POPE   GL2 2992  13.278   8.298   7.684
  250POPE   C1A 2993  12.824   8.404   7.257
  250POPE   D2A 2994  12.702   8.532   6.780
  250POPE   C3A 2995  12.721   8.551   6.305
  250POPE   C4A 2996  12.730   8.579   5.799
  250POPE   C1B 2997  13.269   8.152   7.344
  250POPE   C2B 2998  13.203   8.133   6.931
  250POPE   C3B 2999  13.182   8.252   6.456
  250POPE   C4B 3000  13.178   8.533   6.043
  251POPE   NH3 3001  12.979  10.791   8.082
  251POPE   PO4 3002  12.795  11.093   8.132
  251POPE   GL1 3003  12.902  11.220   7.761
  251POPE   GL2 3004  12.842  10.939   7.642
  251POPE   C1A 3005  12.985  11.469   7.414
  251POPE   D2A 3006  13.001  11.730   7.000
  251POPE   C3A 3007  13.075  11.515   6.608
  251POPE   C4A 3008  12.968  11.535   6.139
  251POPE   C1B 3009  12.928  10.950   7.267
  251POPE   C2B 3010  13.070  10.993   6.863
  251POPE   C3B 3011  13.224  11.062   6.393
  251POPE   C4B 3012  13.210  11.180   5.886
  252POPE   NH3 3013  13.423   6.060   8.113
  252POPE   PO4 3014  13.649   5.813   8.007
  252POPE   GL1 3015  13.874   6.050   7.778
  252POPE   GL2 3016  13.741   6.297   7.854
  252POPE   C1A 3017  13.845   6.030   7.344
  252POPE   D2A 3018  13.835   5.984   6.852
  252POPE   C3A 3019  13.567   5.701   6.576
  252POPE   C4A 3020  13.455   5.550   6.104
  252POPE   C1B 3021  13.568   6.370   7.531
  252POPE   C2B 3022  13.481   6.320   7.124
  252POPE   C3B 3023  13.464   6.266   6.645
  252POPE   C4B 3024  13.572   6.057   6.216
  253POPE   NH3 3025  13.612   3.161   8.301
  253POPE   PO4 3026  13.522   2.879   8.128
  253POPE   GL1 3027  13.491   3.191   7.832
  253POPE   GL2 3028  13.737   3.353   7.882
  253POPE   C1A 3029  13.548   3.167   7.407
  253POPE   D2A 3030  13.628   2.893   7.002
  253POPE   C3A 3031  13.604   2.910   6.551
  253POPE   C4A 3032  13.532   2.957   6.078
  253POPE   C1B 3033  13.896   3.429   7.543
  253POPE   C2B 3034  13.944   3.513   7.136
  253POPE   C3B 3035  13.658   3.454   6.754
  253POPE   C4B 3036  13.329   3.329   6.408
  254POPG   GL0 3037   0.418  11.772   8.244
  254POPG   PO4 3038   0.578  11.811   7.923
  254POPG   GL1 3039   0.269  11.852   7.652
  254POPG   GL2 3040   0.011  11.818   7.783
  254POPG   C1A 3041   0.285  12.075   7.276
  254POPG   D2A 3042   0.592  12.059   6.884
  254POPG   C3A 3043   0.832  11.804   6.582
  254POPG   C4A 3044   0.979  11.449   6.277
  254POPG   C1B 3045  13.876  11.650   7.480
  254POPG   C2B 3046  13.919  11.752   7.080
  254POPG   C3B 3047   0.111  12.069   6.771
  254POPG   C4B 3048   0.426  12.154   6.406
  255POPG   GL0 3049   0.623  13.794   8.340
  255POPG   PO4 3050   0.579  13.508   8.108
  255POPG   GL1 3051   0.713  13.586   7.721
  255POPG   GL2 3052   0.440  13.456   7.640
  255POPG   C1A 3053   0.684  13.814   7.359
  255POPG   D2A 3054   0.627  13.797   6.866
  255POPG   C3A 3055   0.440  13.862   6.440
  255POPG   C4A 3056   0.206  13.919   6.003
  255POPG   C1B 3057   0.436  13.399   7.269
  255POPG   C2B 3058   0.374  13.339   6.858
  255POPG   C3B 3059   0.270  13.389   6.384
  255POPG   C4B 3060   0.052  13.434   5.939
  256POPG   GL0 3061   0.316   3.131   8.148
  256POPG   PO4 3062   0.006   3.007   7.993
  256POPG   GL1 3063   0.152   2.936   7.648
  256POPG   GL2 3064   0.444   2.931   7.729
  256POPG   C1A 3065   0.038   3.028   7.239
  256POPG   D2A 3066   0.039   3.104   6.743
  256POPG   C3A 3067   0.083   2.903   6.309
  256POPG   C4A 3068   0.127   2.743   5.833
  256POPG   C1B 3069   0.527   2.897   7.374
  256POPG   C2B 3070   0.487   2.919   6.961
  256POPG   C3B 3071   0.499   3.109   6.516
  256POPG   C4B 3072   0.411   3.364   6.108
  257POPG   GL0 3073   0.394   3.624   8.309
  257POPG   PO4 3074   0.119   3.611   8.061
  257POPG   GL1 3075   0.271   3.381   7.746
  257POPG   GL2 3076   0.243   3.704   7.620
  257POPG   C1A 3077   0.390   3.341   7.349
  257POPG   D2A 3078   0.421   3.438   6.877
  257POPG   C3A 3079   0.151   3.566   6.505
  257POPG   C4A 3080   0.094   3.769   6.046
  257POPG   C1B 3081   0.293   3.806   7.259
  257POPG   C2B 3082   0.328   3.934   6.855
  257POPG   C3B 3083   0.368   4.053   6.379
  257POPG   C4B 3084   0.429   4.148   5.894
  258POPG   GL0 3085   0.632   6.412   8.250
  258POPG   PO4 3086   0.849   6.651   8.080
  258POPG   GL1 3087   0.791   6.718   7.664
  258POPG   GL2 3088   1.072   6.544   7.676
  258POPG   C1A 3089   0.716   6.522   7.269
  258POPG   D2A 3090   0.751   6.303   6.817
  258POPG   C3A 3091   0.753   6.256   6.358
  258POPG   C4A 3092   0.644   6.391   5.901
  258POPG   C1B 3093   1.225   6.501   7.338
  258POPG   C2B 3094   1.155   6.609   6.944
  258POPG   C3B 3095   1.235   6.418   6.521
  258POPG   C4B 3096   1.600   6.133   6.332
  259POPG   GL0 3097   1.376   9.656   8.049
  259POPG   PO4 3098   1.104   9.915   8.114
  259POPG   GL1 3099   1.242   9.968   7.703
  259POPG   GL2 3100   1.089   9.686   7.673
  259POPG   C1A 3101   1.233   9.968   7.272
  259POPG   D2A 3102   0.874   9.791   6.972
  259POPG   C3A 3103   1.152   9.543   6.685
  259POPG   C4A 3104   1.217   9.331   6.253
  259POPG   C1B 3105   1.112   9.498   7.349
  259POPG   C2B 3106   0.953   9.259   7.042
  259POPG   C3B 3107   0.799   9.181   6.581
  259POPG   C4B 3108   0.859   9.023   6.116
  260POPG   GL0 3109   0.939   0.681   8.187
  260POPG   PO4 3110   0.769   0.374   8.095
  260POPG   GL1 3111   1.103   0.437   7.831
  260POPG   GL2 3112   0.952   0.708   7.750
  260POPG   C1A 3113   1.212   0.286   7.442
  260POPG   D2A 3114   1.295   0.310   6.937
  260POPG   C3A 3115   1.263   0.331   6.463
  260POPG   C4A 3116   1.263   0.275   5.976
  260POPG   C1B 3117   0.986   0.725   7.401
  260POPG   C2B 3118   0.991   0.722   7.002
  260POPG   C3B 3119   0.950   0.713   6.553
  260POPG   C4B 3120   0.853   0.573   6.113
  261POPG   GL0 3121   0.763   1.487   7.892
  261POPG   PO4 3122   1.120   1.585   7.926
  261POPG   GL1 3123   1.055   1.439   7.508
  261POPG   GL2 3124   0.925   1.186   7.583
  261POPG   C1A 3125   0.984   1.557   7.064
  261POPG   D2A 3126   0.966   1.653   6.568
  261POPG   C3A 3127   1.052   1.542   6.120
  261POPG   C4A 3128   1.147   1.417   5.654
  261POPG   C1B 3129   0.859   1.123   7.220
  261POPG   C2B 3130   0.831   1.160   6.793
  261POPG   C3B 3131   0.828   1.124   6.300
  261POPG   C4B 3132   0.978   0.991   5.853
  262POPG   GL0 3133   0.981   2.862   8.349
  262POPG   PO4 3134   0.805   2.981   8.045
  262POPG   GL1 3135   0.815   2.678   7.712
  262POPG   GL2 3136   1.044   2.848   7.615
  262POPG   C1A 3137   0.695   2.478   7.321
  262POPG   D2A 3138   0.518   2.344   6.875
  262POPG   C3A 3139   0.495   2.601   6.491
  262POPG   C4A 3140   0.563   2.875   6.078
  262POPG   C1B 3141   1.024   2.780   7.258
  262POPG   C2B 3142   0.917   2.670   6.876
  262POPG   C3B 3143   0.954   2.826   6.428
  262POPG   C4B 3144   1.061   2.889   5.963
  263POPG   GL0 3145   1.354   7.550   8.519
  263POPG   PO4 3146   1.536   7.359   8.268
  263POPG   GL1 3147   1.414   7.289   7.897
  263POPG   GL2 3148   1.735   7.245   7.847
  263POPG   C1A 3149   1.441   7.240   7.479
  263POPG   D2A 3150   1.685   7.311   7.068
  263POPG   C3A 3151   1.497   7.395   6.659
  263POPG   C4A 3152   1.484   7.211   6.222
  263POPG   C1B 3153   1.905   7.474   7.613
  263POPG   C2B 3154   1.964   7.729   7.299
  263POPG   C3B 3155   1.857   7.746   6.831
  263POPG   C4B 3156   1.777   7.682   6.342
  264POPG   GL0 3157   1.872  10.312   8.100
  264POPG   PO4 3158   1.545  10.244   7.941
  264POPG   GL1 3159   1.868  10.228   7.653
  264POPG   GL2 3160   1.848  10.529   7.645
  264POPG   C1A 3161   1.811  10.028   7.274
  264POPG   D2A 3162   1.569   9.853   6.883
  264POPG   C3A 3163   1.635  10.177   6.557
  264POPG   C4A 3164   1.429  10.261   6.147
  264POPG   C1B 3165   1.839  10.531   7.269
  264POPG   C2B 3166   1.723  10.563   6.869
  264POPG   C3B 3167   1.567  10.682   6.415
  264POPG   C4B 3168   1.560  10.702   5.915
  265POPG   GL0 3169   1.741   4.063   8.119
  265POPG   PO4 3170   1.595   3.958   7.807
  265POPG   GL1 3171   1.974   4.178   7.712
  265POPG   GL2 3172   2.147   3.973   7.870
  265POPG   C1A 3173   1.995   4.162   7.259
  265POPG   D2A 3174   1.950   4.003   6.770
  265POPG   C3A 3175   2.078   4.080   6.313
  265POPG   C4A 3176   2.189   4.213   5.833
  265POPG   C1B 3177   2.101   3.734   7.594
  265POPG   C2B 3178   1.887   3.642   7.262
  265POPG   C3B 3179   1.986   3.484   6.832
  265POPG   C4B 3180   2.273   3.582   6.442
  266POPG   GL0 3181   2.803   4.093   7.924
  266POPG   PO4 3182   2.517   4.195   8.132
  266POPG   GL1 3183   2.410   4.335   7.788
  266POPG   GL2 3184   2.586   4.473   7.620
  266POPG   C1A 3185   2.430   4.033   7.491
  266POPG   D2A 3186   2.334   3.818   7.058
  266POPG   C3A 3187   2.453   4.012   6.655
  266POPG   C4A 3188   2.570   4.079   6.182
  266POPG   C1B 3189   2.397   4.485   7.301
  266POPG   C2B 3190   2.267   4.422   6.912
  266POPG   C3B 3191   2.347   4.471   6.447
  266POPG   C4B 3192   2.492   4.586   5.989
  267POPG   GL0 3193   2.909   9.300   8.418
  267POPG   PO4 3194   2.837   9.318   8.060
  267POPG   GL1 3195   2.646   9.044   7.859
  267POPG   GL2 3196   2.379   9.056   7.864
  267POPG   C1A 3197   2.726   9.008   7.432
  267POPG   D2A 3198   2.853   9.092   6.961
  267POPG   C3A 3199   2.832   8.937   6.531
  267POPG   C4A 3200   2.758   8.727   6.097
  267POPG   C1B 3201   2.300   9.178   7.536
  267POPG   C2B 3202   2.334   9.243   7.129
  267POPG   C3B 3203   2.293   9.350   6.649
  267POPG   C4B 3204   2.174   9.534   6.192
  268POPG   GL0 3205   3.078   3.575   8.064
  268POPG   PO4 3206   3.431   3.613   7.946
  268POPG   GL1 3207   3.182   3.911   7.730
  268POPG   GL2 3208   3.080   3.674   7.622
  268POPG   C1A 3209   2.961   4.091   7.431
  268POPG   D2A 3210   2.677   4.199   7.075
  268POPG   C3A 3211   2.950   4.128   6.729
  268POPG   C4A 3212   3.076   4.028   6.285
  268POPG   C1B 3213   3.182   3.602   7.285
  268POPG   C2B 3214   3.334   3.488   6.920
  268POPG   C3B 3215   3.272   3.584   6.439
  268POPG   C4B 3216   3.189   3.685   5.946
  269POPG   GL0 3217   3.820   6.006   8.197
  269POPG   PO4 3218   3.548   6.209   8.067
  269POPG   GL1 3219   3.382   6.026   7.698
  269POPG   GL2 3220   3.653   5.911   7.727
  269POPG   C1A 3221   3.439   5.984   7.251
  269POPG   D2A 3222   3.438   6.040   6.746
  269POPG   C3A 3223   3.417   5.925   6.289
  269POPG   C4A 3224   3.416   5.786   5.796
  269POPG   C1B 3225   3.854   5.851   7.425
  269POPG   C2B 3226   3.918   5.923   7.023
  269POPG   C3B 3227   3.874   5.865   6.555
  269POPG   C4B 3228   3.833   5.717   6.092
  270POPG   GL0 3229   3.710  10.377   8.569
  270POPG   PO4 3230   3.597  10.487   8.238
  270POPG   GL1 3231   3.764  10.564   7.901
  270POPG   GL2 3232   4.002  10.470   7.801
  270POPG   C1A 3233   3.605  10.593   7.510
  270POPG   D2A 3234   3.611  10.620   7.014
  270POPG   C3A 3235   3.670  10.436   6.582
  270POPG   C4A 3236   3.783  10.464   6.102
  270POPG   C1B 3237   4.030  10.408   7.423
  270POPG   C2B 3238   4.059  10.361   6.997
  270POPG   C3B 3239   4.179  10.346   6.505
  270POPG   C4B 3240   4.236  10.223   6.026
  271POPG   GL0 3241   3.880  10.909   8.194
  271POPG   PO4 3242   4.160  10.881   7.954
  271POPG   GL1 3243   3.809  10.978   7.727
  271POPG   GL2 3244   3.781  11.262   7.847
  271POPG   C1A 3245   3.780  11.021   7.289
  271POPG   D2A 3246   3.769  11.072   6.793
  271POPG   C3A 3247   3.819  10.892   6.371
  271POPG   C4A 3248   3.777  10.941   5.881
  271POPG   C1B 3249   3.853  11.431   7.522
  271POPG   C2B 3250   3.920  11.487   7.108
  271POPG   C3B 3251   4.025  11.501   6.630
  271POPG   C4B 3252   4.117  11.674   6.172
  272POPG   GL0 3253   4.484   6.826   8.190
  272POPG   PO4 3254   4.339   6.831   7.853
  272POPG   GL1 3255   4.683   7.073   7.820
  272POPG   GL2 3256   4.855   6.819   7.862
  272POPG   C1A 3257   4.721   7.248   7.405
  272POPG   D2A 3258   4.529   7.270   6.942
  272POPG   C3A 3259   4.433   7.112   6.511
  272POPG   C4A 3260   4.309   6.983   6.059
  272POPG   C1B 3261   4.891   6.820   7.494
  272POPG   C2B 3262   4.836   6.856   7.084
  272POPG   C3B 3263   4.792   6.769   6.616
  272POPG   C4B 3264   4.795   6.860   6.131
  273POPG   GL0 3265   4.764   9.598   8.261
  273POPG   PO4 3266   4.470   9.404   8.360
  273POPG   GL1 3267   4.551   9.373   7.934
  273POPG   GL2 3268   4.307   9.371   7.820
  273POPG   C1A 3269   4.746   9.438   7.554
  273POPG   D2A 3270   4.531   9.360   7.119
  273POPG   C3A 3271   4.608   9.457   6.671
  273POPG   C4A 3272   4.802   9.464   6.216
  273POPG   C1B 3273   4.191   9.335   7.465
  273POPG   C2B 3274   4.036   9.293   7.076
  273POPG   C3B 3275   4.148   9.218   6.602
  273POPG   C4B 3276   4.319   9.295   6.135
  274POPG   GL0 3277   4.705  12.690   8.197
  274POPG   PO4 3278   4.837  13.028   8.149
  274POPG   GL1 3279   4.653  13.091   7.784
  274POPG   GL2 3280   4.503  12.871   7.816
  274POPG   C1A 3281   4.828  13.094   7.404
  274POPG   D2A 3282   5.119  12.823   7.123
  274POPG   C3A 3283   4.815  12.908   6.790
  274POPG   C4A 3284   4.395  13.057   6.580
  274POPG   C1B 3285   4.515  12.724   7.480
  274POPG   C2B 3286   4.434  12.707   7.074
  274POPG   C3B 3287   4.470  12.551   6.610
  274POPG   C4B 3288   4.586  12.439   6.146
  275POPG   GL0 3289   4.373   2.250   8.404
  275POPG   PO4 3290   4.423   2.106   8.069
  275POPG   GL1 3291   4.500   2.316   7.681
  275POPG   GL2 3292   4.778   2.383   7.720
  275POPG   C1A 3293   4.461   2.191   7.234
  275POPG   D2A 3294   4.438   1.933   6.785
  275POPG   C3A 3295   4.358   2.050   6.312
  275POPG   C4A 3296   4.179   2.256   5.879
  275POPG   C1B 3297   4.848   2.583   7.421
  275POPG   C2B 3298   4.787   2.691   7.023
  275POPG   C3B 3299   4.680   2.707   6.571
  275POPG   C4B 3300   4.521   2.515   6.152
  276POPG   GL0 3301   6.068  12.410   8.141
  276POPG   PO4 3302   6.207  12.308   7.827
  276POPG   GL1 3303   6.017  12.636   7.737
  276POPG   GL2 3304   6.164  12.883   7.735
  276POPG   C1A 3305   5.933  12.679   7.329
  276POPG   D2A 3306   6.080  12.653   6.867
  276POPG   C3A 3307   5.785  12.722   6.531
  276POPG   C4A 3308   5.432  12.551   6.273
  276POPG   C1B 3309   6.344  12.920   7.422
  276POPG   C2B 3310   6.443  12.971   7.029
  276POPG   C3B 3311   6.498  13.072   6.555
  276POPG   C4B 3312   6.378  13.049   6.070
  277POPG   GL0 3313   6.233   4.612   8.119
  277POPG   PO4 3314   6.388   4.522   7.796
  277POPG   GL1 3315   6.440   4.182   7.533
  277POPG   GL2 3316   6.170   4.050   7.589
  277POPG   C1A 3317   6.523   4.196   7.094
  277POPG   D2A 3318   6.735   3.959   6.708
  277POPG   C3A 3319   6.444   4.130   6.384
  277POPG   C4A 3320   6.281   4.465   6.046
  277POPG   C1B 3321   6.099   4.026   7.212
  277POPG   C2B 3322   6.080   4.099   6.788
  277POPG   C3B 3323   5.933   4.256   6.344
  277POPG   C4B 3324   5.773   4.507   5.936
  278POPG   GL0 3325   6.693   2.757   8.011
  278POPG   PO4 3326   6.537   3.077   7.880
  278POPG   GL1 3327   6.862   3.011   7.647
  278POPG   GL2 3328   7.003   3.282   7.624
  278POPG   C1A 3329   6.616   2.831   7.309
  278POPG   D2A 3330   6.313   2.818   6.918
  278POPG   C3A 3331   6.544   2.504   6.695
  278POPG   C4A 3332   6.713   2.756   6.313
  278POPG   C1B 3333   6.929   3.392   7.270
  278POPG   C2B 3334   6.788   3.421   6.871
  278POPG   C3B 3335   6.823   3.264   6.420
  278POPG   C4B 3336   6.757   3.119   5.955
  279POPG   GL0 3337   6.496   4.049   7.968
  279POPG   PO4 3338   6.824   4.189   7.864
  279POPG   GL1 3339   6.852   4.358   7.546
  279POPG   GL2 3340   6.699   4.559   7.447
  279POPG   C1A 3341   7.088   4.208   7.232
  279POPG   D2A 3342   7.239   4.231   6.770
  279POPG   C3A 3343   7.088   4.116   6.346
  279POPG   C4A 3344   7.003   4.092   5.858
  279POPG   C1B 3345   6.794   4.556   7.080
  279POPG   C2B 3346   6.783   4.472   6.659
  279POPG   C3B 3347   6.775   4.458   6.159
  279POPG   C4B 3348   6.678   4.451   5.667
  280POPG   GL0 3349   6.530   6.695   8.141
  280POPG   PO4 3350   6.685   6.978   7.961
  280POPG   GL1 3351   6.668   6.665   7.689
  280POPG   GL2 3352   6.890   6.513   7.821
  280POPG   C1A 3353   6.782   6.808   7.291
  280POPG   D2A 3354   6.685   6.983   6.847
  280POPG   C3A 3355   6.580   6.798   6.436
  280POPG   C4A 3356   6.412   6.457   6.133
  280POPG   C1B 3357   7.113   6.544   7.528
  280POPG   C2B 3358   7.210   6.570   7.120
  280POPG   C3B 3359   7.039   6.606   6.675
  280POPG   C4B 3360   6.915   6.519   6.206
  281POPG   GL0 3361   7.569   2.585   8.049
  281POPG   PO4 3362   7.653   2.667   7.704
  281POPG   GL1 3363   7.860   2.447   7.318
  281POPG   GL2 3364   7.810   2.724   7.271
  281POPG   C1A 3365   7.702   2.398   6.882
  281POPG   D2A 3366   7.466   2.130   6.520
  281POPG   C3A 3367   7.546   1.792   6.181
  281POPG   C4A 3368   7.675   1.508   5.780
  281POPG   C1B 3369   7.456   2.666   7.179
  281POPG   C2B 3370   7.160   2.525   6.935
  281POPG   C3B 3371   7.010   2.375   6.506
  281POPG   C4B 3372   7.140   2.133   6.105
  282POPG   GL0 3373   7.211   3.589   8.285
  282POPG   PO4 3374   7.369   3.486   7.957
  282POPG   GL1 3375   7.255   3.700   7.620
  282POPG   GL2 3376   7.484   3.879   7.547
  282POPG   C1A 3377   7.372   3.478   7.288
  282POPG   D2A 3378   7.268   3.259   6.865
  282POPG   C3A 3379   7.626   3.374   6.599
  282POPG   C4A 3380   7.759   3.545   6.171
  282POPG   C1B 3381   7.527   3.916   7.159
  282POPG   C2B 3382   7.569   3.874   6.720
  282POPG   C3B 3383   7.563   4.022   6.232
  282POPG   C4B 3384   7.489   4.069   5.722
  283POPG   GL0 3385   7.577   8.887   8.009
  283POPG   PO4 3386   7.221   8.915   7.894
  283POPG   GL1 3387   7.223   9.294   7.685
  283POPG   GL2 3388   7.529   9.273   7.629
  283POPG   C1A 3389   7.025   9.440   7.320
  283POPG   D2A 3390   6.914   9.412   6.839
  283POPG   C3A 3391   7.167   9.440   6.455
  283POPG   C4A 3392   7.355   9.351   6.008
  283POPG   C1B 3393   7.520   9.317   7.252
  283POPG   C2B 3394   7.472   9.203   6.844
  283POPG   C3B 3395   7.546   9.061   6.385
  283POPG   C4B 3396   7.669   8.902   5.909
  284POPG   GL0 3397   7.427  10.354   8.366
  284POPG   PO4 3398   7.114  10.523   8.247
  284POPG   GL1 3399   7.344  10.616   7.877
  284POPG   GL2 3400   7.094  10.808   7.837
  284POPG   C1A 3401   7.536  10.574   7.461
  284POPG   D2A 3402   7.599  10.614   6.958
  284POPG   C3A 3403   7.639  10.445   6.526
  284POPG   C4A 3404   7.785  10.484   6.060
  284POPG   C1B 3405   7.088  10.788   7.465
  284POPG   C2B 3406   7.097  10.761   7.047
  284POPG   C3B 3407   7.250  10.835   6.591
  284POPG   C4B 3408   7.299  10.978   6.113
  285POPG   GL0 3409   7.375  13.019   8.032
  285POPG   PO4 3410   7.473  12.669   7.996
  285POPG   GL1 3411   7.479  12.765   7.629
  285POPG   GL2 3412   7.184  12.847   7.621
  285POPG   C1A 3413   7.727  12.885   7.287
  285POPG   D2A 3414   7.928  13.056   6.861
  285POPG   C3A 3415   7.958  13.217   6.412
  285POPG   C4A 3416   7.937  13.100   5.943
  285POPG   C1B 3417   7.249  12.977   7.284
  285POPG   C2B 3418   7.375  13.077   6.903
  285POPG   C3B 3419   7.400  13.146   6.429
  285POPG   C4B 3420   7.345  13.031   5.952
  286POPG   GL0 3421   8.673   6.913   8.024
  286POPG   PO4 3422   8.431   7.194   8.039
  286POPG   GL1 3423   8.221   7.279   7.719
  286POPG   GL2 3424   7.991   7.091   7.774
  286POPG   C1A 3425   8.181   7.281   7.296
  286POPG   D2A 3426   7.995   7.219   6.848
  286POPG   C3A 3427   8.176   7.208   6.425
  286POPG   C4A 3428   8.261   7.163   5.958
  286POPG   C1B 3429   7.847   6.945   7.458
  286POPG   C2B 3430   7.657   6.912   7.085
  286POPG   C3B 3431   7.593   6.933   6.613
  286POPG   C4B 3432   7.851   6.869   6.187
  287POPG   GL0 3433   8.101   7.597   8.111
  287POPG   PO4 3434   8.031   7.957   8.057
  287POPG   GL1 3435   7.685   7.712   7.869
  287POPG   GL2 3436   7.863   7.527   7.738
  287POPG   C1A 3437   7.693   7.900   7.482
  287POPG   D2A 3438   7.895   7.692   7.080
  287POPG   C3A 3439   8.115   7.698   6.682
  287POPG   C4A 3440   8.018   7.699   6.218
  287POPG   C1B 3441   8.115   7.710   7.526
  287POPG   C2B 3442   8.219   8.028   7.265
  287POPG   C3B 3443   8.191   8.204   6.807
  287POPG   C4B 3444   7.975   8.184   6.358
  288POPG   GL0 3445   9.098   2.020   8.301
  288POPG   PO4 3446   9.001   1.772   8.043
  288POPG   GL1 3447   8.899   2.153   7.859
  288POPG   GL2 3448   8.623   2.067   7.823
  288POPG   C1A 3449   9.038   2.022   7.453
  288POPG   D2A 3450   9.261   1.645   7.187
  288POPG   C3A 3451   9.285   1.769   6.748
  288POPG   C4A 3452   9.104   1.642   6.321
  288POPG   C1B 3453   8.562   1.963   7.486
  288POPG   C2B 3454   8.667   1.995   7.095
  288POPG   C3B 3455   8.822   1.973   6.644
  288POPG   C4B 3456   8.976   2.185   6.231
  289POPG   GL0 3457   8.831   3.558   8.440
  289POPG   PO4 3458   8.751   3.525   8.093
  289POPG   GL1 3459   8.855   3.220   7.849
  289POPG   GL2 3460   8.618   3.288   7.688
  289POPG   C1A 3461   9.106   3.345   7.536
  289POPG   D2A 3462   9.362   3.574   7.176
  289POPG   C3A 3463   9.150   3.576   6.771
  289POPG   C4A 3464   8.984   3.625   6.308
  289POPG   C1B 3465   8.686   3.534   7.425
  289POPG   C2B 3466   8.790   3.751   7.091
  289POPG   C3B 3467   8.616   3.721   6.643
  289POPG   C4B 3468   8.468   3.385   6.318
  290POPG   GL0 3469   8.923   5.309   8.036
  290POPG   PO4 3470   8.556   5.329   8.040
  290POPG   GL1 3471   8.481   5.135   7.715
  290POPG   GL2 3472   8.724   4.953   7.707
  290POPG   C1A 3473   8.597   5.344   7.353
  290POPG   D2A 3474   8.710   5.610   6.951
  290POPG   C3A 3475   8.664   5.233   6.687
  290POPG   C4A 3476   8.427   5.038   6.304
  290POPG   C1B 3477   8.894   4.925   7.379
  290POPG   C2B 3478   8.994   4.782   7.000
  290POPG   C3B 3479   9.067   4.632   6.532
  290POPG   C4B 3480   9.095   4.662   6.016
  291POPG   GL0 3481   9.507   3.480   8.331
  291POPG   PO4 3482   9.263   3.626   8.112
  291POPG   GL1 3483   9.556   3.563   7.831
  291POPG   GL2 3484   9.818   3.538   7.966
  291POPG   C1A 3485   9.587   3.253   7.504
  291POPG   D2A 3486   9.380   3.028   7.086
  291POPG   C3A 3487   9.427   2.914   6.616
  291POPG   C4A 3488   9.353   2.964   6.115
  291POPG   C1B 3489   9.963   3.502   7.620
  291POPG   C2B 3490   9.895   3.527   7.206
  291POPG   C3B 3491   9.670   3.372   6.806
  291POPG   C4B 3492   9.422   3.374   6.382
  292POPG   GL0 3493   9.441   6.404   8.392
  292POPG   PO4 3494   9.408   6.214   8.091
  292POPG   GL1 3495   9.413   6.374   7.738
  292POPG   GL2 3496   9.241   6.614   7.724
  292POPG   C1A 3497   9.610   6.187   7.393
  292POPG   D2A 3498   9.511   6.067   6.928
  292POPG   C3A 3499   9.457   6.353   6.567
  292POPG   C4A 3500   9.419   6.612   6.147
  292POPG   C1B 3501   9.082   6.673   7.394
  292POPG   C2B 3502   8.974   6.820   7.020
  292POPG   C3B 3503   8.867   6.879   6.558
  292POPG   C4B 3504   8.930   6.695   6.097
  293POPG   GL0 3505   9.437   9.528   8.367
  293POPG   PO4 3506   9.765   9.551   8.204
  293POPG   GL1 3507   9.616   9.756   7.876
  293POPG   GL2 3508   9.325   9.771   7.999
  293POPG   C1A 3509   9.655   9.530   7.494
  293POPG   D2A 3510   9.701   9.383   7.029
  293POPG   C3A 3511   9.670   9.621   6.633
  293POPG   C4A 3512   9.722   9.777   6.168
  293POPG   C1B 3513   9.107   9.629   7.738
  293POPG   C2B 3514   9.122   9.512   7.342
  293POPG   C3B 3515   9.205   9.521   6.868
  293POPG   C4B 3516   9.243   9.546   6.375
  294POPG   GL0 3517   9.975   0.298   8.016
  294POPG   PO4 3518  10.257   0.530   8.078
  294POPG   GL1 3519  10.435   0.400   7.747
  294POPG   GL2 3520  10.348   0.114   7.797
  294POPG   C1A 3521  10.347   0.472   7.322
  294POPG   D2A 3522  10.180   0.535   6.856
  294POPG   C3A 3523  10.259   0.465   6.400
  294POPG   C4A 3524  10.083   0.652   5.984
  294POPG   C1B 3525  10.143   0.036   7.506
  294POPG   C2B 3526  10.111   0.024   7.095
  294POPG   C3B 3527  10.068   0.066   6.621
  294POPG   C4B 3528   9.842   0.243   6.199
  295POPG   GL0 3529  10.146   2.363   8.188
  295POPG   PO4 3530   9.881   2.593   8.042
  295POPG   GL1 3531  10.103   2.544   7.715
  295POPG   GL2 3532  10.366   2.640   7.826
  295POPG   C1A 3533  10.067   2.585   7.277
  295POPG   D2A 3534   9.644   2.578   6.992
  295POPG   C3A 3535   9.790   2.417   6.588
  295POPG   C4A 3536  10.145   2.566   6.291
  295POPG   C1B 3537  10.472   2.786   7.496
  295POPG   C2B 3538  10.523   2.832   7.082
  295POPG   C3B 3539  10.488   2.915   6.600
  295POPG   C4B 3540  10.341   3.072   6.153
  296POPG   GL0 3541   9.905   6.284   8.230
  296POPG   PO4 3542   9.970   5.923   8.156
  296POPG   GL1 3543  10.183   6.055   7.833
  296POPG   GL2 3544  10.430   5.921   7.846
  296POPG   C1A 3545  10.154   6.199   7.426
  296POPG   D2A 3546   9.944   6.366   7.002
  296POPG   C3A 3547   9.976   6.197   6.581
  296POPG   C4A 3548  10.149   5.945   6.195
  296POPG   C1B 3549  10.435   5.788   7.508
  296POPG   C2B 3550  10.524   5.790   7.111
  296POPG   C3B 3551  10.325   5.832   6.677
  296POPG   C4B 3552  10.076   5.492   6.415
  297POPG   GL0 3553   9.939   6.797   8.158
  297POPG   PO4 3554   9.620   6.691   8.019
  297POPG   GL1 3555   9.851   6.381   7.784
  297POPG   GL2 3556  10.129   6.495   7.861
  297POPG   C1A 3557   9.880   6.625   7.431
  297POPG   D2A 3558   9.955   7.091   7.293
  297POPG   C3A 3559   9.849   6.869   6.891
  297POPG   C4A 3560   9.830   6.696   6.429
  297POPG   C1B 3561  10.313   6.656   7.567
  297POPG   C2B 3562  10.304   6.735   7.152
  297POPG   C3B 3563  10.277   6.645   6.675
  297POPG   C4B 3564  10.246   6.456   6.213
  298POPG   GL0 3565  10.180   7.242   8.252
  298POPG   PO4 3566  10.180   7.174   7.882
  298POPG   GL1 3567  10.252   7.480   7.592
  298POPG   GL2 3568  10.216   7.718   7.707
  298POPG   C1A 3569  10.186   7.519   7.164
  298POPG   D2A 3570  10.236   7.187   6.810
  298POPG   C3A 3571  10.352   7.074   6.383
  298POPG   C4A 3572  10.355   6.970   5.911
  298POPG   C1B 3573   9.898   7.792   7.558
  298POPG   C2B 3574   9.702   7.742   7.211
  298POPG   C3B 3575   9.799   7.698   6.746
  298POPG   C4B 3576  10.079   7.502   6.404
  299POPG   GL0 3577  10.033   8.137   7.833
  299POPG   PO4 3578  10.332   8.064   8.039
  299POPG   GL1 3579  10.594   7.958   7.759
  299POPG   GL2 3580  10.662   8.244   7.673
  299POPG   C1A 3581  10.413   7.921   7.369
  299POPG   D2A 3582  10.076   8.018   7.041
  299POPG   C3A 3583  10.214   7.990   6.613
  299POPG   C4A 3584  10.293   7.888   6.163
  299POPG   C1B 3585  10.414   8.382   7.426
  299POPG   C2B 3586  10.092   8.496   7.182
  299POPG   C3B 3587   9.935   8.423   6.726
  299POPG   C4B 3588  10.017   8.358   6.243
  300POPG   GL0 3589  10.610   2.135   8.400
  300POPG   PO4 3590  10.469   1.870   8.192
  300POPG   GL1 3591  10.523   2.218   7.934
  300POPG   GL2 3592  10.760   2.080   7.851
  300POPG   C1A 3593  10.443   2.307   7.523
  300POPG   D2A 3594  10.425   2.327   7.033
  300POPG   C3A 3595  10.263   2.196   6.633
  300POPG   C4A 3596  10.464   2.164   6.177
  300POPG   C1B 3597  10.785   1.991   7.500
  300POPG   C2B 3598  10.681   1.895   7.116
  300POPG   C3B 3599  10.681   1.920   6.632
  300POPG   C4B 3600  10.797   1.795   6.145
  301POPG   GL0 3601  10.935  11.801   8.282
  301POPG   PO4 3602  11.027  12.084   8.070
  301POPG   GL1 3603  11.050  11.727   7.813
  301POPG   GL2 3604  10.762  11.715   7.857
  301POPG   C1A 3605  11.077  11.906   7.402
  301POPG   D2A 3606  10.818  12.266   7.156
  301POPG   C3A 3607  10.707  12.336   6.716
  301POPG   C4A 3608  10.803  12.391   6.250
  301POPG   C1B 3609  10.648  11.741   7.512
  301POPG   C2B 3610  10.635  11.808   7.107
  301POPG   C3B 3611  10.529  11.840   6.649
  301POPG   C4B 3612  10.469  11.614   6.227
  302POPG   GL0 3613  10.933  13.611   8.330
  302POPG   PO4 3614  11.051  13.825   8.067
  302POPG   GL1 3615  10.996  13.526   7.846
  302POPG   GL2 3616  10.900  13.291   7.871
  302POPG   C1A 3617  10.951  13.677   7.449
  302POPG   D2A 3618  10.937  13.883   7.014
  302POPG   C3A 3619  11.001  13.690   6.607
  302POPG   C4A 3620  11.155  13.493   6.181
  302POPG   C1B 3621  10.864  13.225   7.508
  302POPG   C2B 3622  10.842  13.270   7.093
  302POPG   C3B 3623  10.711  13.304   6.626
  302POPG   C4B 3624  10.656  13.414   6.141
  303POPG   GL0 3625  11.186   0.236   8.326
  303POPG   PO4 3626  11.226   0.363   7.985
  303POPG   GL1 3627  11.250   0.103   7.687
  303POPG   GL2 3628  11.320   0.381   7.508
  303POPG   C1A 3629  11.345  13.949   7.318
  303POPG   D2A 3630  11.416  13.944   6.844
  303POPG   C3A 3631  11.267   0.050   6.423
  303POPG   C4A 3632  11.358  13.908   5.975
  303POPG   C1B 3633  11.405   0.391   7.130
  303POPG   C2B 3634  11.547   0.401   6.718
  303POPG   C3B 3635  11.565   0.386   6.221
  303POPG   C4B 3636  11.540   0.334   5.733
  304POPG   GL0 3637  11.593   4.050   8.426
  304POPG   PO4 3638  11.431   4.297   8.217
  304POPG   GL1 3639  11.294   4.294   7.808
  304POPG   GL2 3640  11.465   4.527   7.751
  304POPG   C1A 3641  11.440   4.193   7.418
  304POPG   D2A 3642  11.566   4.329   6.964
  304POPG   C3A 3643  11.327   4.197   6.604
  304POPG   C4A 3644  11.209   4.044   6.162
  304POPG   C1B 3645  11.452   4.659   7.403
  304POPG   C2B 3646  11.531   4.824   7.031
  304POPG   C3B 3647  11.619   4.710   6.581
  304POPG   C4B 3648  11.517   4.466   6.192
  305POPG   GL0 3649  11.122   8.819   8.226
  305POPG   PO4 3650  11.193   9.032   7.945
  305POPG   GL1 3651  11.183   8.728   7.647
  305POPG   GL2 3652  11.496   8.711   7.616
  305POPG   C1A 3653  11.202   8.956   7.278
  305POPG   D2A 3654  11.513   9.227   7.006
  305POPG   C3A 3655  11.562   9.246   6.549
  305POPG   C4A 3656  11.556   9.121   6.069
  305POPG   C1B 3657  11.644   8.737   7.261
  305POPG   C2B 3658  11.827   8.813   6.878
  305POPG   C3B 3659  11.940   8.971   6.422
  305POPG   C4B 3660  12.032   9.078   5.943
  306POPG   GL0 3661  12.073   7.045   8.345
  306POPG   PO4 3662  11.961   6.982   8.001
  306POPG   GL1 3663  12.163   7.202   7.725
  306POPG   GL2 3664  12.406   7.018   7.699
  306POPG   C1A 3665  12.112   7.282   7.301
  306POPG   D2A 3666  12.083   7.434   6.832
  306POPG   C3A 3667  12.099   7.186   6.426
  306POPG   C4A 3668  11.934   7.411   6.024
  306POPG   C1B 3669  12.552   7.213   7.415
  306POPG   C2B 3670  12.732   7.413   7.095
  306POPG   C3B 3671  12.532   7.614   6.719
  306POPG   C4B 3672  12.445   7.718   6.266
  307POPG   GL0 3673  12.264   8.082   8.091
  307POPG   PO4 3674  12.621   8.102   7.993
  307POPG   GL1 3675  12.616   7.711   7.775
  307POPG   GL2 3676  12.342   7.669   7.879
  307POPG   C1A 3677  12.420   7.694   7.376
  307POPG   D2A 3678  12.099   7.890   7.049
  307POPG   C3A 3679  12.170   8.013   6.605
  307POPG   C4A 3680  12.312   8.179   6.152
  307POPG   C1B 3681  12.152   7.921   7.673
  307POPG   C2B 3682  12.267   8.221   7.402
  307POPG   C3B 3683  12.233   8.413   6.957
  307POPG   C4B 3684  12.165   8.521   6.479
  308POPG   GL0 3685  12.927   6.220   8.092
  308POPG   PO4 3686  12.888   6.583   8.128
  308POPG   GL1 3687  12.651   6.594   7.714
  308POPG   GL2 3688  12.943   6.588   7.737
  308POPG   C1A 3689  12.735   6.468   7.306
  308POPG   D2A 3690  13.012   6.416   6.882
  308POPG   C3A 3691  13.015   6.352   6.404
  308POPG   C4A 3692  13.130   6.157   5.954
  308POPG   C1B 3693  13.102   6.287   7.621
  308POPG   C2B 3694  13.065   6.077   7.279
  308POPG   C3B 3695  13.152   5.922   6.841
  308POPG   C4B 3696  13.124   5.850   6.360
  309POPG   GL0 3697  12.919   8.130   8.396
  309POPG   PO4 3698  13.139   8.113   8.100
  309POPG   GL1 3699  13.101   7.871   7.767
  309POPG   GL2 3700  13.399   7.866   7.704
  309POPG   C1A 3701  12.875   7.914   7.391
  309POPG   D2A 3702  12.604   8.034   6.984
  309POPG   C3A 3703  12.694   8.080   6.521
  309POPG   C4A 3704  12.801   8.125   6.032
  309POPG   C1B 3705  13.376   7.599   7.464
  309POPG   C2B 3706  13.217   7.648   7.101
  309POPG   C3B 3707  13.021   7.707   6.680
  309POPG   C4B 3708  12.969   7.687   6.201
  310POPG   GL0 3709  12.950  11.993   8.114
  310POPG   PO4 3710  12.744  11.736   7.970
  310POPG   GL1 3711  13.069  11.802   7.705
  310POPG   GL2 3712  12.813  11.916   7.548
  310POPG   C1A 3713  13.251  11.971   7.356
  310POPG   D2A 3714  13.249  12.180   6.912
  310POPG   C3A 3715  13.186  12.011   6.477
  310POPG   C4A 3716  13.079  12.040   6.007
  310POPG   C1B 3717  12.609  11.757   7.279
  310POPG   C2B 3718  12.515  11.736   6.874
  310POPG   C3B 3719  12.633  11.803   6.423
  310POPG   C4B 3720  12.518  12.190   6.179
  311POPG   GL0 3721  12.922  12.971   8.201
  311POPG   PO4 3722  13.082  13.150   7.934
  311POPG   GL1 3723  12.945  12.904   7.648
  311POPG   GL2 3724  13.079  12.648   7.705
  311POPG   C1A 3725  13.064  13.026   7.249
  311POPG   D2A 3726  13.180  13.138   6.785
  311POPG   C3A 3727  12.911  12.937   6.464
  311POPG   C4A 3728  13.265  12.845   6.167
  311POPG   C1B 3729  12.931  12.369   7.499
  311POPG   C2B 3730  12.790  12.199   7.148
  311POPG   C3B 3731  12.779  12.243   6.662
  311POPG   C4B 3732  12.923  12.467   6.224
  312POPG   GL0 3733  13.650   9.426   8.015
  312POPG   PO4 3734  13.605   9.059   8.030
  312POPG   GL1 3735  13.492   9.231   7.612
  312POPG   GL2 3736  13.806   9.273   7.606
  312POPG   C1A 3737  13.437   9.325   7.161
  312POPG   D2A 3738  13.631   9.316   6.686
  312POPG   C3A 3739  13.665   9.426   6.221
  312POPG   C4A 3740  13.714   9.552   5.747
  312POPG   C1B 3741  13.872   9.433   7.282
  312POPG   C2B 3742  13.960   9.608   6.924
  312POPG   C3B 3743  13.847   9.796   6.493
  312POPG   C4B 3744  13.686   9.985   6.050
  313POPG   GL0 3745  13.376  12.745   8.323
  313POPG   PO4 3746  13.490  12.636   7.986
  313POPG   GL1 3747  13.521  12.512   7.587
  313POPG   GL2 3748  13.739  12.655   7.482
  313POPG   C1A 3749  13.274  12.556   7.264
  313POPG   D2A 3750  12.997  12.656   6.882
  313POPG   C3A 3751  13.291  12.535   6.556
  313POPG   C4A 3752  13.563  12.441   6.146
  313POPG   C1B 3753  13.725  12.953   7.256
  313POPG   C2B 3754  13.708  13.103   6.871
  313POPG   C3B 3755  13.705  12.823   6.479
  313POPG   C4B 3756   0.028  12.468   6.368
  314POPG   GL0 3757  13.646   3.677   8.229
  314POPG   PO4 3758  13.342   3.583   8.040
  314POPG   GL1 3759  13.502   3.653   7.645
  314POPG   GL2 3760  13.751   3.780   7.780
  314POPG   C1A 3761  13.486   3.723   7.193
  314POPG   D2A 3762  13.347   3.887   6.712
  314POPG   C3A 3763  13.176   3.817   6.263
  314POPG   C4A 3764  13.088   3.762   5.765
  314POPG   C1B 3765  13.876   3.875   7.454
  314POPG   C2B 3766  13.894   4.048   7.086
  314POPG   C3B 3767  13.858   4.001   6.612
  314POPG   C4B 3768  13.671   3.692   6.296
  315TOCL   GLC 3769   2.997   1.576   6.919
  315TOCL  PO41 3770   3.196   1.394   6.656
  315TOCL  GL11 3771   2.948   1.316   6.304
  315TOCL  GL21 3772   2.965   1.609   6.240
  315TOCL  C1A1 3773   2.544   1.240   6.463
  315TOCL  D2A1 3774   2.157   1.016   6.684
  315TOCL  C3A1 3775   2.148   0.607   6.454
  315TOCL  C4A1 3776   2.103   0.131   6.326
  315TOCL  C1B1 3777   2.660   1.737   6.529
  315TOCL  D2B1 3778   2.271   1.564   6.781
  315TOCL  C3B1 3779   2.008   1.413   6.413
  315TOCL  C4B1 3780   1.901   1.383   5.927
  315TOCL  PO42 3781   2.722   1.509   7.164
  315TOCL  GL12 3782   3.004   1.202   7.292
  315TOCL  GL22 3783   3.136   1.419   7.462
  315TOCL  C1A2 3784   3.410   1.078   7.203
  315TOCL  D2A2 3785   3.875   1.262   7.236
  315TOCL  C3A2 3786   4.210   0.997   7.398
  315TOCL  C4A2 3787   4.682   0.925   7.365
  315TOCL  C1B2 3788   3.450   1.597   7.220
  315TOCL  D2B2 3789   3.531   1.954   6.880
  315TOCL  C3B2 3790   3.525   2.084   7.334
  315TOCL  C4B2 3791   3.150   1.949   7.635
  316TOCL   GLC 3792   7.122   1.983   7.012
  316TOCL  PO41 3793   7.115   1.702   6.767
  316TOCL  GL11 3794   6.874   1.309   6.743
  316TOCL  GL21 3795   6.792   1.407   6.466
  316TOCL  C1A1 3796   6.534   1.029   6.647
  316TOCL  D2A1 3797   6.268   0.674   6.393
  316TOCL  C3A1 3798   6.301   0.921   5.999
  316TOCL  C4A1 3799   6.276   1.262   5.647
  316TOCL  C1B1 3800   6.435   1.590   6.635
  316TOCL  D2B1 3801   6.690   2.006   6.678
  316TOCL  C3B1 3802   6.741   1.826   6.233
  316TOCL  C4B1 3803   6.719   2.029   5.775
  316TOCL  PO42 3804   7.013   1.978   7.363
  316TOCL  GL12 3805   7.240   1.612   7.351
  316TOCL  GL22 3806   7.489   1.781   7.448
  316TOCL  C1A2 3807   7.224   1.156   7.378
  316TOCL  D2A2 3808   7.158   0.679   7.558
  316TOCL  C3A2 3809   7.489   0.337   7.542
  316TOCL  C4A2 3810   7.819  13.981   7.425
  316TOCL  C1B2 3811   7.638   1.950   7.062
  316TOCL  D2B2 3812   7.872   1.835   6.622
  316TOCL  C3B2 3813   7.957   1.583   7.012
  316TOCL  C4B2 3814   7.974   1.853   7.445
  317TOCL   GLC 3815  12.856   1.429   6.910
  317TOCL  PO41 3816  13.191   1.451   6.742
  317TOCL  GL11 3817  13.276   1.137   6.429
  317TOCL  GL21 3818  13.217   1.341   6.217
  317TOCL  C1A1 3819  12.881   0.948   6.432
  317TOCL  D2A1 3820  12.402   1.092   6.475
  317TOCL  C3A1 3821  12.157   0.733   6.295
  317TOCL  C4A1 3822  12.036   0.304   6.080
  317TOCL  C1B1 3823  12.772   1.406   6.245
  317TOCL  D2B1 3824  12.320   1.593   6.344
  317TOCL  C3B1 3825  11.878   1.604   6.180
  317TOCL  C4B1 3826  11.541   1.672   5.798
  317TOCL  PO42 3827  12.510   1.564   6.963
  317TOCL  GL12 3828  12.539   1.524   7.412
  317TOCL  GL22 3829  12.632   1.814   7.437
  317TOCL  C1A2 3830  12.870   1.222   7.445
  317TOCL  D2A2 3831  13.271   0.918   7.392
  317TOCL  C3A2 3832  13.299   0.439   7.480
  317TOCL  C4A2 3833  13.294  13.931   7.477
  317TOCL  C1B2 3834  13.034   1.710   7.325
  317TOCL  D2B2 3835  13.489   1.635   7.146
  317TOCL  C3B2 3836  13.433   2.055   7.340
  317TOCL  C4B2 3837  13.461   2.338   7.737
  318TOCL   GLC 3838   0.622   5.050   6.861
  318TOCL  PO41 3839   0.964   5.071   6.728
  318TOCL  GL11 3840   1.134   4.974   6.343
  318TOCL  GL21 3841   1.128   5.265   6.233
  318TOCL  C1A1 3842   1.513   4.778   6.464
  318TOCL  D2A1 3843   1.867   4.475   6.585
  318TOCL  C3A1 3844   1.568   4.163   6.389
  318TOCL  C4A1 3845   1.231   3.803   6.314
  318TOCL  C1B1 3846   0.772   5.528   6.336
  318TOCL  D2B1 3847   0.340   5.388   6.531
  318TOCL  C3B1 3848   0.221   4.943   6.475
  318TOCL  C4B1 3849   0.088   4.466   6.543
  318TOCL  PO42 3850   0.541   4.750   7.055
  318TOCL  GL12 3851   0.970   4.839   7.155
  318TOCL  GL22 3852   0.823   5.030   7.361
  318TOCL  C1A2 3853   1.427   4.756   7.128
  318TOCL  D2A2 3854   1.943   4.743   7.137
  318TOCL  C3A2 3855   2.068   5.096   7.430
  318TOCL  C4A2 3856   1.898   5.444   7.739
  318TOCL  C1B2 3857   0.742   5.447   7.223
  318TOCL  D2B2 3858   0.710   5.943   7.169
  318TOCL  C3B2 3859   0.997   6.130   7.477
  318TOCL  C4B2 3860   1.447   6.238   7.656
  319TOCL   GLC 3861   4.911   4.726   6.864
  319TOCL  PO41 3862   4.729   4.876   6.576
  319TOCL  GL11 3863   5.110   4.861   6.396
  319TOCL  GL21 3864   5.097   4.552   6.419
  319TOCL  C1A1 3865   5.509   5.052   6.501
  319TOCL  D2A1 3866   5.931   5.312   6.405
  319TOCL  C3A1 3867   5.809   5.764   6.320
  319TOCL  C4A1 3868   5.455   6.099   6.239
  319TOCL  C1B1 3869   5.528   4.545   6.409
  319TOCL  D2B1 3870   5.972   4.776   6.351
  319TOCL  C3B1 3871   5.946   4.998   5.945
  319TOCL  C4B1 3872   5.871   5.149   5.470
  319TOCL  PO42 3873   5.147   4.820   7.134
  319TOCL  GL12 3874   4.784   4.994   7.286
  319TOCL  GL22 3875   4.733   4.689   7.371
  319TOCL  C1A2 3876   4.487   5.254   7.071
  319TOCL  D2A2 3877   4.146   5.492   6.782
  319TOCL  C3A2 3878   4.007   5.445   7.226
  319TOCL  C4A2 3879   4.026   5.175   7.642
  319TOCL  C1B2 3880   4.529   4.435   7.069
  319TOCL  D2B2 3881   4.256   4.297   6.669
  319TOCL  C3B2 3882   4.163   4.044   7.066
  319TOCL  C4B2 3883   4.231   4.092   7.570
  320TOCL   GLC 3884  12.780   4.735   6.996
  320TOCL  PO41 3885  12.910   4.898   6.685
  320TOCL  GL11 3886  12.529   4.830   6.559
  320TOCL  GL21 3887  12.406   4.952   6.836
  320TOCL  C1A1 3888  12.341   4.451   6.628
  320TOCL  D2A1 3889  12.013   4.698   6.911
  320TOCL  C3A1 3890  12.069   4.939   6.506
  320TOCL  C4A1 3891  12.054   4.554   6.220
  320TOCL  C1B1 3892  12.558   5.304   7.071
  320TOCL  D2B1 3893  12.752   5.632   6.758
  320TOCL  C3B1 3894  12.381   5.382   6.594
  320TOCL  C4B1 3895  12.033   5.230   6.920
  320TOCL  PO42 3896  12.491   4.659   7.224
  320TOCL  GL12 3897  12.815   4.381   7.309
  320TOCL  GL22 3898  12.946   4.653   7.450
  320TOCL  C1A2 3899  12.964   4.258   6.896
  320TOCL  D2A2 3900  13.400   4.420   6.696
  320TOCL  C3A2 3901  13.413   4.229   7.121
  320TOCL  C4A2 3902  13.059   3.956   7.342
  320TOCL  C1B2 3903  12.999   5.080   7.300
  320TOCL  D2B2 3904  12.982   5.580   7.242
  320TOCL  C3B2 3905  13.433   5.719   7.234
  320TOCL  C4B2 3906  13.883   5.525   7.205
  321TOCL   GLC 3907   8.942  12.423   7.179
  321TOCL  PO41 3908   9.070  12.111   7.038
  321TOCL  GL11 3909   8.969  12.041   6.639
  321TOCL  GL21 3910   9.181  12.227   6.521
  321TOCL  C1A1 3911   8.576  12.186   6.514
  321TOCL  D2A1 3912   8.277  12.586   6.508
  321TOCL  C3A1 3913   8.203  12.657   6.054
  321TOCL  C4A1 3914   8.305  12.929   5.658
  321TOCL  C1B1 3915   8.942  12.441   6.208
  321TOCL  D2B1 3916   8.696  12.799   5.953
  321TOCL  C3B1 3917   8.478  13.208   6.080
  321TOCL  C4B1 3918   8.599  13.697   6.169
  321TOCL  PO42 3919   8.688  12.538   7.417
  321TOCL  GL12 3920   9.012  12.797   7.508
  321TOCL  GL22 3921   8.922  12.988   7.289
  321TOCL  C1A2 3922   9.383  12.631   7.354
  321TOCL  D2A2 3923   9.505  12.150   7.324
  321TOCL  C3A2 3924   9.401  11.694   7.441
  321TOCL  C4A2 3925   9.280  11.208   7.451
  321TOCL  C1B2 3926   9.139  12.820   6.940
  321TOCL  D2B2 3927   9.462  12.442   6.878
  321TOCL  C3B2 3928   9.857  12.494   7.155
  321TOCL  C4B2 3929  10.035  12.750   7.555
  322DOPE   NH3 3930   0.098   3.076   3.842
  322DOPE   PO4 3931   0.125   2.715   3.865
  322DOPE   GL1 3932  13.984   2.810   4.252
  322DOPE   GL2 3933   0.257   2.963   4.268
  322DOPE   C1A 3934   0.017   2.622   4.641
  322DOPE   D2A 3935   0.178   2.521   5.102
  322DOPE   C3A 3936  13.952   2.829   5.355
  322DOPE   C4A 3937  13.644   3.100   5.608
  322DOPE   C1B 3938   0.482   2.811   4.600
  322DOPE   D2B 3939   0.672   2.638   5.029
  322DOPE   C3B 3940   0.429   2.967   5.255
  322DOPE   C4B 3941   0.225   3.211   5.637
  323DOPE   NH3 3942   0.959   5.468   3.717
  323DOPE   PO4 3943   0.991   5.139   3.615
  323DOPE   GL1 3944   0.764   5.164   4.015
  323DOPE   GL2 3945   1.069   5.149   4.075
  323DOPE   C1A 3946   0.759   5.369   4.413
  323DOPE   D2A 3947   0.849   5.483   4.895
  323DOPE   C3A 3948   0.887   5.388   5.356
  323DOPE   C4A 3949   0.866   5.400   5.848
  323DOPE   C1B 3950   1.099   4.969   4.457
  323DOPE   D2B 3951   1.135   5.035   4.941
  323DOPE   C3B 3952   1.100   4.918   5.389
  323DOPE   C4B 3953   1.060   4.920   5.885
  324DOPE   NH3 3954   1.274   7.554   3.799
  324DOPE   PO4 3955   1.586   7.626   3.887
  324DOPE   GL1 3956   1.438   7.510   4.254
  324DOPE   GL2 3957   1.222   7.317   4.204
  324DOPE   C1A 3958   1.440   7.766   4.610
  324DOPE   D2A 3959   1.497   8.020   5.032
  324DOPE   C3A 3960   1.204   7.935   5.375
  324DOPE   C4A 3961   1.005   7.652   5.736
  324DOPE   C1B 3962   1.183   7.294   4.638
  324DOPE   D2B 3963   1.333   7.521   5.052
  324DOPE   C3B 3964   1.346   7.313   5.456
  324DOPE   C4B 3965   1.281   6.993   5.805
  325DOPE   NH3 3966   2.487   7.399   4.044
  325DOPE   PO4 3967   2.810   7.281   3.981
  325DOPE   GL1 3968   2.938   7.484   4.371
  325DOPE   GL2 3969   2.698   7.601   4.396
  325DOPE   C1A 3970   3.041   7.836   4.640
  325DOPE   D2A 3971   3.121   7.713   5.113
  325DOPE   C3A 3972   2.796   7.547   5.410
  325DOPE   C4A 3973   2.552   7.440   5.819
  325DOPE   C1B 3974   2.551   7.668   4.805
  325DOPE   D2B 3975   2.305   7.653   5.231
  325DOPE   C3B 3976   2.460   7.886   5.598
  325DOPE   C4B 3977   2.390   7.857   6.064
  326DOPE   NH3 3978   2.743  10.843   3.763
  326DOPE   PO4 3979   2.418  10.993   3.773
  326DOPE   GL1 3980   2.545  10.933   4.172
  326DOPE   GL2 3981   2.542  10.633   4.129
  326DOPE   C1A 3982   2.815  10.826   4.490
  326DOPE   D2A 3983   2.721  10.679   4.955
  326DOPE   C3A 3984   2.866  10.804   5.378
  326DOPE   C4A 3985   2.863  10.897   5.860
  326DOPE   C1B 3986   2.375  10.574   4.520
  326DOPE   D2B 3987   2.213  10.485   4.972
  326DOPE   C3B 3988   2.421  10.517   5.390
  326DOPE   C4B 3989   2.558  10.498   5.866
  327DOPE   NH3 3990   3.065   2.515   3.715
  327DOPE   PO4 3991   3.267   2.290   3.904
  327DOPE   GL1 3992   3.223   2.525   4.222
  327DOPE   GL2 3993   2.987   2.697   4.140
  327DOPE   C1A 3994   3.183   2.309   4.627
  327DOPE   D2A 3995   3.112   2.273   5.134
  327DOPE   C3A 3996   2.936   2.004   5.484
  327DOPE   C4A 3997   2.805   1.621   5.781
  327DOPE   C1B 3998   2.799   2.651   4.530
  327DOPE   D2B 3999   2.921   2.754   5.001
  327DOPE   C3B 4000   2.919   2.655   5.457
  327DOPE   C4B 4001   2.722   2.390   5.817
  328DOPE   NH3 4002   3.998   1.376   4.068
  328DOPE   PO4 4003   4.042   1.026   4.049
  328DOPE   GL1 4004   4.174   1.119   4.421
  328DOPE   GL2 4005   4.413   0.945   4.432
  328DOPE   C1A 4006   3.985   1.233   4.803
  328DOPE   D2A 4007   3.829   1.043   5.247
  328DOPE   C3A 4008   3.695   1.084   5.711
  328DOPE   C4A 4009   3.596   1.118   6.207
  328DOPE   C1B 4010   4.186   0.746   4.742
  328DOPE   D2B 4011   3.961   0.515   5.124
  328DOPE   C3B 4012   3.985   0.654   5.566
  328DOPE   C4B 4013   4.039   0.761   6.051
  329DOPE   NH3 4014   5.451   0.828   4.036
  329DOPE   PO4 4015   5.624   1.128   3.976
  329DOPE   GL1 4016   5.475   1.301   4.270
  329DOPE   GL2 4017   5.252   1.165   4.314
  329DOPE   C1A 4018   5.457   1.420   4.684
  329DOPE   D2A 4019   5.488   1.236   5.147
  329DOPE   C3A 4020   5.631   1.292   5.586
  329DOPE   C4A 4021   5.896   1.249   5.981
  329DOPE   C1B 4022   5.327   0.896   4.634
  329DOPE   D2B 4023   5.560   0.727   5.041
  329DOPE   C3B 4024   5.443   0.833   5.486
  329DOPE   C4B 4025   5.390   0.964   5.955
  330DOPE   NH3 4026   5.293  11.300   3.602
  330DOPE   PO4 4027   5.276  11.185   3.934
  330DOPE   GL1 4028   5.328  11.271   4.342
  330DOPE   GL2 4029   5.320  11.548   4.288
  330DOPE   C1A 4030   5.170  11.410   4.735
  330DOPE   D2A 4031   4.930  11.690   5.078
  330DOPE   C3A 4032   5.189  11.418   5.374
  330DOPE   C4A 4033   5.629  11.288   5.577
  330DOPE   C1B 4034   5.633  11.622   4.606
  330DOPE   D2B 4035   5.931  11.728   5.005
  330DOPE   C3B 4036   5.903  11.719   5.483
  330DOPE   C4B 4037   5.823  11.735   5.976
  331DOPE   NH3 4038   5.465  13.696   3.751
  331DOPE   PO4 4039   5.239  13.839   3.969
  331DOPE   GL1 4040   5.196  13.593   4.255
  331DOPE   GL2 4041   5.316  13.332   4.237
  331DOPE   C1A 4042   5.200  13.739   4.680
  331DOPE   D2A 4043   5.300  13.955   5.127
  331DOPE   C3A 4044   5.360   0.042   5.580
  331DOPE   C4A 4045   5.369   0.007   6.073
  331DOPE   C1B 4046   5.361  13.220   4.646
  331DOPE   D2B 4047   5.438  13.467   5.065
  331DOPE   C3B 4048   5.455  13.560   5.506
  331DOPE   C4B 4049   5.474  13.497   5.987
  332DOPE   NH3 4050   6.158   8.758   3.672
  332DOPE   PO4 4051   6.507   8.705   3.713
  332DOPE   GL1 4052   6.295   8.760   4.135
  332DOPE   GL2 4053   6.187   9.025   4.048
  332DOPE   C1A 4054   6.218   8.723   4.592
  332DOPE   D2A 4055   6.182   8.383   4.943
  332DOPE   C3A 4056   6.281   8.612   5.317
  332DOPE   C4A 4057   6.342   8.824   5.737
  332DOPE   C1B 4058   6.367   9.192   4.412
  332DOPE   D2B 4059   6.359   9.121   4.885
  332DOPE   C3B 4060   6.304   9.131   5.323
  332DOPE   C4B 4061   6.122   9.319   5.717
  333DOPE   NH3 4062   6.270  12.198   4.008
  333DOPE   PO4 4063   6.571  12.078   3.880
  333DOPE   GL1 4064   6.615  11.943   4.224
  333DOPE   GL2 4065   6.745  11.691   4.161
  333DOPE   C1A 4066   6.617  12.180   4.587
  333DOPE   D2A 4067   6.579  12.244   5.074
  333DOPE   C3A 4068   6.851  12.378   5.430
  333DOPE   C4A 4069   6.794  12.259   5.907
  333DOPE   C1B 4070   7.084  11.762   4.416
  333DOPE   D2B 4071   7.311  11.919   4.817
  333DOPE   C3B 4072   7.370  11.940   5.265
  333DOPE   C4B 4073   7.179  12.058   5.685
  334DOPE   NH3 4074   6.550  12.825   3.802
  334DOPE   PO4 4075   6.592  12.585   4.054
  334DOPE   GL1 4076   6.723  12.937   4.246
  334DOPE   GL2 4077   6.509  13.115   4.203
  334DOPE   C1A 4078   6.747  12.948   4.676
  334DOPE   D2A 4079   7.120  12.871   4.971
  334DOPE   C3A 4080   7.093  12.852   5.435
  334DOPE   C4A 4081   6.718  12.766   5.757
  334DOPE   C1B 4082   6.300  13.155   4.602
  334DOPE   D2B 4083   6.223  13.095   5.078
  334DOPE   C3B 4084   6.646  13.078   5.297
  334DOPE   C4B 4085   6.879  13.245   5.696
  335DOPE   NH3 4086   7.650   6.317   3.982
  335DOPE   PO4 4087   7.909   6.538   3.880
  335DOPE   GL1 4088   7.652   6.769   4.144
  335DOPE   GL2 4089   7.841   6.989   4.135
  335DOPE   C1A 4090   7.634   6.524   4.520
  335DOPE   D2A 4091   7.766   6.064   4.618
  335DOPE   C3A 4092   7.603   6.217   5.026
  335DOPE   C4A 4093   7.482   6.184   5.499
  335DOPE   C1B 4094   8.015   6.869   4.523
  335DOPE   D2B 4095   7.936   6.624   4.961
  335DOPE   C3B 4096   7.667   6.653   5.362
  335DOPE   C4B 4097   7.526   6.951   5.745
  336DOPE   NH3 4098   8.473   0.185   3.833
  336DOPE   PO4 4099   8.271  13.949   3.999
  336DOPE   GL1 4100   8.485   0.089   4.314
  336DOPE   GL2 4101   8.331   0.357   4.322
  336DOPE   C1A 4102   8.349  13.858   4.674
  336DOPE   D2A 4103   8.162  13.566   5.043
  336DOPE   C3A 4104   8.189  13.830   5.434
  336DOPE   C4A 4105   8.374   0.036   5.844
  336DOPE   C1B 4106   8.261   0.360   4.787
  336DOPE   D2B 4107   8.264   0.339   5.304
  336DOPE   C3B 4108   8.157   0.487   5.755
  336DOPE   C4B 4109   8.135   0.753   6.185
  337DOPE   NH3 4110   8.231   8.125   3.998
  337DOPE   PO4 4111   8.460   8.381   3.925
  337DOPE   GL1 4112   8.713   8.389   4.327
  337DOPE   GL2 4113   8.616   8.111   4.271
  337DOPE   C1A 4114   8.662   8.305   4.784
  337DOPE   D2A 4115   8.498   8.245   5.267
  337DOPE   C3A 4116   8.439   8.452   5.698
  337DOPE   C4A 4117   8.370   8.488   6.204
  337DOPE   C1B 4118   8.268   8.067   4.571
  337DOPE   D2B 4119   8.031   8.123   5.030
  337DOPE   C3B 4120   8.082   8.061   5.500
  337DOPE   C4B 4121   8.269   8.047   5.952
  338DOPE   NH3 4122   9.477   8.264   3.854
  338DOPE   PO4 4123   9.678   7.962   3.893
  338DOPE   GL1 4124   9.965   8.166   4.100
  338DOPE   GL2 4125  10.208   8.024   4.172
  338DOPE   C1A 4126   9.772   8.194   4.486
  338DOPE   D2A 4127   9.524   8.131   4.912
  338DOPE   C3A 4128   9.687   8.166   5.361
  338DOPE   C4A 4129   9.611   7.846   5.746
  338DOPE   C1B 4130  10.180   7.924   4.602
  338DOPE   D2B 4131  10.019   8.285   4.917
  338DOPE   C3B 4132  10.185   8.297   5.331
  338DOPE   C4B 4133  10.081   8.058   5.749
  339DOPE   NH3 4134  10.210   4.686   3.988
  339DOPE   PO4 4135  10.563   4.685   3.964
  339DOPE   GL1 4136  10.499   4.449   4.296
  339DOPE   GL2 4137  10.678   4.219   4.264
  339DOPE   C1A 4138  10.155   4.340   4.550
  339DOPE   D2A 4139  10.004   4.357   5.031
  339DOPE   C3A 4140  10.193   4.326   5.456
  339DOPE   C4A 4141  10.528   4.510   5.765
  339DOPE   C1B 4142  10.833   4.316   4.655
  339DOPE   D2B 4143  10.947   4.642   5.005
  339DOPE   C3B 4144  11.150   4.352   5.291
  339DOPE   C4B 4145  11.002   4.301   5.748
  340DOPE   NH3 4146  10.617  11.299   3.926
  340DOPE   PO4 4147  10.310  11.153   3.856
  340DOPE   GL1 4148  10.401  10.978   4.244
  340DOPE   GL2 4149  10.673  10.903   4.170
  340DOPE   C1A 4150  10.418  11.088   4.689
  340DOPE   D2A 4151  10.397  11.265   5.165
  340DOPE   C3A 4152  10.439  11.212   5.646
  340DOPE   C4A 4153  10.424  11.101   6.125
  340DOPE   C1B 4154  10.888  10.958   4.552
  340DOPE   D2B 4155  10.851  11.074   5.021
  340DOPE   C3B 4156  10.859  11.333   5.407
  340DOPE   C4B 4157  10.828  11.504   5.879
  341DOPE   NH3 4158  11.233   3.246   3.867
  341DOPE   PO4 4159  11.363   3.565   3.847
  341DOPE   GL1 4160  11.418   3.871   4.129
  341DOPE   GL2 4161  11.131   3.940   4.086
  341DOPE   C1A 4162  11.605   3.771   4.524
  341DOPE   D2A 4163  11.802   3.719   4.986
  341DOPE   C3A 4164  11.596   3.542   5.382
  341DOPE   C4A 4165  11.216   3.387   5.672
  341DOPE   C1B 4166  11.104   3.901   4.523
  341DOPE   D2B 4167  11.331   3.962   4.973
  341DOPE   C3B 4168  11.221   3.881   5.434
  341DOPE   C4B 4169  10.943   3.778   5.836
  342DOPE   NH3 4170  11.451   4.358   3.891
  342DOPE   PO4 4171  11.268   4.661   3.855
  342DOPE   GL1 4172  11.004   4.629   4.195
  342DOPE   GL2 4173  11.104   4.348   4.252
  342DOPE   C1A 4174  11.217   4.677   4.562
  342DOPE   D2A 4175  11.464   4.582   4.957
  342DOPE   C3A 4176  11.483   4.701   5.401
  342DOPE   C4A 4177  11.307   4.753   5.853
  342DOPE   C1B 4178  11.471   4.258   4.436
  342DOPE   D2B 4179  11.776   4.192   4.790
  342DOPE   C3B 4180  11.701   4.227   5.251
  342DOPE   C4B 4181  11.488   4.248   5.695
  343DOPE   NH3 4182  11.688   5.775   4.035
  343DOPE   PO4 4183  11.404   5.614   3.917
  343DOPE   GL1 4184  11.278   5.797   4.288
  343DOPE   GL2 4185  11.202   5.529   4.364
  343DOPE   C1A 4186  11.224   5.954   4.686
  343DOPE   D2A 4187  10.965   6.118   5.079
  343DOPE   C3A 4188  11.258   5.933   5.404
  343DOPE   C4A 4189  11.401   6.045   5.866
  343DOPE   C1B 4190  11.439   5.484   4.741
  343DOPE   D2B 4191  11.596   5.576   5.221
  343DOPE   C3B 4192  11.502   5.566   5.685
  343DOPE   C4B 4193  11.467   5.494   6.174
  344DOPE   NH3 4194  12.157  11.573   3.740
  344DOPE   PO4 4195  12.388  11.298   3.736
  344DOPE   GL1 4196  12.465  11.253   4.164
  344DOPE   GL2 4197  12.173  11.376   4.179
  344DOPE   C1A 4198  12.423  11.151   4.580
  344DOPE   D2A 4199  12.213  11.188   5.022
  344DOPE   C3A 4200  12.245  11.149   5.465
  344DOPE   C4A 4201  12.023  11.308   5.841
  344DOPE   C1B 4202  11.952  11.372   4.587
  344DOPE   D2B 4203  11.711  11.117   4.960
  344DOPE   C3B 4204  11.707  11.075   5.434
  344DOPE   C4B 4205  11.638  11.014   5.928
  345DOPE   NH3 4206  12.870  11.246   3.903
  345DOPE   PO4 4207  13.122  11.061   4.090
  345DOPE   GL1 4208  12.863  11.130   4.373
  345DOPE   GL2 4209  12.857  11.436   4.335
  345DOPE   C1A 4210  12.850  10.967   4.777
  345DOPE   D2A 4211  12.606  10.891   5.199
  345DOPE   C3A 4212  13.023  11.101   5.264
  345DOPE   C4A 4213  13.391  11.378   5.412
  345DOPE   C1B 4214  12.782  11.479   4.750
  345DOPE   D2B 4215  12.619  11.420   5.210
  345DOPE   C3B 4216  13.017  11.643   5.167
  345DOPE   C4B 4217  12.950  11.540   5.624
  346DOPE   NH3 4218  13.039   3.166   4.087
  346DOPE   PO4 4219  12.857   3.475   4.102
  346DOPE   GL1 4220  13.167   3.680   4.309
  346DOPE   GL2 4221  13.321   3.434   4.362
  346DOPE   C1A 4222  12.973   3.694   4.710
  346DOPE   D2A 4223  12.914   3.743   5.203
  346DOPE   C3A 4224  12.645   3.858   5.561
  346DOPE   C4A 4225  12.708   3.898   6.060
  346DOPE   C1B 4226  13.123   3.201   4.654
  346DOPE   D2B 4227  12.632   3.256   4.619
  346DOPE   C3B 4228  12.761   3.252   5.066
  346DOPE   C4B 4229  12.818   3.370   5.535
  347DOPE   NH3 4230  13.723  10.288   3.975
  347DOPE   PO4 4231  13.514  10.069   4.156
  347DOPE   GL1 4232  13.403  10.315   4.485
  347DOPE   GL2 4233  13.664  10.486   4.488
  347DOPE   C1A 4234  13.205  10.194   4.870
  347DOPE   D2A 4235  13.155  10.037   5.341
  347DOPE   C3A 4236  13.595  10.000   5.511
  347DOPE   C4A 4237   0.070  10.030   5.650
  347DOPE   C1B 4238  13.765  10.515   4.949
  347DOPE   D2B 4239  13.819  10.468   5.468
  347DOPE   C3B 4240  13.725  10.504   5.948
  347DOPE   C4B 4241  13.599  10.679   6.413
  348DVPE   NH3 4242   0.484   4.215   3.904
  348DVPE   PO4 4243   0.188   4.320   4.055
  348DVPE   GL1 4244   0.445   4.256   4.401
  348DVPE   GL2 4245   0.617   4.481   4.316
  348DVPE   C1A 4246   0.460   4.147   4.838
  348DVPE   C2A 4247   0.476   4.105   5.350
  348DVPE   D3A 4248   0.854   4.068   5.625
  348DVPE   C4A 4249   0.883   4.138   6.106
  348DVPE   C1B 4250   0.464   4.644   4.699
  348DVPE   C2B 4251   0.304   4.646   5.177
  348DVPE   D3B 4252   0.236   4.537   5.624
  348DVPE   C4B 4253   0.344   4.610   6.088
  349DVPE   NH3 4254   0.174   5.664   3.994
  349DVPE   PO4 4255   0.491   5.605   3.843
  349DVPE   GL1 4256   0.585   5.777   4.209
  349DVPE   GL2 4257   0.501   6.066   4.100
  349DVPE   C1A 4258   0.429   5.684   4.631
  349DVPE   C2A 4259   0.397   5.563   5.139
  349DVPE   D3A 4260   0.401   5.477   5.604
  349DVPE   C4A 4261   0.365   5.581   6.053
  349DVPE   C1B 4262   0.597   6.156   4.518
  349DVPE   C2B 4263   0.673   6.006   5.010
  349DVPE   D3B 4264   0.722   5.840   5.453
  349DVPE   C4B 4265   0.758   5.896   5.933
  350DVPE   NH3 4266   0.264   6.855   4.030
  350DVPE   PO4 4267   0.315   6.507   3.946
  350DVPE   GL1 4268   0.184   6.376   4.319
  350DVPE   GL2 4269   0.409   6.602   4.408
  350DVPE   C1A 4270   0.118   6.126   4.680
  350DVPE   C2A 4271   0.164   6.210   5.181
  350DVPE   D3A 4272   0.148   6.486   5.566
  350DVPE   C4A 4273  13.908   6.291   5.925
  350DVPE   C1B 4274   0.393   6.874   4.762
  350DVPE   C2B 4275   0.533   6.781   5.256
  350DVPE   D3B 4276   0.594   6.335   5.410
  350DVPE   C4B 4277   0.314   6.016   5.661
  351DVPE   NH3 4278   0.151   7.874   3.712
  351DVPE   PO4 4279   0.448   7.779   3.872
  351DVPE   GL1 4280   0.569   7.913   4.273
  351DVPE   GL2 4281   0.519   8.195   4.156
  351DVPE   C1A 4282   0.467   7.975   4.719
  351DVPE   C2A 4283   0.276   8.037   5.211
  351DVPE   D3A 4284   0.033   8.067   5.627
  351DVPE   C4A 4285   0.154   8.184   6.090
  351DVPE   C1B 4286   0.728   8.352   4.507
  351DVPE   C2B 4287   0.769   8.309   5.006
  351DVPE   D3B 4288   0.816   8.290   5.457
  351DVPE   C4B 4289   0.434   8.388   5.721
  352DVPE   NH3 4290   0.657   8.841   3.841
  352DVPE   PO4 4291   0.361   8.759   4.008
  352DVPE   GL1 4292   0.616   8.768   4.347
  352DVPE   GL2 4293   0.777   9.022   4.250
  352DVPE   C1A 4294   0.504   8.735   4.802
  352DVPE   C2A 4295   0.526   8.741   5.350
  352DVPE   D3A 4296   0.468   8.883   5.834
  352DVPE   C4A 4297   0.401   8.949   6.329
  352DVPE   C1B 4298   0.743   9.236   4.620
  352DVPE   C2B 4299   0.570   9.210   5.098
  352DVPE   D3B 4300   0.312   9.187   5.482
  352DVPE   C4B 4301   0.768   9.258   5.647
  353DVPE   NH3 4302   0.745  10.065   3.947
  353DVPE   PO4 4303   0.451   9.873   3.977
  353DVPE   GL1 4304   0.557   9.887   4.378
  353DVPE   GL2 4305   0.503   9.575   4.371
  353DVPE   C1A 4306   0.476  10.032   4.796
  353DVPE   C2A 4307   0.528  10.033   5.316
  353DVPE   D3A 4308   0.627  10.062   5.774
  353DVPE   C4A 4309   0.438  10.039   6.210
  353DVPE   C1B 4310   0.312   9.522   4.746
  353DVPE   C2B 4311   0.245   9.624   5.240
  353DVPE   D3B 4312   0.391   9.637   5.682
  353DVPE   C4B 4313   0.103   9.698   6.060
  354DVPE   NH3 4314   0.322  10.991   3.788
  354DVPE   PO4 4315   0.661  10.982   3.908
  354DVPE   GL1 4316   0.499  10.734   4.199
  354DVPE   GL2 4317   0.236  10.886   4.225
  354DVPE   C1A 4318   0.565  10.807   4.615
  354DVPE   C2A 4319   0.691  10.900   5.105
  354DVPE   D3A 4320   0.550  10.957   5.540
  354DVPE   C4A 4321   0.485  10.919   6.005
  354DVPE   C1B 4322   0.284  11.238   4.476
  354DVPE   C2B 4323   0.362  11.275   4.979
  354DVPE   D3B 4324   0.590  11.418   5.360
  354DVPE   C4B 4325   0.755  11.484   5.781
  355DVPE   NH3 4326  13.898  13.829   3.966
  355DVPE   PO4 4327   0.062  13.525   3.857
  355DVPE   GL1 4328   0.139  13.264   4.170
  355DVPE   GL2 4329   0.446  13.353   4.130
  355DVPE   C1A 4330   0.080  13.119   4.603
  355DVPE   C2A 4331   0.210  13.057   5.110
  355DVPE   D3A 4332   0.254  13.379   5.457
  355DVPE   C4A 4333  13.985  13.784   5.548
  355DVPE   C1B 4334   0.526  13.394   4.574
  355DVPE   C2B 4335   0.508  13.598   5.064
  355DVPE   D3B 4336   0.513  13.807   5.505
  355DVPE   C4B 4337   0.648  13.678   5.956
  356DVPE   NH3 4338   1.138   6.565   3.800
  356DVPE   PO4 4339   1.268   6.347   4.029
  356DVPE   GL1 4340   1.441   6.675   4.233
  356DVPE   GL2 4341   1.231   6.855   4.145
  356DVPE   C1A 4342   1.302   6.767   4.625
  356DVPE   C2A 4343   1.502   6.536   5.018
  356DVPE   D3A 4344   1.498   6.254   5.370
  356DVPE   C4A 4345   1.409   6.512   5.753
  356DVPE   C1B 4346   0.865   6.911   4.380
  356DVPE   C2B 4347   0.886   6.892   4.882
  356DVPE   D3B 4348   1.146   6.895   5.250
  356DVPE   C4B 4349   0.931   6.682   5.601
  357DVPE   NH3 4350   1.117  11.161   3.734
  357DVPE   PO4 4351   0.963  11.427   3.885
  357DVPE   GL1 4352   0.929  11.211   4.225
  357DVPE   GL2 4353   1.197  11.347   4.315
  357DVPE   C1A 4354   0.813  11.247   4.630
  357DVPE   C2A 4355   1.003  11.387   5.063
  357DVPE   D3A 4356   1.054  11.189   5.464
  357DVPE   C4A 4357   0.954  11.053   5.895
  357DVPE   C1B 4358   1.364  11.216   4.708
  357DVPE   C2B 4359   1.496  11.152   5.205
  357DVPE   D3B 4360   1.529  11.152   5.676
  357DVPE   C4B 4361   1.254  11.482   5.861
  358DVPE   NH3 4362   1.222  12.129   4.113
  358DVPE   PO4 4363   1.279  11.786   4.160
  358DVPE   GL1 4364   1.151  11.757   4.557
  358DVPE   GL2 4365   0.935  11.961   4.488
  358DVPE   C1A 4366   1.259  11.904   4.952
  358DVPE   C2A 4367   1.384  12.130   5.403
  358DVPE   D3A 4368   1.338  12.327   5.825
  358DVPE   C4A 4369   1.513  11.897   5.908
  358DVPE   C1B 4370   0.590  11.674   4.500
  358DVPE   C2B 4371   0.613  11.728   4.979
  358DVPE   D3B 4372   0.869  11.884   5.324
  358DVPE   C4B 4373   1.020  11.938   5.759
  359DVPE   NH3 4374   1.154  12.688   3.862
  359DVPE   PO4 4375   1.161  12.957   4.079
  359DVPE   GL1 4376   1.459  12.811   4.286
  359DVPE   GL2 4377   1.420  12.522   4.247
  359DVPE   C1A 4378   1.384  12.822   4.706
  359DVPE   C2A 4379   1.154  12.823   5.158
  359DVPE   D3A 4380   1.148  12.988   5.589
  359DVPE   C4A 4381   1.402  13.079   5.988
  359DVPE   C1B 4382   1.258  12.331   4.630
  359DVPE   C2B 4383   1.035  12.337   5.104
  359DVPE   D3B 4384   0.968  12.515   5.549
  359DVPE   C4B 4385   0.827  12.797   5.936
  360DVPE   NH3 4386   1.039  13.431   3.859
  360DVPE   PO4 4387   1.318  13.472   4.065
  360DVPE   GL1 4388   0.959  13.523   4.324
  360DVPE   GL2 4389   0.861  13.250   4.262
  360DVPE   C1A 4390   0.968  13.592   4.765
  360DVPE   C2A 4391   0.966  13.759   5.252
  360DVPE   D3A 4392   0.995  13.966   5.660
  360DVPE   C4A 4393   1.474  13.922   5.672
  360DVPE   C1B 4394   0.939  13.090   4.669
  360DVPE   C2B 4395   0.729  13.149   5.124
  360DVPE   D3B 4396   0.783  13.365   5.538
  360DVPE   C4B 4397   1.236  13.477   5.648
  361DVPE   NH3 4398   2.791   2.274   4.073
  361DVPE   PO4 4399   2.860   1.935   4.019
  361DVPE   GL1 4400   2.794   2.041   4.469
  361DVPE   GL2 4401   2.521   1.904   4.387
  361DVPE   C1A 4402   2.852   1.878   4.869
  361DVPE   C2A 4403   2.602   1.717   5.287
  361DVPE   D3A 4404   2.445   1.950   5.683
  361DVPE   C4A 4405   2.700   1.986   6.101
  361DVPE   C1B 4406   2.276   1.678   4.700
  361DVPE   C2B 4407   2.194   1.450   5.161
  361DVPE   D3B 4408   2.314   1.453   5.625
  361DVPE   C4B 4409   2.376   1.584   6.088
  362DVPE   NH3 4410   1.870   3.793   3.944
  362DVPE   PO4 4411   1.658   4.052   4.043
  362DVPE   GL1 4412   1.518   3.832   4.397
  362DVPE   GL2 4413   1.814   3.714   4.394
  362DVPE   C1A 4414   1.434   3.876   4.831
  362DVPE   C2A 4415   1.743   3.653   5.170
  362DVPE   D3A 4416   1.990   3.793   5.533
  362DVPE   C4A 4417   1.788   3.924   5.945
  362DVPE   C1B 4418   2.086   3.593   4.731
  362DVPE   C2B 4419   2.235   3.459   5.202
  362DVPE   D3B 4420   2.262   3.342   5.635
  362DVPE   C4B 4421   2.251   3.715   5.953
  363DVPE   NH3 4422   1.431   4.402   3.768
  363DVPE   PO4 4423   1.446   4.551   4.084
  363DVPE   GL1 4424   1.793   4.426   4.282
  363DVPE   GL2 4425   1.848   4.718   4.372
  363DVPE   C1A 4426   1.808   4.170   4.649
  363DVPE   C2A 4427   1.759   4.172   5.160
  363DVPE   D3A 4428   1.692   4.287   5.610
  363DVPE   C4A 4429   1.795   4.470   6.044
  363DVPE   C1B 4430   1.866   4.643   4.822
  363DVPE   C2B 4431   1.961   4.630   5.339
  363DVPE   D3B 4432   2.068   4.818   5.769
  363DVPE   C4B 4433   2.064   4.849   6.258
  364DVPE   NH3 4434   1.189   5.576   4.159
  364DVPE   PO4 4435   1.452   5.796   4.135
  364DVPE   GL1 4436   1.590   5.529   4.390
  364DVPE   GL2 4437   1.540   5.260   4.240
  364DVPE   C1A 4438   1.353   5.493   4.746
  364DVPE   C2A 4439   1.376   5.387   5.234
  364DVPE   D3A 4440   1.344   5.269   5.668
  364DVPE   C4A 4441   1.600   5.524   5.958
  364DVPE   C1B 4442   1.580   5.038   4.633
  364DVPE   C2B 4443   1.583   4.925   5.149
  364DVPE   D3B 4444   1.570   4.810   5.605
  364DVPE   C4B 4445   1.603   5.006   6.029
  365DVPE   NH3 4446   1.985   5.966   3.798
  365DVPE   PO4 4447   1.685   6.135   3.844
  365DVPE   GL1 4448   1.716   6.316   4.189
  365DVPE   GL2 4449   2.033   6.295   4.153
  365DVPE   C1A 4450   1.556   6.233   4.602
  365DVPE   C2A 4451   1.599   5.903   4.993
  365DVPE   D3A 4452   1.646   5.772   5.445
  365DVPE   C4A 4453   1.588   6.035   5.842
  365DVPE   C1B 4454   2.047   6.316   4.583
  365DVPE   C2B 4455   1.949   6.265   5.091
  365DVPE   D3B 4456   1.967   6.226   5.568
  365DVPE   C4B 4457   1.895   6.579   5.902
  366DVPE   NH3 4458   1.974   6.845   3.687
  366DVPE   PO4 4459   1.672   6.699   3.814
  366DVPE   GL1 4460   2.024   6.925   4.119
  366DVPE   GL2 4461   1.911   6.706   4.212
  366DVPE   C1A 4462   2.145   7.143   4.456
  366DVPE   C2A 4463   2.142   7.251   4.938
  366DVPE   D3A 4464   1.904   7.253   5.338
  366DVPE   C4A 4465   2.071   7.523   5.689
  366DVPE   C1B 4466   1.784   6.820   4.586
  366DVPE   C2B 4467   1.575   7.042   5.004
  366DVPE   D3B 4468   1.617   6.839   5.427
  366DVPE   C4B 4469   1.777   7.083   5.803
  367DVPE   NH3 4470   1.735   8.368   3.709
  367DVPE   PO4 4471   1.755   8.107   3.950
  367DVPE   GL1 4472   1.680   8.386   4.267
  367DVPE   GL2 4473   1.931   8.481   4.160
  367DVPE   C1A 4474   1.736   8.329   4.705
  367DVPE   C2A 4475   1.746   8.424   5.221
  367DVPE   D3A 4476   1.759   8.408   5.699
  367DVPE   C4A 4477   1.853   8.578   6.129
  367DVPE   C1B 4478   2.157   8.577   4.527
  367DVPE   C2B 4479   2.164   8.665   5.025
  367DVPE   D3B 4480   2.114   8.709   5.479
  367DVPE   C4B 4481   2.423   8.351   5.390
  368DVPE   NH3 4482   1.700  10.605   4.019
  368DVPE   PO4 4483   1.828  10.312   3.898
  368DVPE   GL1 4484   2.134  10.413   4.147
  368DVPE   GL2 4485   2.125  10.736   4.113
  368DVPE   C1A 4486   1.929  10.330   4.531
  368DVPE   C2A 4487   1.786  10.159   4.980
  368DVPE   D3A 4488   1.921  10.323   5.357
  368DVPE   C4A 4489   1.652  10.259   5.716
  368DVPE   C1B 4490   1.908  10.849   4.487
  368DVPE   C2B 4491   1.716  10.721   4.950
  368DVPE   D3B 4492   1.650  10.725   5.415
  368DVPE   C4B 4493   2.044  10.704   5.703
  369DVPE   NH3 4494   1.928  11.373   3.684
  369DVPE   PO4 4495   1.867  11.040   3.808
  369DVPE   GL1 4496   2.171  11.185   4.117
  369DVPE   GL2 4497   1.962  11.389   4.156
  369DVPE   C1A 4498   2.339  11.122   4.532
  369DVPE   C2A 4499   2.167  11.033   5.012
  369DVPE   D3A 4500   1.975  11.154   5.425
  369DVPE   C4A 4501   2.165  11.405   5.796
  369DVPE   C1B 4502   1.865  11.411   4.581
  369DVPE   C2B 4503   1.650  11.587   5.012
  369DVPE   D3B 4504   1.336  11.622   5.374
  369DVPE   C4B 4505   1.761  11.613   5.560
  370DVPE   NH3 4506   1.579  11.858   3.761
  370DVPE   PO4 4507   1.835  11.806   3.977
  370DVPE   GL1 4508   1.654  12.067   4.261
  370DVPE   GL2 4509   1.790  12.294   4.129
  370DVPE   C1A 4510   1.699  12.049   4.699
  370DVPE   C2A 4511   1.890  12.017   5.178
  370DVPE   D3A 4512   2.151  11.924   5.557
  370DVPE   C4A 4513   1.819  12.242   5.681
  370DVPE   C1B 4514   2.095  12.305   4.436
  370DVPE   C2B 4515   2.152  12.404   4.923
  370DVPE   D3B 4516   2.093  12.574   5.352
  370DVPE   C4B 4517   2.299  12.386   5.741
  371DVPE   NH3 4518   2.546   8.663   3.811
  371DVPE   PO4 4519   2.846   8.772   3.936
  371DVPE   GL1 4520   2.784   8.547   4.249
  371DVPE   GL2 4521   2.541   8.380   4.223
  371DVPE   C1A 4522   2.644   8.657   4.641
  371DVPE   C2A 4523   2.691   8.698   5.139
  371DVPE   D3A 4524   2.660   8.751   5.596
  371DVPE   C4A 4525   3.119   8.785   5.743
  371DVPE   C1B 4526   2.567   8.154   4.635
  371DVPE   C2B 4527   2.721   8.021   5.137
  371DVPE   D3B 4528   2.964   7.971   5.561
  371DVPE   C4B 4529   2.759   8.303   5.815
  372DVPE   NH3 4530   2.266   9.054   3.541
  372DVPE   PO4 4531   2.460   9.201   3.810
  372DVPE   GL1 4532   2.279   9.113   4.269
  372DVPE   GL2 4533   2.481   8.899   4.219
  372DVPE   C1A 4534   2.275   9.070   4.734
  372DVPE   C2A 4535   2.389   9.091   5.269
  372DVPE   D3A 4536   2.479   9.226   5.735
  372DVPE   C4A 4537   2.509   9.157   6.214
  372DVPE   C1B 4538   2.719   9.140   4.502
  372DVPE   C2B 4539   2.808   9.185   5.002
  372DVPE   D3B 4540   2.896   9.173   5.472
  372DVPE   C4B 4541   2.961   9.223   5.965
  373DVPE   NH3 4542   2.678  12.152   3.654
  373DVPE   PO4 4543   2.827  12.280   3.951
  373DVPE   GL1 4544   2.564  11.970   4.088
  373DVPE   GL2 4545   2.765  11.770   3.995
  373DVPE   C1A 4546   2.561  12.105   4.515
  373DVPE   C2A 4547   2.677  12.382   4.925
  373DVPE   D3A 4548   2.653  12.451   5.375
  373DVPE   C4A 4549   2.809  12.271   5.788
  373DVPE   C1B 4550   2.850  11.694   4.402
  373DVPE   C2B 4551   2.646  11.729   4.874
  373DVPE   D3B 4552   2.427  12.019   5.158
  373DVPE   C4B 4553   2.858  11.971   5.356
  374DVPE   NH3 4554   2.403   0.547   4.233
  374DVPE   PO4 4555   2.648   0.709   4.040
  374DVPE   GL1 4556   2.874   0.453   4.328
  374DVPE   GL2 4557   2.717   0.199   4.253
  374DVPE   C1A 4558   2.834   0.520   4.782
  374DVPE   C2A 4559   2.794   0.594   5.293
  374DVPE   D3A 4560   2.621   0.706   5.713
  374DVPE   C4A 4561   2.230   0.516   5.946
  374DVPE   C1B 4562   2.556   0.107   4.653
  374DVPE   C2B 4563   2.608   0.095   5.168
  374DVPE   D3B 4564   2.719   0.205   5.623
  374DVPE   C4B 4565   2.719   0.397   6.088
  375DVPE   NH3 4566   2.626   3.044   3.482
  375DVPE   PO4 4567   2.829   3.127   3.757
  375DVPE   GL1 4568   2.467   3.069   4.005
  375DVPE   GL2 4569   2.591   2.903   4.195
  375DVPE   C1A 4570   2.330   3.277   4.380
  375DVPE   C2A 4571   2.445   3.148   4.872
  375DVPE   D3A 4572   2.610   3.035   5.302
  375DVPE   C4A 4573   2.546   2.880   5.741
  375DVPE   C1B 4574   2.320   2.799   4.523
  375DVPE   C2B 4575   2.418   2.623   4.990
  375DVPE   D3B 4576   2.563   2.318   5.315
  375DVPE   C4B 4577   2.231   2.464   5.617
  376DVPE   NH3 4578   3.444   6.343   3.962
  376DVPE   PO4 4579   3.153   6.435   3.771
  376DVPE   GL1 4580   3.017   6.511   4.157
  376DVPE   GL2 4581   3.224   6.712   4.214
  376DVPE   C1A 4582   2.952   6.333   4.568
  376DVPE   C2A 4583   2.931   6.316   5.093
  376DVPE   D3A 4584   2.840   6.259   5.542
  376DVPE   C4A 4585   2.938   5.815   5.624
  376DVPE   C1B 4586   3.370   6.647   4.626
  376DVPE   C2B 4587   3.437   6.501   5.127
  376DVPE   D3B 4588   3.364   6.217   5.505
  376DVPE   C4B 4589   3.150   6.210   5.940
  377DVPE   NH3 4590   3.200   6.955   3.813
  377DVPE   PO4 4591   3.466   7.160   3.732
  377DVPE   GL1 4592   3.497   7.257   4.115
  377DVPE   GL2 4593   3.216   7.194   4.204
  377DVPE   C1A 4594   3.609   7.095   4.481
  377DVPE   C2A 4595   3.546   6.991   4.959
  377DVPE   D3A 4596   3.549   6.984   5.415
  377DVPE   C4A 4597   3.331   7.036   5.818
  377DVPE   C1B 4598   3.120   7.120   4.641
  377DVPE   C2B 4599   3.100   7.136   5.166
  377DVPE   D3B 4600   2.902   7.097   5.594
  377DVPE   C4B 4601   3.145   6.678   5.516
  378DVPE   NH3 4602   3.092   9.195   3.830
  378DVPE   PO4 4603   3.345   8.940   3.847
  378DVPE   GL1 4604   3.200   8.755   4.246
  378DVPE   GL2 4605   3.107   9.054   4.272
  378DVPE   C1A 4606   3.114   8.797   4.686
  378DVPE   C2A 4607   3.176   8.873   5.186
  378DVPE   D3A 4608   3.529   8.922   5.489
  378DVPE   C4A 4609   3.632   8.676   5.885
  378DVPE   C1B 4610   3.186   9.299   4.656
  378DVPE   C2B 4611   3.241   9.389   5.160
  378DVPE   D3B 4612   3.317   9.399   5.603
  378DVPE   C4B 4613   3.498   9.176   5.967
  379DVPE   NH3 4614   3.230  10.286   3.785
  379DVPE   PO4 4615   3.177  10.608   3.925
  379DVPE   GL1 4616   3.318  10.585   4.333
  379DVPE   GL2 4617   3.577  10.731   4.326
  379DVPE   C1A 4618   3.172  10.511   4.751
  379DVPE   C2A 4619   3.105  10.378   5.253
  379DVPE   D3A 4620   3.055  10.461   5.713
  379DVPE   C4A 4621   3.518  10.471   5.664
  379DVPE   C1B 4622   3.680  10.673   4.746
  379DVPE   C2B 4623   3.485  10.733   5.216
  379DVPE   D3B 4624   3.322  10.932   5.613
  379DVPE   C4B 4625   3.341  10.740   6.054
  380DVPE   NH3 4626   3.424  12.131   3.771
  380DVPE   PO4 4627   3.134  11.956   3.701
  380DVPE   GL1 4628   3.151  11.919   4.112
  380DVPE   GL2 4629   3.392  11.752   4.107
  380DVPE   C1A 4630   3.133  12.104   4.510
  380DVPE   C2A 4631   3.155  12.233   5.000
  380DVPE   D3A 4632   3.188  12.350   5.443
  380DVPE   C4A 4633   3.519  12.553   5.729
  380DVPE   C1B 4634   3.571  11.828   4.506
  380DVPE   C2B 4635   3.574  11.940   5.003
  380DVPE   D3B 4636   3.551  12.008   5.469
  380DVPE   C4B 4637   3.736  11.831   5.878
  381DVPE   NH3 4638   3.392   0.075   3.899
  381DVPE   PO4 4639   3.095   0.264   3.921
  381DVPE   GL1 4640   3.140   0.093   4.282
  381DVPE   GL2 4641   3.392   0.279   4.314
  381DVPE   C1A 4642   3.080   0.079   4.679
  381DVPE   C2A 4643   3.102   0.164   5.161
  381DVPE   D3A 4644   3.185  13.999   5.575
  381DVPE   C4A 4645   3.147   0.409   5.790
  381DVPE   C1B 4646   3.277   0.610   4.564
  381DVPE   C2B 4647   3.263   0.687   5.078
  381DVPE   D3B 4648   3.502   0.676   5.477
  381DVPE   C4B 4649   3.524   0.685   5.967
  382DVPE   NH3 4650   3.523   1.376   3.866
  382DVPE   PO4 4651   3.541   1.077   4.054
  382DVPE   GL1 4652   3.669   1.259   4.428
  382DVPE   GL2 4653   3.617   1.536   4.301
  382DVPE   C1A 4654   3.477   1.297   4.849
  382DVPE   C2A 4655   3.335   1.150   5.335
  382DVPE   D3A 4656   3.085   0.884   5.632
  382DVPE   C4A 4657   3.036   0.828   6.107
  382DVPE   C1B 4658   3.366   1.770   4.586
  382DVPE   C2B 4659   3.330   1.780   5.101
  382DVPE   D3B 4660   3.253   1.622   5.542
  382DVPE   C4B 4661   3.178   1.293   5.892
  383DVPE   NH3 4662   3.807   2.219   3.948
  383DVPE   PO4 4663   3.829   1.867   3.998
  383DVPE   GL1 4664   3.701   1.986   4.364
  383DVPE   GL2 4665   3.492   2.163   4.285
  383DVPE   C1A 4666   3.694   2.115   4.783
  383DVPE   C2A 4667   3.626   2.173   5.279
  383DVPE   D3A 4668   3.641   1.990   5.698
  383DVPE   C4A 4669   3.653   2.041   6.179
  383DVPE   C1B 4670   3.638   2.528   4.449
  383DVPE   C2B 4671   3.507   2.568   4.945
  383DVPE   D3B 4672   3.426   2.634   5.388
  383DVPE   C4B 4673   3.250   2.318   5.670
  384DVPE   NH3 4674   3.568   2.689   3.902
  384DVPE   PO4 4675   3.318   2.928   3.899
  384DVPE   GL1 4676   3.418   2.955   4.251
  384DVPE   GL2 4677   3.711   3.001   4.264
  384DVPE   C1A 4678   3.256   2.832   4.598
  384DVPE   C2A 4679   3.327   3.041   5.043
  384DVPE   D3A 4680   3.213   3.097   5.475
  384DVPE   C4A 4681   3.277   2.804   5.847
  384DVPE   C1B 4682   3.752   2.952   4.708
  384DVPE   C2B 4683   3.788   2.918   5.210
  384DVPE   D3B 4684   3.722   2.952   5.672
  384DVPE   C4B 4685   3.479   3.295   5.867
  385DVPE   NH3 4686   3.329   3.811   3.935
  385DVPE   PO4 4687   3.673   3.823   3.901
  385DVPE   GL1 4688   3.647   3.581   4.224
  385DVPE   GL2 4689   3.448   3.376   4.121
  385DVPE   C1A 4690   3.694   3.731   4.646
  385DVPE   C2A 4691   3.693   3.949   5.124
  385DVPE   D3A 4692   3.686   4.247   5.498
  385DVPE   C4A 4693   3.215   4.115   5.528
  385DVPE   C1B 4694   3.412   3.317   4.552
  385DVPE   C2B 4695   3.386   3.535   5.014
  385DVPE   D3B 4696   3.224   3.603   5.442
  385DVPE   C4B 4697   3.601   3.780   5.643
  386DVPE   NH3 4698   4.538   1.935   3.696
  386DVPE   PO4 4699   4.319   1.716   3.857
  386DVPE   GL1 4700   4.474   2.002   4.150
  386DVPE   GL2 4701   4.186   2.036   4.216
  386DVPE   C1A 4702   4.509   2.032   4.562
  386DVPE   C2A 4703   4.280   2.062   5.010
  386DVPE   D3A 4704   4.099   2.040   5.432
  386DVPE   C4A 4705   4.229   1.603   5.521
  386DVPE   C1B 4706   4.059   1.803   4.596
  386DVPE   C2B 4707   3.875   1.699   5.067
  386DVPE   D3B 4708   3.738   1.524   5.478
  386DVPE   C4B 4709   3.598   1.556   5.946
  387DVPE   NH3 4710   4.450   2.472   3.544
  387DVPE   PO4 4711   4.287   2.337   3.834
  387DVPE   GL1 4712   4.330   2.462   4.203
  387DVPE   GL2 4713   4.088   2.652   4.165
  387DVPE   C1A 4714   4.100   2.338   4.549
  387DVPE   C2A 4715   3.999   2.484   5.025
  387DVPE   D3A 4716   3.966   2.533   5.486
  387DVPE   C4A 4717   3.690   2.467   5.865
  387DVPE   C1B 4718   4.214   2.851   4.534
  387DVPE   C2B 4719   4.245   2.986   5.024
  387DVPE   D3B 4720   4.194   3.032   5.494
  387DVPE   C4B 4721   4.114   2.773   5.916
  388DVPE   NH3 4722   3.851   3.331   3.883
  388DVPE   PO4 4723   3.975   2.994   3.875
  388DVPE   GL1 4724   4.171   3.123   4.167
  388DVPE   GL2 4725   4.443   3.132   4.210
  388DVPE   C1A 4726   3.974   3.335   4.478
  388DVPE   C2A 4727   3.891   3.387   4.975
  388DVPE   D3A 4728   3.685   3.369   5.384
  388DVPE   C4A 4729   3.957   3.454   5.757
  388DVPE   C1B 4730   4.468   3.329   4.607
  388DVPE   C2B 4731   4.476   3.446   5.104
  388DVPE   D3B 4732   4.415   3.501   5.559
  388DVPE   C4B 4733   4.358   3.223   5.944
  389DVPE   NH3 4734   4.065   5.461   3.882
  389DVPE   PO4 4735   3.875   5.509   4.173
  389DVPE   GL1 4736   4.263   5.532   4.351
  389DVPE   GL2 4737   4.333   5.784   4.147
  389DVPE   C1A 4738   4.313   5.467   4.806
  389DVPE   C2A 4739   4.304   5.348   5.322
  389DVPE   D3A 4740   4.329   5.266   5.795
  389DVPE   C4A 4741   4.214   5.379   6.251
  389DVPE   C1B 4742   4.384   5.993   4.496
  389DVPE   C2B 4743   4.358   5.957   4.992
  389DVPE   D3B 4744   4.298   5.839   5.429
  389DVPE   C4B 4745   4.284   5.763   5.895
  390DVPE   NH3 4746   4.279   6.646   3.835
  390DVPE   PO4 4747   3.954   6.492   3.873
  390DVPE   GL1 4748   4.057   6.650   4.249
  390DVPE   GL2 4749   4.243   6.389   4.239
  390DVPE   C1A 4750   3.934   6.744   4.659
  390DVPE   C2A 4751   3.929   6.729   5.164
  390DVPE   D3A 4752   3.785   6.559   5.571
  390DVPE   C4A 4753   3.974   6.606   6.011
  390DVPE   C1B 4754   3.947   6.241   4.527
  390DVPE   C2B 4755   3.847   6.188   5.027
  390DVPE   D3B 4756   3.854   6.068   5.478
  390DVPE   C4B 4757   3.722   6.169   5.918
  391DVPE   NH3 4758   4.199   8.148   3.685
  391DVPE   PO4 4759   3.915   7.946   3.601
  391DVPE   GL1 4760   4.033   7.779   3.957
  391DVPE   GL2 4761   4.005   7.486   3.924
  391DVPE   C1A 4762   4.157   7.926   4.363
  391DVPE   C2A 4763   4.338   7.949   4.850
  391DVPE   D3A 4764   4.446   7.758   5.269
  391DVPE   C4A 4765   4.199   7.919   5.661
  391DVPE   C1B 4766   3.811   7.545   4.322
  391DVPE   C2B 4767   3.873   7.719   4.804
  391DVPE   D3B 4768   3.924   7.770   5.267
  391DVPE   C4B 4769   3.759   7.587   5.686
  392DVPE   NH3 4770   4.106   9.304   3.828
  392DVPE   PO4 4771   3.945   8.987   3.866
  392DVPE   GL1 4772   3.674   9.128   4.131
  392DVPE   GL2 4773   3.882   9.330   4.243
  392DVPE   C1A 4774   3.549   8.966   4.493
  392DVPE   C2A 4775   3.598   9.080   4.980
  392DVPE   D3A 4776   3.781   9.328   5.325
  392DVPE   C4A 4777   3.943   9.280   5.770
  392DVPE   C1B 4778   4.325   9.281   4.365
  392DVPE   C2B 4779   4.609   9.158   4.778
  392DVPE   D3B 4780   4.576   9.069   5.241
  392DVPE   C4B 4781   4.364   9.386   5.519
  393DVPE   NH3 4782   3.637  10.904   3.903
  393DVPE   PO4 4783   3.957  10.742   3.915
  393DVPE   GL1 4784   3.989  10.476   4.280
  393DVPE   GL2 4785   4.046  10.737   4.426
  393DVPE   C1A 4786   3.692  10.218   4.497
  393DVPE   C2A 4787   3.511  10.189   4.971
  393DVPE   D3A 4788   3.816  10.283   5.293
  393DVPE   C4A 4789   4.019  10.589   5.613
  393DVPE   C1B 4790   4.269  10.700   4.813
  393DVPE   C2B 4791   4.408  10.828   5.293
  393DVPE   D3B 4792   4.311  11.001   5.728
  393DVPE   C4B 4793   4.220  10.718   6.098
  394DVPE   NH3 4794   4.938   0.917   4.087
  394DVPE   PO4 4795   5.086   1.177   3.887
  394DVPE   GL1 4796   4.916   1.414   4.152
  394DVPE   GL2 4797   4.693   1.594   4.123
  394DVPE   C1A 4798   4.883   1.224   4.561
  394DVPE   C2A 4799   5.028   1.373   5.027
  394DVPE   D3A 4800   5.103   1.287   5.493
  394DVPE   C4A 4801   4.915   0.953   5.790
  394DVPE   C1B 4802   4.447   1.487   4.472
  394DVPE   C2B 4803   4.479   1.143   4.862
  394DVPE   D3B 4804   4.358   0.855   5.215
  394DVPE   C4B 4805   4.211   1.112   5.588
  395DVPE   NH3 4806   4.704   4.322   3.988
  395DVPE   PO4 4807   4.713   3.975   3.937
  395DVPE   GL1 4808   4.555   4.017   4.365
  395DVPE   GL2 4809   4.780   3.847   4.438
  395DVPE   C1A 4810   4.436   4.220   4.757
  395DVPE   C2A 4811   4.547   4.473   5.193
  395DVPE   D3A 4812   4.724   4.391   5.615
  395DVPE   C4A 4813   4.784   4.404   6.091
  395DVPE   C1B 4814   4.784   3.839   4.871
  395DVPE   C2B 4815   4.630   3.939   5.351
  395DVPE   D3B 4816   4.476   3.969   5.795
  395DVPE   C4B 4817   4.649   3.934   6.235
  396DVPE   NH3 4818   4.976   5.164   3.925
  396DVPE   PO4 4819   4.728   4.946   4.064
  396DVPE   GL1 4820   5.139   4.856   4.207
  396DVPE   GL2 4821   5.029   4.575   4.225
  396DVPE   C1A 4822   5.177   5.205   4.496
  396DVPE   C2A 4823   5.114   5.407   4.963
  396DVPE   D3A 4824   5.026   5.285   5.409
  396DVPE   C4A 4825   5.059   5.277   5.890
  396DVPE   C1B 4826   5.319   4.568   4.541
  396DVPE   C2B 4827   5.377   4.618   5.037
  396DVPE   D3B 4828   5.020   4.788   5.277
  396DVPE   C4B 4829   4.995   4.795   5.757
  397DVPE   NH3 4830   5.149   7.028   3.758
  397DVPE   PO4 4831   4.800   6.954   3.732
  397DVPE   GL1 4832   4.961   6.657   3.977
  397DVPE   GL2 4833   4.681   6.696   4.114
  397DVPE   C1A 4834   5.269   6.720   4.273
  397DVPE   C2A 4835   5.296   6.869   4.748
  397DVPE   D3A 4836   5.284   7.038   5.166
  397DVPE   C4A 4837   4.959   6.844   5.432
  397DVPE   C1B 4838   4.876   7.007   4.396
  397DVPE   C2B 4839   4.917   7.236   4.863
  397DVPE   D3B 4840   4.857   7.370   5.318
  397DVPE   C4B 4841   4.664   7.151   5.715
  398DVPE   NH3 4842   4.947   9.047   3.766
  398DVPE   PO4 4843   4.942   8.770   3.968
  398DVPE   GL1 4844   4.730   8.955   4.269
  398DVPE   GL2 4845   4.888   9.209   4.207
  398DVPE   C1A 4846   4.817   8.707   4.635
  398DVPE   C2A 4847   4.936   8.741   5.131
  398DVPE   D3A 4848   5.051   8.962   5.542
  398DVPE   C4A 4849   4.690   9.147   5.810
  398DVPE   C1B 4850   4.839   9.527   4.491
  398DVPE   C2B 4851   4.908   9.623   4.980
  398DVPE   D3B 4852   4.886   9.432   5.396
  398DVPE   C4B 4853   5.132   9.408   5.797
  399DVPE   NH3 4854   4.497  10.938   3.780
  399DVPE   PO4 4855   4.820  10.939   3.919
  399DVPE   GL1 4856   4.651  10.697   4.154
  399DVPE   GL2 4857   4.370  10.669   4.128
  399DVPE   C1A 4858   4.724  10.740   4.548
  399DVPE   C2A 4859   4.832  10.709   5.008
  399DVPE   D3A 4860   4.920  10.758   5.431
  399DVPE   C4A 4861   5.001  10.677   5.876
  399DVPE   C1B 4862   4.415  10.379   4.446
  399DVPE   C2B 4863   4.720  10.246   4.846
  399DVPE   D3B 4864   4.728  10.298   5.323
  399DVPE   C4B 4865   4.534  10.555   5.705
  400DVPE   NH3 4866   4.558  12.735   3.899
  400DVPE   PO4 4867   4.809  12.574   4.087
  400DVPE   GL1 4868   5.025  12.936   4.267
  400DVPE   GL2 4869   4.837  13.055   4.093
  400DVPE   C1A 4870   4.937  12.898   4.693
  400DVPE   C2A 4871   4.840  12.645   5.129
  400DVPE   D3A 4872   4.753  12.508   5.563
  400DVPE   C4A 4873   4.725  12.928   5.775
  400DVPE   C1B 4874   4.467  13.107   4.336
  400DVPE   C2B 4875   4.517  13.182   4.845
  400DVPE   D3B 4876   4.686  13.138   5.298
  400DVPE   C4B 4877   4.612  13.416   5.695
  401DVPE   NH3 4878   5.410   1.979   3.757
  401DVPE   PO4 4879   5.273   2.261   3.889
  401DVPE   GL1 4880   5.533   2.231   4.186
  401DVPE   GL2 4881   5.650   1.961   4.164
  401DVPE   C1A 4882   5.406   2.185   4.594
  401DVPE   C2A 4883   5.297   2.123   5.084
  401DVPE   D3A 4884   5.079   2.108   5.495
  401DVPE   C4A 4885   5.031   1.721   5.785
  401DVPE   C1B 4886   5.789   1.843   4.565
  401DVPE   C2B 4887   5.666   1.743   5.054
  401DVPE   D3B 4888   5.467   1.764   5.475
  401DVPE   C4B 4889   5.806   1.736   5.816
  402DVPE   NH3 4890   5.386   2.985   3.414
  402DVPE   PO4 4891   5.334   2.862   3.739
  402DVPE   GL1 4892   5.591   3.060   3.965
  402DVPE   GL2 4893   5.746   2.825   4.059
  402DVPE   C1A 4894   5.546   3.140   4.367
  402DVPE   C2A 4895   5.451   3.207   4.864
  402DVPE   D3A 4896   5.368   3.279   5.331
  402DVPE   C4A 4897   5.557   3.116   5.751
  402DVPE   C1B 4898   5.538   2.643   4.397
  402DVPE   C2B 4899   5.521   2.596   4.908
  402DVPE   D3B 4900   5.439   2.523   5.363
  402DVPE   C4B 4901   5.337   2.639   5.810
  403DVPE   NH3 4902   5.676   3.384   3.640
  403DVPE   PO4 4903   5.345   3.414   3.746
  403DVPE   GL1 4904   5.481   3.504   4.099
  403DVPE   GL2 4905   5.755   3.476   4.093
  403DVPE   C1A 4906   5.366   3.585   4.518
  403DVPE   C2A 4907   5.332   3.693   5.011
  403DVPE   D3A 4908   5.199   3.879   5.410
  403DVPE   C4A 4909   5.304   3.580   5.759
  403DVPE   C1B 4910   5.920   3.426   4.499
  403DVPE   C2B 4911   5.878   3.463   5.011
  403DVPE   D3B 4912   5.695   3.677   5.381
  403DVPE   C4B 4913   5.855   3.576   5.804
  404DVPE   NH3 4914   5.412   3.934   3.898
  404DVPE   PO4 4915   5.186   4.193   3.823
  404DVPE   GL1 4916   5.069   4.134   4.215
  404DVPE   GL2 4917   5.355   4.169   4.289
  404DVPE   C1A 4918   4.885   4.293   4.573
  404DVPE   C2A 4919   5.000   4.268   5.085
  404DVPE   D3A 4920   5.215   4.381   5.494
  404DVPE   C4A 4921   5.275   4.415   5.968
  404DVPE   C1B 4922   5.318   4.085   4.694
  404DVPE   C2B 4923   5.525   4.137   5.141
  404DVPE   D3B 4924   5.650   4.154   5.576
  404DVPE   C4B 4925   5.550   3.986   6.019
  405DVPE   NH3 4926   6.113   6.920   3.842
  405DVPE   PO4 4927   5.782   7.050   3.812
  405DVPE   GL1 4928   5.719   6.850   4.145
  405DVPE   GL2 4929   5.856   6.595   4.080
  405DVPE   C1A 4930   5.729   7.034   4.556
  405DVPE   C2A 4931   5.772   7.155   5.058
  405DVPE   D3A 4932   5.686   7.175   5.525
  405DVPE   C4A 4933   5.221   7.220   5.643
  405DVPE   C1B 4934   5.700   6.529   4.496
  405DVPE   C2B 4935   5.653   6.574   5.004
  405DVPE   D3B 4936   5.515   6.685   5.434
  405DVPE   C4B 4937   5.802   6.768   5.800
  406DVPE   NH3 4938   5.507   8.648   3.934
  406DVPE   PO4 4939   5.841   8.648   4.067
  406DVPE   GL1 4940   5.571   8.663   4.387
  406DVPE   GL2 4941   5.575   8.356   4.356
  406DVPE   C1A 4942   5.471   8.811   4.779
  406DVPE   C2A 4943   5.427   8.771   5.275
  406DVPE   D3A 4944   5.487   8.598   5.705
  406DVPE   C4A 4945   5.322   8.558   6.150
  406DVPE   C1B 4946   5.714   8.365   4.768
  406DVPE   C2B 4947   5.793   8.424   5.274
  406DVPE   D3B 4948   5.978   8.459   5.691
  406DVPE   C4B 4949   5.808   8.378   6.128
  407DVPE   NH3 4950   5.726  10.568   3.762
  407DVPE   PO4 4951   5.496  10.334   3.845
  407DVPE   GL1 4952   5.438  10.540   4.211
  407DVPE   GL2 4953   5.279  10.784   4.168
  407DVPE   C1A 4954   5.671  10.652   4.576
  407DVPE   C2A 4955   5.866  10.824   5.024
  407DVPE   D3A 4956   5.920  10.828   5.487
  407DVPE   C4A 4957   5.698  10.503   5.748
  407DVPE   C1B 4958   5.211  10.907   4.595
  407DVPE   C2B 4959   5.282  10.944   5.113
  407DVPE   D3B 4960   5.392  10.857   5.572
  407DVPE   C4B 4961   5.446  10.813   6.060
  408DVPE   NH3 4962   5.413  12.925   4.010
  408DVPE   PO4 4963   5.320  12.605   4.115
  408DVPE   GL1 4964   5.557  12.538   4.422
  408DVPE   GL2 4965   5.756  12.759   4.305
  408DVPE   C1A 4966   5.416  12.721   4.778
  408DVPE   C2A 4967   5.217  12.999   5.138
  408DVPE   D3A 4968   5.152  12.850   5.552
  408DVPE   C4A 4969   5.092  13.282   5.717
  408DVPE   C1B 4970   5.833  12.983   4.683
  408DVPE   C2B 4971   5.723  13.064   5.187
  408DVPE   D3B 4972   5.596  13.095   5.638
  408DVPE   C4B 4973   5.352  13.000   6.047
  409DVPE   NH3 4974   6.352   7.275   3.598
  409DVPE   PO4 4975   6.290   7.435   3.899
  409DVPE   GL1 4976   6.291   7.155   4.215
  409DVPE   GL2 4977   6.015   7.162   4.227
  409DVPE   C1A 4978   6.422   7.130   4.645
  409DVPE   C2A 4979   6.504   7.276   5.152
  409DVPE   D3A 4980   6.663   7.366   5.600
  409DVPE   C4A 4981   6.218   7.173   5.631
  409DVPE   C1B 4982   5.988   7.473   4.534
  409DVPE   C2B 4983   5.846   7.665   4.979
  409DVPE   D3B 4984   5.880   7.646   5.438
  409DVPE   C4B 4985   5.924   7.476   5.905
  410DVPE   NH3 4986   6.554   8.164   3.799
  410DVPE   PO4 4987   6.266   8.319   3.946
  410DVPE   GL1 4988   6.309   8.349   4.328
  410DVPE   GL2 4989   6.021   8.378   4.406
  410DVPE   C1A 4990   6.576   8.264   4.658
  410DVPE   C2A 4991   6.636   8.285   5.171
  410DVPE   D3A 4992   6.575   8.256   5.646
  410DVPE   C4A 4993   6.347   8.437   6.033
  410DVPE   C1B 4994   6.048   7.998   4.613
  410DVPE   C2B 4995   6.331   7.870   5.005
  410DVPE   D3B 4996   6.179   8.081   5.383
  410DVPE   C4B 4997   6.319   7.721   5.654
  411DVPE   NH3 4998   6.166  10.323   3.865
  411DVPE   PO4 4999   6.160  10.647   4.014
  411DVPE   GL1 5000   6.392  10.489   4.295
  411DVPE   GL2 5001   6.380  10.185   4.258
  411DVPE   C1A 5002   6.186  10.610   4.678
  411DVPE   C2A 5003   6.282  10.555   5.190
  411DVPE   D3A 5004   6.495  10.506   5.614
  411DVPE   C4A 5005   6.617  10.492   6.090
  411DVPE   C1B 5006   6.360  10.064   4.681
  411DVPE   C2B 5007   6.398  10.041   5.195
  411DVPE   D3B 5008   6.436  10.025   5.668
  411DVPE   C4B 5009   6.152  10.318   5.939
  412DVPE   NH3 5010   6.313  11.664   3.985
  412DVPE   PO4 5011   5.988  11.800   3.936
  412DVPE   GL1 5012   6.013  11.682   4.345
  412DVPE   GL2 5013   6.034  11.993   4.352
  412DVPE   C1A 5014   6.395  11.704   4.565
  412DVPE   C2A 5015   6.799  11.796   4.879
  412DVPE   D3A 5016   6.840  11.856   5.342
  412DVPE   C4A 5017   6.376  11.765   5.272
  412DVPE   C1B 5018   6.111  12.128   4.751
  412DVPE   C2B 5019   6.092  12.190   5.253
  412DVPE   D3B 5020   6.404  12.193   5.601
  412DVPE   C4B 5021   6.347  12.169   6.101
  413DVPE   NH3 5022   5.687   2.483   3.773
  413DVPE   PO4 5023   5.878   2.208   3.861
  413DVPE   GL1 5024   5.955   2.425   4.222
  413DVPE   GL2 5025   6.251   2.344   4.217
  413DVPE   C1A 5026   5.894   2.361   4.653
  413DVPE   C2A 5027   5.799   2.242   5.148
  413DVPE   D3A 5028   5.764   2.206   5.615
  413DVPE   C4A 5029   5.392   2.095   5.882
  413DVPE   C1B 5030   6.295   2.059   4.557
  413DVPE   C2B 5031   6.179   1.926   5.043
  413DVPE   D3B 5032   6.238   2.227   5.413
  413DVPE   C4B 5033   6.201   2.378   5.861
  414DVPE   NH3 5034   6.048   3.163   3.969
  414DVPE   PO4 5035   6.345   3.161   3.801
  414DVPE   GL1 5036   6.464   3.190   4.216
  414DVPE   GL2 5037   6.305   3.464   4.232
  414DVPE   C1A 5038   6.348   3.123   4.639
  414DVPE   C2A 5039   6.233   3.115   5.145
  414DVPE   D3A 5040   6.090   3.159   5.602
  414DVPE   C4A 5041   6.295   2.883   5.954
  414DVPE   C1B 5042   6.350   3.639   4.642
  414DVPE   C2B 5043   6.381   3.612   5.148
  414DVPE   D3B 5044   6.289   3.680   5.591
  414DVPE   C4B 5045   6.351   3.439   6.005
  415DVPE   NH3 5046   6.178   3.638   3.815
  415DVPE   PO4 5047   5.891   3.822   3.820
  415DVPE   GL1 5048   5.992   3.834   4.249
  415DVPE   GL2 5049   5.682   3.847   4.302
  415DVPE   C1A 5050   6.180   4.104   4.576
  415DVPE   C2A 5051   6.510   4.077   4.992
  415DVPE   D3A 5052   6.692   3.973   5.426
  415DVPE   C4A 5053   6.519   4.016   5.891
  415DVPE   C1B 5054   5.758   3.860   4.725
  415DVPE   C2B 5055   6.019   3.994   5.131
  415DVPE   D3B 5056   6.242   4.205   5.471
  415DVPE   C4B 5057   6.031   4.068   5.861
  416DVPE   NH3 5058   7.124   6.336   3.834
  416DVPE   PO4 5059   7.229   6.606   4.019
  416DVPE   GL1 5060   6.926   6.560   4.295
  416DVPE   GL2 5061   6.944   6.267   4.271
  416DVPE   C1A 5062   7.113   6.581   4.686
  416DVPE   C2A 5063   7.177   6.501   5.179
  416DVPE   D3A 5064   7.213   6.584   5.622
  416DVPE   C4A 5065   7.042   6.909   5.907
  416DVPE   C1B 5066   7.158   6.080   4.636
  416DVPE   C2B 5067   7.118   5.989   5.131
  416DVPE   D3B 5068   6.978   6.114   5.549
  416DVPE   C4B 5069   7.223   6.199   5.949
  417DVPE   NH3 5070   7.008   8.595   3.831
  417DVPE   PO4 5071   7.057   8.250   3.835
  417DVPE   GL1 5072   6.805   8.252   4.172
  417DVPE   GL2 5073   6.663   8.508   4.113
  417DVPE   C1A 5074   7.029   8.401   4.489
  417DVPE   C2A 5075   7.118   8.415   4.976
  417DVPE   D3A 5076   7.091   8.293   5.412
  417DVPE   C4A 5077   7.409   8.606   5.591
  417DVPE   C1B 5078   6.684   8.764   4.462
  417DVPE   C2B 5079   6.700   8.750   4.970
  417DVPE   D3B 5080   6.769   8.727   5.429
  417DVPE   C4B 5081   6.945   8.545   5.822
  418DVPE   NH3 5082   7.385   8.959   3.868
  418DVPE   PO4 5083   7.147   9.010   4.098
  418DVPE   GL1 5084   7.175   9.332   4.343
  418DVPE   GL2 5085   6.862   9.317   4.333
  418DVPE   C1A 5086   7.322   9.163   4.729
  418DVPE   C2A 5087   7.278   8.964   5.199
  418DVPE   D3A 5088   7.145   9.032   5.643
  418DVPE   C4A 5089   7.198   8.872   6.082
  418DVPE   C1B 5090   6.820   9.204   4.732
  418DVPE   C2B 5091   6.808   9.200   5.240
  418DVPE   D3B 5092   6.664   9.170   5.684
  418DVPE   C4B 5093   6.866   9.260   6.093
  419DVPE   NH3 5094   6.515  11.065   3.939
  419DVPE   PO4 5095   6.709  11.343   3.843
  419DVPE   GL1 5096   7.017  11.348   4.101
  419DVPE   GL2 5097   7.054  11.082   4.218
  419DVPE   C1A 5098   6.782  11.365   4.482
  419DVPE   C2A 5099   6.813  11.297   4.971
  419DVPE   D3A 5100   6.889  11.156   5.383
  419DVPE   C4A 5101   6.574  11.422   5.587
  419DVPE   C1B 5102   7.261  11.255   4.600
  419DVPE   C2B 5103   7.313  11.452   5.084
  419DVPE   D3B 5104   7.200  11.544   5.539
  419DVPE   C4B 5105   6.974  11.278   5.872
  420DVPE   NH3 5106   6.672   3.562   3.964
  420DVPE   PO4 5107   6.829   3.256   3.907
  420DVPE   GL1 5108   6.869   2.991   4.177
  420DVPE   GL2 5109   7.170   3.051   4.215
  420DVPE   C1A 5110   6.806   2.913   4.578
  420DVPE   C2A 5111   6.780   2.763   5.056
  420DVPE   D3A 5112   6.851   2.873   5.500
  420DVPE   C4A 5113   6.575   3.255   5.495
  420DVPE   C1B 5114   7.339   2.949   4.602
  420DVPE   C2B 5115   7.301   2.842   5.104
  420DVPE   D3B 5116   7.333   2.821   5.569
  420DVPE   C4B 5117   7.139   2.790   6.011
  421DVPE   NH3 5118   7.824   7.493   3.578
  421DVPE   PO4 5119   8.020   7.748   3.723
  421DVPE   GL1 5120   7.778   7.742   3.981
  421DVPE   GL2 5121   7.653   7.478   4.013
  421DVPE   C1A 5122   7.814   7.898   4.354
  421DVPE   C2A 5123   7.802   7.723   4.816
  421DVPE   D3A 5124   7.972   7.621   5.232
  421DVPE   C4A 5125   7.653   7.627   5.587
  421DVPE   C1B 5126   7.816   7.368   4.403
  421DVPE   C2B 5127   7.875   7.203   4.890
  421DVPE   D3B 5128   7.756   7.155   5.338
  421DVPE   C4B 5129   7.475   7.482   5.134
  422DVPE   NH3 5130   7.673   8.164   3.796
  422DVPE   PO4 5131   7.532   8.487   3.796
  422DVPE   GL1 5132   7.343   8.576   4.174
  422DVPE   GL2 5133   7.365   8.275   4.189
  422DVPE   C1A 5134   7.452   8.664   4.600
  422DVPE   C2A 5135   7.619   8.554   5.079
  422DVPE   D3A 5136   7.910   8.536   5.440
  422DVPE   C4A 5137   7.965   8.461   5.895
  422DVPE   C1B 5138   7.411   8.091   4.591
  422DVPE   C2B 5139   7.463   8.020   5.092
  422DVPE   D3B 5140   7.581   8.141   5.519
  422DVPE   C4B 5141   7.731   8.002   5.941
  423DVPE   NH3 5142   7.376   9.466   3.941
  423DVPE   PO4 5143   7.699   9.466   3.796
  423DVPE   GL1 5144   7.855   9.477   4.163
  423DVPE   GL2 5145   8.035   9.716   4.126
  423DVPE   C1A 5146   7.562   9.569   4.486
  423DVPE   C2A 5147   7.555   9.541   4.994
  423DVPE   D3A 5148   7.973   9.444   5.179
  423DVPE   C4A 5149   8.032   9.433   5.643
  423DVPE   C1B 5150   7.968   9.910   4.506
  423DVPE   C2B 5151   7.868   9.953   5.000
  423DVPE   D3B 5152   7.737   9.810   5.419
  423DVPE   C4B 5153   7.306   9.903   5.601
  424DVPE   NH3 5154   7.438  11.609   3.994
  424DVPE   PO4 5155   7.452  11.948   3.881
  424DVPE   GL1 5156   7.642  11.938   4.241
  424DVPE   GL2 5157   7.440  12.095   4.370
  424DVPE   C1A 5158   7.601  11.614   4.544
  424DVPE   C2A 5159   7.777  11.763   4.999
  424DVPE   D3A 5160   7.912  11.985   5.383
  424DVPE   C4A 5161   7.618  11.839   5.705
  424DVPE   C1B 5162   7.683  12.237   4.706
  424DVPE   C2B 5163   7.926  12.421   5.119
  424DVPE   D3B 5164   8.225  12.419   5.488
  424DVPE   C4B 5165   7.989  12.206   5.846
  425DVPE   NH3 5166   7.068  12.745   3.982
  425DVPE   PO4 5167   7.216  12.906   4.252
  425DVPE   GL1 5168   7.362  12.507   4.262
  425DVPE   GL2 5169   7.631  12.571   4.358
  425DVPE   C1A 5170   7.176  12.388   4.650
  425DVPE   C2A 5171   7.328  12.428   5.143
  425DVPE   D3A 5172   7.585  12.370   5.534
  425DVPE   C4A 5173   7.854  12.771   5.513
  425DVPE   C1B 5174   7.593  12.738   4.766
  425DVPE   C2B 5175   7.544  13.000   5.195
  425DVPE   D3B 5176   7.595  13.226   5.582
  425DVPE   C4B 5177   8.047  13.342   5.506
  426DVPE   NH3 5178   7.372  13.256   3.931
  426DVPE   PO4 5179   7.287  13.585   4.019
  426DVPE   GL1 5180   7.410  13.328   4.389
  426DVPE   GL2 5181   7.682  13.398   4.307
  426DVPE   C1A 5182   7.551  13.339   4.806
  426DVPE   C2A 5183   7.669  13.590   5.238
  426DVPE   D3A 5184   7.733  13.709   5.685
  426DVPE   C4A 5185   7.624  13.463   6.082
  426DVPE   C1B 5186   7.834  13.722   4.593
  426DVPE   C2B 5187   7.919   0.013   5.020
  426DVPE   D3B 5188   7.810   0.163   5.458
  426DVPE   C4B 5189   7.745   0.630   5.439
  427DVPE   NH3 5190   7.496   3.151   3.914
  427DVPE   PO4 5191   7.781   3.346   4.004
  427DVPE   GL1 5192   7.649   3.247   4.391
  427DVPE   GL2 5193   7.404   3.408   4.345
  427DVPE   C1A 5194   7.738   3.294   4.827
  427DVPE   C2A 5195   8.016   3.342   5.276
  427DVPE   D3A 5196   8.440   3.503   5.446
  427DVPE   C4A 5197   8.163   3.460   5.837
  427DVPE   C1B 5198   7.459   3.703   4.671
  427DVPE   C2B 5199   7.513   3.607   5.159
  427DVPE   D3B 5200   7.554   3.212   5.373
  427DVPE   C4B 5201   7.644   3.561   5.676
  428DVPE   NH3 5202   8.726   2.779   3.729
  428DVPE   PO4 5203   8.639   2.934   4.035
  428DVPE   GL1 5204   8.493   2.707   4.361
  428DVPE   GL2 5205   8.215   2.823   4.335
  428DVPE   C1A 5206   8.591   2.340   4.604
  428DVPE   C2A 5207   8.374   2.078   4.976
  428DVPE   D3A 5208   8.398   2.138   5.437
  428DVPE   C4A 5209   8.437   2.572   5.655
  428DVPE   C1B 5210   8.179   3.216   4.529
  428DVPE   C2B 5211   8.387   3.366   4.957
  428DVPE   D3B 5212   8.408   3.015   5.293
  428DVPE   C4B 5213   8.790   2.732   5.343
  429DVPE   NH3 5214   8.181   3.774   3.808
  429DVPE   PO4 5215   8.528   3.749   3.777
  429DVPE   GL1 5216   8.508   3.869   4.192
  429DVPE   GL2 5217   8.701   3.659   4.257
  429DVPE   C1A 5218   8.342   3.893   4.595
  429DVPE   C2A 5219   8.432   3.922   5.094
  429DVPE   D3A 5220   8.722   4.038   5.432
  429DVPE   C4A 5221   8.433   3.906   5.781
  429DVPE   C1B 5222   8.789   3.450   4.648
  429DVPE   C2B 5223   8.862   3.228   5.119
  429DVPE   D3B 5224   8.839   3.160   5.591
  429DVPE   C4B 5225   8.684   3.492   5.888
  430DVPE   NH3 5226   8.258   4.878   4.035
  430DVPE   PO4 5227   8.603   4.921   3.945
  430DVPE   GL1 5228   8.763   5.306   4.088
  430DVPE   GL2 5229   8.994   5.175   4.243
  430DVPE   C1A 5230   8.515   5.376   4.434
  430DVPE   C2A 5231   8.341   5.293   4.897
  430DVPE   D3A 5232   8.074   5.374   5.261
  430DVPE   C4A 5233   7.999   5.582   5.683
  430DVPE   C1B 5234   8.930   5.048   4.659
  430DVPE   C2B 5235   9.003   4.932   5.154
  430DVPE   D3B 5236   9.095   4.956   5.608
  430DVPE   C4B 5237   8.680   4.986   5.843
  431DVPE   NH3 5238   8.722   6.072   3.701
  431DVPE   PO4 5239   8.673   5.770   3.878
  431DVPE   GL1 5240   8.775   5.802   4.268
  431DVPE   GL2 5241   9.038   5.629   4.244
  431DVPE   C1A 5242   8.733   6.057   4.641
  431DVPE   C2A 5243   8.708   6.255   5.122
  431DVPE   D3A 5244   8.533   6.274   5.569
  431DVPE   C4A 5245   8.349   5.937   5.887
  431DVPE   C1B 5246   8.909   5.577   4.664
  431DVPE   C2B 5247   8.600   5.723   5.032
  431DVPE   D3B 5248   8.360   5.809   5.402
  431DVPE   C4B 5249   8.531   5.484   5.714
  432DVPE   NH3 5250   8.138   7.294   3.945
  432DVPE   PO4 5251   8.471   7.248   4.050
  432DVPE   GL1 5252   8.506   7.686   4.101
  432DVPE   GL2 5253   8.208   7.693   4.177
  432DVPE   C1A 5254   8.701   7.736   4.487
  432DVPE   C2A 5255   8.538   7.816   4.957
  432DVPE   D3A 5256   8.452   7.720   5.390
  432DVPE   C4A 5257   8.656   7.413   5.691
  432DVPE   C1B 5258   8.241   7.551   4.596
  432DVPE   C2B 5259   8.376   7.317   5.027
  432DVPE   D3B 5260   8.247   7.229   5.459
  432DVPE   C4B 5261   8.134   7.604   5.739
  433DVPE   NH3 5262   8.393   8.891   3.749
  433DVPE   PO4 5263   8.614   8.846   4.021
  433DVPE   GL1 5264   8.331   8.624   4.287
  433DVPE   GL2 5265   8.141   8.795   4.151
  433DVPE   C1A 5266   8.496   8.771   4.664
  433DVPE   C2A 5267   8.684   8.691   5.141
  433DVPE   D3A 5268   8.900   8.589   5.543
  433DVPE   C4A 5269   8.720   9.023   5.584
  433DVPE   C1B 5270   8.193   9.152   4.423
  433DVPE   C2B 5271   8.336   9.212   4.919
  433DVPE   D3B 5272   8.486   9.399   5.332
  433DVPE   C4B 5273   8.500   9.405   5.823
  434DVPE   NH3 5274   8.662  10.547   3.650
  434DVPE   PO4 5275   8.405  10.779   3.737
  434DVPE   GL1 5276   8.480  10.621   4.128
  434DVPE   GL2 5277   8.448  10.343   4.024
  434DVPE   C1A 5278   8.528  10.656   4.586
  434DVPE   C2A 5279   8.512  10.669   5.112
  434DVPE   D3A 5280   8.557  10.767   5.579
  434DVPE   C4A 5281   8.113  10.623   5.696
  434DVPE   C1B 5282   8.439  10.108   4.390
  434DVPE   C2B 5283   8.230  10.265   4.835
  434DVPE   D3B 5284   8.094  10.355   5.269
  434DVPE   C4B 5285   8.472  10.268   5.557
  435DVPE   NH3 5286   9.286   0.058   3.943
  435DVPE   PO4 5287   8.937   0.031   3.924
  435DVPE   GL1 5288   8.816   0.420   4.108
  435DVPE   GL2 5289   9.118   0.478   4.106
  435DVPE   C1A 5290   8.728   0.416   4.536
  435DVPE   C2A 5291   8.701   0.250   5.028
  435DVPE   D3A 5292   8.689   0.030   5.446
  435DVPE   C4A 5293   8.678   0.479   5.602
  435DVPE   C1B 5294   9.222   0.310   4.507
  435DVPE   C2B 5295   9.219   0.222   5.020
  435DVPE   D3B 5296   9.204  13.972   5.416
  435DVPE   C4B 5297   9.488  13.606   5.570
  436DVPE   NH3 5298   9.140   1.933   3.845
  436DVPE   PO4 5299   9.332   2.141   4.062
  436DVPE   GL1 5300   8.963   2.004   4.269
  436DVPE   GL2 5301   9.137   1.735   4.273
  436DVPE   C1A 5302   9.016   2.063   4.674
  436DVPE   C2A 5303   9.257   2.037   5.106
  436DVPE   D3A 5304   9.339   1.884   5.526
  436DVPE   C4A 5305   9.321   2.193   5.860
  436DVPE   C1B 5306   9.166   1.551   4.674
  436DVPE   C2B 5307   9.231   1.497   5.176
  436DVPE   D3B 5308   9.129   1.388   5.613
  436DVPE   C4B 5309   8.984   1.780   5.858
  437DVPE   NH3 5310   9.159   2.917   3.962
  437DVPE   PO4 5311   9.267   2.679   4.177
  437DVPE   GL1 5312   8.926   2.831   4.394
  437DVPE   GL2 5313   8.973   3.117   4.340
  437DVPE   C1A 5314   8.822   2.733   4.815
  437DVPE   C2A 5315   8.809   2.294   5.098
  437DVPE   D3A 5316   8.852   1.917   5.377
  437DVPE   C4A 5317   8.807   2.232   5.740
  437DVPE   C1B 5318   9.194   3.093   4.717
  437DVPE   C2B 5319   9.249   2.801   5.135
  437DVPE   D3B 5320   9.190   2.428   5.423
  437DVPE   C4B 5321   9.451   2.668   5.727
  438DVPE   NH3 5322   9.252   3.781   3.584
  438DVPE   PO4 5323   9.324   3.561   3.842
  438DVPE   GL1 5324   9.253   3.741   4.249
  438DVPE   GL2 5325   9.113   3.533   4.320
  438DVPE   C1A 5326   8.973   3.935   4.520
  438DVPE   C2A 5327   8.947   3.823   5.020
  438DVPE   D3A 5328   9.022   3.619   5.439
  438DVPE   C4A 5329   9.000   3.876   5.845
  438DVPE   C1B 5330   9.300   3.586   4.713
  438DVPE   C2B 5331   9.365   3.338   5.147
  438DVPE   D3B 5332   9.360   3.131   5.553
  438DVPE   C4B 5333   9.188   3.411   5.892
  439DVPE   NH3 5334   9.106   5.041   3.825
  439DVPE   PO4 5335   9.153   5.387   3.824
  439DVPE   GL1 5336   9.421   5.367   4.130
  439DVPE   GL2 5337   9.495   5.097   4.092
  439DVPE   C1A 5338   9.334   5.364   4.542
  439DVPE   C2A 5339   9.229   5.395   5.041
  439DVPE   D3A 5340   8.961   5.417   5.417
  439DVPE   C4A 5341   9.019   5.377   5.892
  439DVPE   C1B 5342   9.346   4.838   4.382
  439DVPE   C2B 5343   9.423   4.948   4.862
  439DVPE   D3B 5344   9.518   5.035   5.315
  439DVPE   C4B 5345   9.541   4.705   5.662
  440DVPE   NH3 5346   9.413   5.813   3.711
  440DVPE   PO4 5347   9.659   5.560   3.781
  440DVPE   GL1 5348   9.730   5.708   4.141
  440DVPE   GL2 5349   9.458   5.809   4.185
  440DVPE   C1A 5350   9.782   5.640   4.567
  440DVPE   C2A 5351   9.590   5.766   5.037
  440DVPE   D3A 5352   9.386   5.871   5.447
  440DVPE   C4A 5353   9.367   5.864   5.917
  440DVPE   C1B 5354   9.330   5.868   4.600
  440DVPE   C2B 5355   9.081   5.900   5.042
  440DVPE   D3B 5356   8.868   5.911   5.461
  440DVPE   C4B 5357   8.852   5.859   5.931
  441DVPE   NH3 5358   9.220   6.299   3.839
  441DVPE   PO4 5359   9.097   6.059   4.038
  441DVPE   GL1 5360   9.323   6.259   4.324
  441DVPE   GL2 5361   9.353   6.538   4.198
  441DVPE   C1A 5362   9.207   6.331   4.758
  441DVPE   C2A 5363   9.191   6.349   5.288
  441DVPE   D3A 5364   9.038   6.322   5.740
  441DVPE   C4A 5365   9.131   6.195   6.202
  441DVPE   C1B 5366   9.255   6.831   4.515
  441DVPE   C2B 5367   9.306   7.097   4.940
  441DVPE   D3B 5368   9.253   6.942   5.371
  441DVPE   C4B 5369   9.022   7.079   5.762
  442DVPE   NH3 5370   8.979   7.582   3.621
  442DVPE   PO4 5371   9.319   7.659   3.649
  442DVPE   GL1 5372   9.292   7.440   4.014
  442DVPE   GL2 5373   9.455   7.625   4.159
  442DVPE   C1A 5374   9.041   7.342   4.352
  442DVPE   C2A 5375   8.917   7.433   4.848
  442DVPE   D3A 5376   9.007   7.406   5.309
  442DVPE   C4A 5377   9.139   7.608   5.730
  442DVPE   C1B 5378   9.526   7.370   4.500
  442DVPE   C2B 5379   9.415   7.589   4.925
  442DVPE   D3B 5380   9.373   7.788   5.311
  442DVPE   C4B 5381   9.526   7.373   5.490
  443DVPE   NH3 5382   9.246  11.870   3.728
  443DVPE   PO4 5383   9.332  11.547   3.825
  443DVPE   GL1 5384   9.415  11.472   4.189
  443DVPE   GL2 5385   9.676  11.514   4.290
  443DVPE   C1A 5386   9.171  11.491   4.546
  443DVPE   C2A 5387   9.184  11.711   5.019
  443DVPE   D3A 5388   9.273  11.782   5.471
  443DVPE   C4A 5389   9.341  11.390   5.746
  443DVPE   C1B 5390   9.605  11.624   4.738
  443DVPE   C2B 5391   9.630  11.952   5.144
  443DVPE   D3B 5392   9.573  12.150   5.597
  443DVPE   C4B 5393   9.092  12.187   5.733
  444DVPE   NH3 5394  10.409  13.617   3.935
  444DVPE   PO4 5395  10.159  13.852   4.013
  444DVPE   GL1 5396  10.291  13.800   4.415
  444DVPE   GL2 5397  10.403  13.520   4.382
  444DVPE   C1A 5398  10.168  13.784   4.843
  444DVPE   C2A 5399  10.140  13.887   5.351
  444DVPE   D3A 5400  10.160   0.205   5.699
  444DVPE   C4A 5401   9.922  13.838   5.873
  444DVPE   C1B 5402  10.373  13.290   4.742
  444DVPE   C2B 5403  10.254  13.390   5.209
  444DVPE   D3B 5404   9.979  13.437   5.564
  444DVPE   C4B 5405  10.089  12.982   5.660
  445DVPE   NH3 5406   9.733   1.459   3.960
  445DVPE   PO4 5407   9.393   1.509   3.930
  445DVPE   GL1 5408   9.502   1.495   4.369
  445DVPE   GL2 5409   9.581   1.793   4.290
  445DVPE   C1A 5410   9.677   1.439   4.792
  445DVPE   C2A 5411   9.978   1.328   5.207
  445DVPE   D3A 5412  10.123   1.326   5.656
  445DVPE   C4A 5413   9.745   1.149   5.908
  445DVPE   C1B 5414   9.548   1.933   4.698
  445DVPE   C2B 5415   9.678   1.781   5.175
  445DVPE   D3B 5416   9.649   1.494   5.546
  445DVPE   C4B 5417   9.440   1.591   5.960
  446DVPE   NH3 5418   9.905   2.283   3.760
  446DVPE   PO4 5419   9.800   1.977   3.912
  446DVPE   GL1 5420   9.838   2.193   4.237
  446DVPE   GL2 5421   9.694   2.456   4.143
  446DVPE   C1A 5422  10.002   2.145   4.652
  446DVPE   C2A 5423  10.067   2.173   5.164
  446DVPE   D3A 5424  10.087   1.816   5.466
  446DVPE   C4A 5425   9.790   1.905   5.817
  446DVPE   C1B 5426   9.737   2.557   4.572
  446DVPE   C2B 5427   9.626   2.432   5.056
  446DVPE   D3B 5428   9.683   2.266   5.487
  446DVPE   C4B 5429   9.815   2.402   5.930
  447DVPE   NH3 5430  10.267   2.955   4.023
  447DVPE   PO4 5431   9.990   2.798   3.865
  447DVPE   GL1 5432   9.755   2.922   4.200
  447DVPE   GL2 5433   9.891   3.206   4.157
  447DVPE   C1A 5434   9.723   3.054   4.626
  447DVPE   C2A 5435   9.743   2.972   5.130
  447DVPE   D3A 5436   9.856   2.939   5.574
  447DVPE   C4A 5437   9.845   2.891   6.047
  447DVPE   C1B 5438  10.194   3.307   4.473
  447DVPE   C2B 5439  10.341   3.536   4.913
  447DVPE   D3B 5440  10.336   3.530   5.376
  447DVPE   C4B 5441  10.151   3.309   5.759
  448DVPE   NH3 5442   9.601   5.070   3.659
  448DVPE   PO4 5443   9.922   5.091   3.818
  448DVPE   GL1 5444   9.890   5.297   4.127
  448DVPE   GL2 5445  10.095   5.459   4.247
  448DVPE   C1A 5446   9.758   5.134   4.494
  448DVPE   C2A 5447   9.774   5.301   4.973
  448DVPE   D3A 5448   9.834   5.485   5.401
  448DVPE   C4A 5449   9.439   5.405   5.644
  448DVPE   C1B 5450  10.212   5.295   4.667
  448DVPE   C2B 5451  10.244   5.203   5.175
  448DVPE   D3B 5452  10.338   5.502   5.508
  448DVPE   C4B 5453  10.182   5.508   5.932
  449DVPE   NH3 5454   9.910   5.987   3.755
  449DVPE   PO4 5455   9.693   6.154   3.974
  449DVPE   GL1 5456   9.892   6.080   4.320
  449DVPE   GL2 5457  10.122   5.912   4.165
  449DVPE   C1A 5458   9.870   6.117   4.771
  449DVPE   C2A 5459   9.704   6.216   5.257
  449DVPE   D3A 5460   9.551   6.320   5.693
  449DVPE   C4A 5461   9.745   6.237   6.122
  449DVPE   C1B 5462  10.263   5.800   4.537
  449DVPE   C2B 5463  10.102   5.693   4.994
  449DVPE   D3B 5464  10.126   5.935   5.366
  449DVPE   C4B 5465   9.859   5.899   5.748
  450DVPE   NH3 5466   9.819   6.914   3.756
  450DVPE   PO4 5467   9.615   6.641   3.822
  450DVPE   GL1 5468   9.814   6.565   4.147
  450DVPE   GL2 5469  10.008   6.778   4.181
  450DVPE   C1A 5470   9.653   6.513   4.541
  450DVPE   C2A 5471   9.547   6.641   5.015
  450DVPE   D3A 5472   9.712   6.733   5.433
  450DVPE   C4A 5473   9.512   6.966   5.809
  450DVPE   C1B 5474  10.137   6.658   4.602
  450DVPE   C2B 5475  10.100   6.508   5.101
  450DVPE   D3B 5476  10.073   6.391   5.567
  450DVPE   C4B 5477   9.910   6.665   5.903
  451DVPE   NH3 5478   9.987   8.902   3.939
  451DVPE   PO4 5479   9.875   8.577   3.897
  451DVPE   GL1 5480   9.869   8.640   4.302
  451DVPE   GL2 5481   9.661   8.866   4.298
  451DVPE   C1A 5482  10.120   8.915   4.531
  451DVPE   C2A 5483  10.087   8.914   5.037
  451DVPE   D3A 5484   9.953   8.751   5.449
  451DVPE   C4A 5485  10.213   8.539   5.778
  451DVPE   C1B 5486   9.651   9.035   4.720
  451DVPE   C2B 5487   9.625   9.101   5.241
  451DVPE   D3B 5488   9.717   9.125   5.698
  451DVPE   C4B 5489   9.832   8.788   5.985
  452DVPE   NH3 5490   9.979   9.623   3.619
  452DVPE   PO4 5491  10.213   9.750   3.840
  452DVPE   GL1 5492  10.011   9.486   4.078
  452DVPE   GL2 5493   9.762   9.618   4.118
  452DVPE   C1A 5494  10.196   9.421   4.455
  452DVPE   C2A 5495  10.183   9.418   4.951
  452DVPE   D3A 5496  10.097   9.309   5.388
  452DVPE   C4A 5497  10.067   9.521   5.819
  452DVPE   C1B 5498   9.724   9.541   4.567
  452DVPE   C2B 5499   9.709   9.574   5.073
  452DVPE   D3B 5500   9.663   9.591   5.524
  452DVPE   C4B 5501   9.415   9.461   5.911
  453DVPE   NH3 5502   9.725  10.039   3.877
  453DVPE   PO4 5503   9.926  10.161   3.625
  453DVPE   GL1 5504  10.158  10.193   4.006
  453DVPE   GL2 5505   9.926  10.372   4.118
  453DVPE   C1A 5506  10.165  10.010   4.406
  453DVPE   C2A 5507  10.202   9.931   4.901
  453DVPE   D3A 5508  10.081   9.830   5.337
  453DVPE   C4A 5509   9.911  10.010   5.749
  453DVPE   C1B 5510   9.840  10.399   4.537
  453DVPE   C2B 5511  10.004  10.408   5.019
  453DVPE   D3B 5512  10.128  10.349   5.454
  453DVPE   C4B 5513   9.781  10.530   5.756
  454DVPE   NH3 5514   9.837  11.029   3.675
  454DVPE   PO4 5515   9.803  11.324   3.856
  454DVPE   GL1 5516   9.656  11.089   4.123
  454DVPE   GL2 5517   9.829  10.854   4.098
  454DVPE   C1A 5518   9.531  11.113   4.524
  454DVPE   C2A 5519   9.402  11.112   5.009
  454DVPE   D3A 5520   9.580  11.439   5.276
  454DVPE   C4A 5521  10.002  11.358   5.466
  454DVPE   C1B 5522  10.003  10.859   4.463
  454DVPE   C2B 5523   9.985  10.934   4.957
  454DVPE   D3B 5524  10.007  10.841   5.395
  454DVPE   C4B 5525  10.361  10.736   5.703
  455DVPE   NH3 5526  10.231  11.647   3.809
  455DVPE   PO4 5527  10.035  11.736   4.066
  455DVPE   GL1 5528  10.286  11.445   4.235
  455DVPE   GL2 5529  10.059  11.253   4.231
  455DVPE   C1A 5530  10.386  11.590   4.629
  455DVPE   C2A 5531  10.510  11.777   5.069
  455DVPE   D3A 5532  10.495  11.678   5.502
  455DVPE   C4A 5533  10.221  11.798   5.850
  455DVPE   C1B 5534   9.973  11.325   4.630
  455DVPE   C2B 5535  10.026  11.626   5.029
  455DVPE   D3B 5536  10.040  11.891   5.407
  455DVPE   C4B 5537   9.744  11.689   5.726
  456DVPE   NH3 5538  10.832   3.548   3.819
  456DVPE   PO4 5539  10.693   3.822   3.977
  456DVPE   GL1 5540  10.515   3.433   4.145
  456DVPE   GL2 5541  10.256   3.578   4.106
  456DVPE   C1A 5542  10.711   3.538   4.535
  456DVPE   C2A 5543  10.854   3.746   4.969
  456DVPE   D3A 5544  10.835   3.576   5.389
  456DVPE   C4A 5545  10.655   3.287   5.720
  456DVPE   C1B 5546  10.263   3.814   4.491
  456DVPE   C2B 5547  10.423   4.062   4.904
  456DVPE   D3B 5548  10.660   4.262   5.245
  456DVPE   C4B 5549  10.547   3.992   5.615
  457DVPE   NH3 5550  10.510   7.350   3.957
  457DVPE   PO4 5551  10.838   7.402   3.824
  457DVPE   GL1 5552  10.950   7.395   4.212
  457DVPE   GL2 5553  10.791   7.158   4.301
  457DVPE   C1A 5554  10.926   7.711   4.508
  457DVPE   C2A 5555  10.827   7.610   4.995
  457DVPE   D3A 5556  10.743   7.203   5.235
  457DVPE   C4A 5557  10.858   7.565   5.514
  457DVPE   C1B 5558  10.539   7.352   4.618
  457DVPE   C2B 5559  10.342   7.480   5.088
  457DVPE   D3B 5560  10.378   7.364   5.546
  457DVPE   C4B 5561  10.491   7.450   5.998
  458DVPE   NH3 5562  10.563   8.082   3.664
  458DVPE   PO4 5563  10.277   8.259   3.735
  458DVPE   GL1 5564  10.330   8.436   4.078
  458DVPE   GL2 5565  10.618   8.313   4.093
  458DVPE   C1A 5566  10.232   8.434   4.479
  458DVPE   C2A 5567  10.457   8.564   4.911
  458DVPE   D3A 5568  10.804   8.441   5.180
  458DVPE   C4A 5569  10.628   8.304   5.585
  458DVPE   C1B 5570  10.621   8.128   4.492
  458DVPE   C2B 5571  10.516   8.031   4.991
  458DVPE   D3B 5572  10.445   7.859   5.421
  458DVPE   C4B 5573  10.672   7.893   5.843
  459DVPE   NH3 5574  10.712   8.572   3.694
  459DVPE   PO4 5575  10.448   8.769   3.799
  459DVPE   GL1 5576  10.649   8.754   4.146
  459DVPE   GL2 5577  10.692   9.029   4.203
  459DVPE   C1A 5578  10.798   8.618   4.518
  459DVPE   C2A 5579  10.934   8.865   4.942
  459DVPE   D3A 5580  10.921   8.919   5.409
  459DVPE   C4A 5581  10.462   8.787   5.398
  459DVPE   C1B 5582  10.592   9.112   4.630
  459DVPE   C2B 5583  10.610   9.221   5.137
  459DVPE   D3B 5584  10.585   9.311   5.601
  459DVPE   C4B 5585  10.241   9.052   5.796
  460DVPE   NH3 5586  10.383   9.256   3.942
  460DVPE   PO4 5587  10.668   9.443   3.981
  460DVPE   GL1 5588  10.518   9.689   4.255
  460DVPE   GL2 5589  10.583   9.961   4.155
  460DVPE   C1A 5590  10.593   9.649   4.698
  460DVPE   C2A 5591  10.572   9.725   5.208
  460DVPE   D3A 5592  10.479   9.830   5.656
  460DVPE   C4A 5593  10.660   9.624   6.046
  460DVPE   C1B 5594  10.609  10.145   4.576
  460DVPE   C2B 5595  10.562  10.244   5.096
  460DVPE   D3B 5596  10.634  10.320   5.559
  460DVPE   C4B 5597  10.702  10.133   6.002
  461DVPE   NH3 5598  10.693  12.535   3.759
  461DVPE   PO4 5599  10.710  12.848   3.895
  461DVPE   GL1 5600  10.803  12.548   4.223
  461DVPE   GL2 5601  10.863  12.825   4.310
  461DVPE   C1A 5602  10.948  12.448   4.628
  461DVPE   C2A 5603  10.850  12.662   5.098
  461DVPE   D3A 5604  10.755  12.850   5.514
  461DVPE   C4A 5605  10.546  13.271   5.613
  461DVPE   C1B 5606  10.780  12.964   4.696
  461DVPE   C2B 5607  10.757  13.235   5.118
  461DVPE   D3B 5608  11.099  13.213   5.422
  461DVPE   C4B 5609  10.987  13.139   5.870
  462DVPE   NH3 5610  11.072  13.162   4.068
  462DVPE   PO4 5611  10.769  13.321   4.157
  462DVPE   GL1 5612  10.799  13.692   4.365
  462DVPE   GL2 5613  11.092  13.686   4.361
  462DVPE   C1A 5614  10.681  13.693   4.798
  462DVPE   C2A 5615  10.618  13.725   5.308
  462DVPE   D3A 5616  10.461  13.748   5.749
  462DVPE   C4A 5617  10.930  13.613   5.707
  462DVPE   C1B 5618  11.116  13.942   4.726
  462DVPE   C2B 5619  10.939   0.125   5.188
  462DVPE   D3B 5620  10.816   0.106   5.650
  462DVPE   C4B 5621  10.830  13.901   6.102
  463DVPE   NH3 5622  12.042   2.689   3.733
  463DVPE   PO4 5623  12.112   2.406   3.911
  463DVPE   GL1 5624  11.931   2.595   4.277
  463DVPE   GL2 5625  11.870   2.277   4.318
  463DVPE   C1A 5626  11.706   2.625   4.671
  463DVPE   C2A 5627  11.597   2.438   5.150
  463DVPE   D3A 5628  11.595   2.156   5.534
  463DVPE   C4A 5629  11.963   2.355   5.755
  463DVPE   C1B 5630  11.738   2.112   4.724
  463DVPE   C2B 5631  11.395   1.959   5.096
  463DVPE   D3B 5632  11.120   1.950   5.484
  463DVPE   C4B 5633  11.219   2.048   5.943
  464DVPE   NH3 5634  11.237   6.613   3.896
  464DVPE   PO4 5635  11.482   6.800   3.714
  464DVPE   GL1 5636  11.660   6.746   4.112
  464DVPE   GL2 5637  11.648   6.440   4.055
  464DVPE   C1A 5638  11.575   6.749   4.563
  464DVPE   C2A 5639  11.494   6.848   5.067
  464DVPE   D3A 5640  11.301   6.940   5.486
  464DVPE   C4A 5641  11.681   7.092   5.741
  464DVPE   C1B 5642  11.406   6.316   4.392
  464DVPE   C2B 5643  11.353   6.397   4.896
  464DVPE   D3B 5644  11.294   6.445   5.356
  464DVPE   C4B 5645  11.498   6.573   5.767
  465DVPE   NH3 5646  11.213  12.276   3.711
  465DVPE   PO4 5647  10.999  12.190   3.971
  465DVPE   GL1 5648  11.271  12.009   4.219
  465DVPE   GL2 5649  11.523  12.143   4.115
  465DVPE   C1A 5650  11.234  11.999   4.653
  465DVPE   C2A 5651  11.084  12.194   5.096
  465DVPE   D3A 5652  10.998  12.383   5.511
  465DVPE   C4A 5653  11.152  12.184   5.901
  465DVPE   C1B 5654  11.712  12.061   4.505
  465DVPE   C2B 5655  11.608  12.119   5.018
  465DVPE   D3B 5656  11.426  12.046   5.457
  465DVPE   C4B 5657  11.643  12.058   5.904
  466DVPE   NH3 5658  11.258  13.433   3.691
  466DVPE   PO4 5659  11.368  13.578   3.991
  466DVPE   GL1 5660  11.369  13.339   4.359
  466DVPE   GL2 5661  11.647  13.423   4.366
  466DVPE   C1A 5662  11.120  13.379   4.725
  466DVPE   C2A 5663  11.109  13.645   5.159
  466DVPE   D3A 5664  11.292  13.930   5.482
  466DVPE   C4A 5665  11.429  13.515   5.656
  466DVPE   C1B 5666  11.554  13.668   4.699
  466DVPE   C2B 5667  11.638  13.662   5.193
  466DVPE   D3B 5668  12.032  13.413   5.195
  466DVPE   C4B 5669  11.928  13.436   5.646
  467DVPE   NH3 5670  11.923  10.687   3.924
  467DVPE   PO4 5671  12.166  10.924   3.991
  467DVPE   GL1 5672  11.989  10.997   4.331
  467DVPE   GL2 5673  11.699  10.951   4.251
  467DVPE   C1A 5674  12.062  10.829   4.729
  467DVPE   C2A 5675  12.066  10.725   5.229
  467DVPE   D3A 5676  12.004  10.756   5.692
  467DVPE   C4A 5677  12.346  10.905   5.971
  467DVPE   C1B 5678  11.755  10.555   4.453
  467DVPE   C2B 5679  12.090  10.329   4.799
  467DVPE   D3B 5680  12.333  10.285   5.211
  467DVPE   C4B 5681  12.466  10.573   5.583
  468DVPE   NH3 5682  11.671  12.154   3.529
  468DVPE   PO4 5683  11.857  12.016   3.794
  468DVPE   GL1 5684  12.073  12.107   4.179
  468DVPE   GL2 5685  12.189  11.826   4.139
  468DVPE   C1A 5686  12.201  12.089   4.618
  468DVPE   C2A 5687  12.142  12.149   5.114
  468DVPE   D3A 5688  11.912  12.159   5.499
  468DVPE   C4A 5689  12.307  12.204   5.725
  468DVPE   C1B 5690  12.398  11.655   4.477
  468DVPE   C2B 5691  12.254  11.679   4.971
  468DVPE   D3B 5692  12.149  11.667   5.438
  468DVPE   C4B 5693  12.107  11.795   5.910
  469DVPE   NH3 5694  12.029  12.866   3.963
  469DVPE   PO4 5695  12.250  13.070   3.786
  469DVPE   GL1 5696  12.506  12.918   4.114
  469DVPE   GL2 5697  12.458  12.637   4.036
  469DVPE   C1A 5698  12.330  12.957   4.548
  469DVPE   C2A 5699  12.178  12.945   5.049
  469DVPE   D3A 5700  11.989  12.971   5.497
  469DVPE   C4A 5701  11.936  13.054   5.984
  469DVPE   C1B 5702  12.214  12.509   4.356
  469DVPE   C2B 5703  11.895  12.484   4.766
  469DVPE   D3B 5704  11.803  12.582   5.214
  469DVPE   C4B 5705  12.256  12.574   5.398
  470DVPE   NH3 5706  12.039   0.352   4.024
  470DVPE   PO4 5707  12.399   0.360   4.040
  470DVPE   GL1 5708  12.622   0.517   4.376
  470DVPE   GL2 5709  12.778   0.243   4.368
  470DVPE   C1A 5710  12.441   0.639   4.781
  470DVPE   C2A 5711  12.329   0.639   5.290
  470DVPE   D3A 5712  12.248   0.651   5.755
  470DVPE   C4A 5713  11.807   0.753   5.918
  470DVPE   C1B 5714  12.659   0.174   4.787
  470DVPE   C2B 5715  12.504   0.158   5.270
  470DVPE   D3B 5716  12.350   0.156   5.713
  470DVPE   C4B 5717  12.541   0.396   6.101
  471DVPE   NH3 5718  12.087   5.164   3.813
  471DVPE   PO4 5719  12.083   5.459   3.998
  471DVPE   GL1 5720  12.048   5.305   4.352
  471DVPE   GL2 5721  11.960   5.019   4.247
  471DVPE   C1A 5722  12.312   5.403   4.697
  471DVPE   C2A 5723  12.511   5.526   5.158
  471DVPE   D3A 5724  12.510   5.586   5.620
  471DVPE   C4A 5725  12.020   5.570   5.626
  471DVPE   C1B 5726  12.191   4.901   4.578
  471DVPE   C2B 5727  12.241   5.057   5.068
  471DVPE   D3B 5728  12.284   5.146   5.520
  471DVPE   C4B 5729  12.105   5.175   5.967
  472DVPE   NH3 5730  12.164   5.936   3.861
  472DVPE   PO4 5731  12.037   6.122   4.125
  472DVPE   GL1 5732  12.362   6.194   4.392
  472DVPE   GL2 5733  12.209   6.501   4.354
  472DVPE   C1A 5734  12.382   6.005   4.816
  472DVPE   C2A 5735  12.279   5.977   5.345
  472DVPE   D3A 5736  12.256   5.974   5.826
  472DVPE   C4A 5737  12.328   5.600   6.113
  472DVPE   C1B 5738  11.961   6.472   4.727
  472DVPE   C2B 5739  11.786   6.357   5.195
  472DVPE   D3B 5740  11.831   6.195   5.634
  472DVPE   C4B 5741  11.794   6.332   6.102
  473DVPE   NH3 5742  12.010   6.884   3.729
  473DVPE   PO4 5743  12.056   6.593   3.905
  473DVPE   GL1 5744  12.072   6.923   4.184
  473DVPE   GL2 5745  12.344   6.992   4.070
  473DVPE   C1A 5746  12.018   6.981   4.595
  473DVPE   C2A 5747  12.005   6.879   5.080
  473DVPE   D3A 5748  11.918   6.729   5.511
  473DVPE   C4A 5749  12.102   6.857   5.949
  473DVPE   C1B 5750  12.505   6.930   4.472
  473DVPE   C2B 5751  12.542   6.929   4.989
  473DVPE   D3B 5752  12.376   6.965   5.423
  473DVPE   C4B 5753  12.591   6.888   5.825
  474DVPE   NH3 5754  12.905  10.629   3.925
  474DVPE   PO4 5755  12.657  10.814   4.078
  474DVPE   GL1 5756  12.751  10.661   4.419
  474DVPE   GL2 5757  13.047  10.718   4.408
  474DVPE   C1A 5758  12.591  10.519   4.797
  474DVPE   C2A 5759  12.839  10.445   5.240
  474DVPE   D3A 5760  12.971  10.720   5.596
  474DVPE   C4A 5761  12.706  11.107   5.677
  474DVPE   C1B 5762  13.285  10.679   4.780
  474DVPE   C2B 5763  13.345  10.512   5.267
  474DVPE   D3B 5764  13.308  10.366   5.708
  474DVPE   C4B 5765  13.250  10.708   6.033
  475DVPE   NH3 5766  12.504  13.486   3.564
  475DVPE   PO4 5767  12.592  13.468   3.908
  475DVPE   GL1 5768  12.797  13.763   4.146
  475DVPE   GL2 5769  13.040  13.626   4.034
  475DVPE   C1A 5770  12.836  13.730   4.583
  475DVPE   C2A 5771  12.838  13.784   5.105
  475DVPE   D3A 5772  12.834  13.924   5.565
  475DVPE   C4A 5773  12.846  13.456   5.593
  475DVPE   C1B 5774  13.198  13.382   4.356
  475DVPE   C2B 5775  13.149  13.262   4.855
  475DVPE   D3B 5776  13.108  13.137   5.303
  475DVPE   C4B 5777  13.203  13.175   5.782
  476DVPE   NH3 5778  12.898   0.394   3.917
  476DVPE   PO4 5779  13.067   0.109   3.986
  476DVPE   GL1 5780  13.210   0.316   4.326
  476DVPE   GL2 5781  13.069   0.598   4.292
  476DVPE   C1A 5782  13.158   0.153   4.736
  476DVPE   C2A 5783  13.161   0.165   5.247
  476DVPE   D3A 5784  13.207   0.247   5.700
  476DVPE   C4A 5785  13.022   0.170   6.133
  476DVPE   C1B 5786  12.951   0.626   4.707
  476DVPE   C2B 5787  12.839   0.560   5.198
  476DVPE   D3B 5788  12.754   0.455   5.644
  476DVPE   C4B 5789  12.996   0.658   6.013
  477DVPE   NH3 5790  12.658   0.818   4.024
  477DVPE   PO4 5791  12.956   0.904   3.855
  477DVPE   GL1 5792  13.027   1.079   4.215
  477DVPE   GL2 5793  12.760   1.236   4.174
  477DVPE   C1A 5794  13.156   1.084   4.635
  477DVPE   C2A 5795  13.149   0.991   5.140
  477DVPE   D3A 5796  13.169   0.793   5.565
  477DVPE   C4A 5797  13.409   0.965   5.970
  477DVPE   C1B 5798  12.669   1.051   4.575
  477DVPE   C2B 5799  12.630   1.019   5.088
  477DVPE   D3B 5800  12.653   0.936   5.548
  477DVPE   C4B 5801  12.569   0.934   6.020
  478DVPE   NH3 5802  12.596   1.560   3.840
  478DVPE   PO4 5803  12.814   1.833   3.845
  478DVPE   GL1 5804  12.786   1.819   4.207
  478DVPE   GL2 5805  12.879   2.047   4.362
  478DVPE   C1A 5806  12.925   1.519   4.465
  478DVPE   C2A 5807  12.909   1.421   4.950
  478DVPE   D3A 5808  12.826   1.387   5.401
  478DVPE   C4A 5809  12.517   1.398   5.783
  478DVPE   C1B 5810  13.052   1.901   4.768
  478DVPE   C2B 5811  13.097   1.819   5.294
  478DVPE   D3B 5812  13.070   1.673   5.741
  478DVPE   C4B 5813  13.156   1.794   6.187
  479DVPE   NH3 5814  13.039   2.283   3.995
  479DVPE   PO4 5815  12.688   2.302   3.992
  479DVPE   GL1 5816  12.706   2.457   4.372
  479DVPE   GL2 5817  12.884   2.696   4.282
  479DVPE   C1A 5818  12.660   2.325   4.815
  479DVPE   C2A 5819  12.761   2.264   5.327
  479DVPE   D3A 5820  12.998   2.171   5.712
  479DVPE   C4A 5821  12.940   2.261   6.170
  479DVPE   C1B 5822  12.816   2.797   4.693
  479DVPE   C2B 5823  12.772   2.743   5.188
  479DVPE   D3B 5824  12.777   2.676   5.648
  479DVPE   C4B 5825  12.652   3.046   5.899
  480DVPE   NH3 5826  12.985   4.323   3.907
  480DVPE   PO4 5827  13.177   4.104   4.090
  480DVPE   GL1 5828  13.032   4.100   4.471
  480DVPE   GL2 5829  12.783   3.927   4.350
  480DVPE   C1A 5830  13.091   4.141   4.933
  480DVPE   C2A 5831  13.085   4.166   5.454
  480DVPE   D3A 5832  13.126   4.235   5.917
  480DVPE   C4A 5833  13.005   4.312   6.368
  480DVPE   C1B 5834  12.619   4.088   4.723
  480DVPE   C2B 5835  12.638   4.229   5.220
  480DVPE   D3B 5836  12.667   4.345   5.695
  480DVPE   C4B 5837  12.530   4.361   6.163
  481DVPE   NH3 5838  13.023   4.814   3.806
  481DVPE   PO4 5839  12.691   4.746   3.904
  481DVPE   GL1 5840  12.916   4.623   4.251
  481DVPE   GL2 5841  13.000   4.915   4.267
  481DVPE   C1A 5842  12.904   4.522   4.668
  481DVPE   C2A 5843  12.974   4.609   5.185
  481DVPE   D3A 5844  13.070   4.667   5.645
  481DVPE   C4A 5845  12.832   4.737   6.044
  481DVPE   C1B 5846  12.697   4.976   4.583
  481DVPE   C2B 5847  12.750   5.074   5.075
  481DVPE   D3B 5848  12.861   5.176   5.513
  481DVPE   C4B 5849  12.609   5.180   5.919
  482DVPE   NH3 5850  13.139   7.493   4.180
  482DVPE   PO4 5851  12.907   7.585   3.931
  482DVPE   GL1 5852  12.663   7.579   4.292
  482DVPE   GL2 5853  12.688   7.299   4.275
  482DVPE   C1A 5854  12.733   7.701   4.720
  482DVPE   C2A 5855  12.842   7.756   5.227
  482DVPE   D3A 5856  12.987   7.752   5.678
  482DVPE   C4A 5857  13.236   7.401   5.482
  482DVPE   C1B 5858  12.909   7.228   4.623
  482DVPE   C2B 5859  13.045   7.126   5.085
  482DVPE   D3B 5860  12.937   7.012   5.507
  482DVPE   C4B 5861  12.937   7.277   5.911
  483DVPE   NH3 5862  13.584  10.977   3.896
  483DVPE   PO4 5863  13.832  10.781   4.024
  483DVPE   GL1 5864  13.785  10.933   4.385
  483DVPE   GL2 5865  13.473  10.908   4.402
  483DVPE   C1A 5866  13.992  10.940   4.772
  483DVPE   C2A 5867   0.094  10.895   5.271
  483DVPE   D3A 5868   0.049  10.847   5.745
  483DVPE   C4A 5869   0.069  10.759   6.233
  483DVPE   C1B 5870  13.358  11.177   4.732
  483DVPE   C2B 5871  13.546  10.967   5.162
  483DVPE   D3B 5872  13.522  10.865   5.617
  483DVPE   C4B 5873  13.668  11.033   6.044
  484DVPE   NH3 5874  13.352  11.411   3.815
  484DVPE   PO4 5875  13.591  11.627   3.945
  484DVPE   GL1 5876  13.323  11.443   4.287
  484DVPE   GL2 5877  13.549  11.288   4.236
  484DVPE   C1A 5878  13.261  11.693   4.637
  484DVPE   C2A 5879  13.505  11.782   5.078
  484DVPE   D3A 5880  13.713  11.753   5.494
  484DVPE   C4A 5881  13.377  11.671   5.831
  484DVPE   C1B 5882  13.793  11.390   4.559
  484DVPE   C2B 5883  13.840  11.370   5.064
  484DVPE   D3B 5884  13.867  11.266   5.515
  484DVPE   C4B 5885   0.260  11.314   5.773
  485DVPE   NH3 5886  13.607  12.124   3.847
  485DVPE   PO4 5887  13.299  12.287   3.859
  485DVPE   GL1 5888  13.431  12.293   4.250
  485DVPE   GL2 5889  13.447  11.972   4.253
  485DVPE   C1A 5890  13.211  12.274   4.605
  485DVPE   C2A 5891  13.116  12.143   5.073
  485DVPE   D3A 5892  13.123  12.018   5.509
  485DVPE   C4A 5893  13.530  12.155   5.718
  485DVPE   C1B 5894  13.719  11.949   4.589
  485DVPE   C2B 5895  13.922  12.077   5.042
  485DVPE   D3B 5896   0.043  12.137   5.488
  485DVPE   C4B 5897   0.026  12.163   5.960
  486DVPE   NH3 5898  13.918  12.996   3.832
  486DVPE   PO4 5899   0.018  12.656   3.915
  486DVPE   GL1 5900  13.739  12.637   4.262
  486DVPE   GL2 5901  13.802  12.941   4.270
  486DVPE   C1A 5902  13.657  12.524   4.706
  486DVPE   C2A 5903  13.687  12.488   5.245
  486DVPE   D3A 5904  13.825  12.560   5.709
  486DVPE   C4A 5905   0.059  12.978   5.659
  486DVPE   C1B 5906  13.531  13.030   4.575
  486DVPE   C2B 5907  13.542  12.969   5.074
  486DVPE   D3B 5908  13.523  12.900   5.523
  486DVPE   C4B 5909  13.677  12.999   5.966
  487DVPE   NH3 5910  13.485   0.291   3.751
  487DVPE   PO4 5911  13.393   0.552   3.967
  487DVPE   GL1 5912  13.599   0.175   4.176
  487DVPE   GL2 5913  13.703   0.426   4.292
  487DVPE   C1A 5914  13.623   0.029   4.583
  487DVPE   C2A 5915  13.642   0.092   5.097
  487DVPE   D3A 5916  13.691   0.262   5.537
  487DVPE   C4A 5917  13.554   0.461   5.974
  487DVPE   C1B 5918  13.478   0.549   4.662
  487DVPE   C2B 5919  13.490   0.608   5.182
  487DVPE   D3B 5920  13.672   0.767   5.596
  487DVPE   C4B 5921  13.920   0.830   6.022
  488DVPE   NH3 5922  13.848   1.188   4.071
  488DVPE   PO4 5923  13.809   0.843   4.101
  488DVPE   GL1 5924  13.488   0.941   4.349
  488DVPE   GL2 5925  13.430   1.239   4.249
  488DVPE   C1A 5926  13.628   1.040   4.783
  488DVPE   C2A 5927  13.755   1.146   5.277
  488DVPE   D3A 5928  13.816   1.251   5.747
  488DVPE   C4A 5929  13.698   1.317   6.215
  488DVPE   C1B 5930  13.433   1.519   4.594
  488DVPE   C2B 5931  13.392   1.452   5.098
  488DVPE   D3B 5932  13.339   1.292   5.541
  488DVPE   C4B 5933  12.981   1.182   5.846
  489DVPE   NH3 5934  13.577   4.065   3.767
  489DVPE   PO4 5935  13.673   3.986   4.088
  489DVPE   GL1 5936  13.572   4.232   4.436
  489DVPE   GL2 5937  13.888   4.257   4.402
  489DVPE   C1A 5938  13.590   4.152   4.886
  489DVPE   C2A 5939  13.558   3.981   5.388
  489DVPE   D3A 5940  13.557   3.936   5.860
  489DVPE   C4A 5941  13.510   4.192   6.264
  489DVPE   C1B 5942   0.030   4.390   4.764
  489DVPE   C2B 5943  13.943   4.313   5.254
  489DVPE   D3B 5944  13.993   4.087   5.649
  489DVPE   C4B 5945  13.969   4.256   6.091
  490DVPE   NH3 5946  13.707   4.525   4.072
  490DVPE   PO4 5947  13.368   4.594   4.120
  490DVPE   GL1 5948  13.413   4.754   4.469
  490DVPE   GL2 5949  13.706   4.656   4.540
  490DVPE   C1A 5950  13.358   4.632   4.866
  490DVPE   C2A 5951  13.464   4.473   5.329
  490DVPE   D3A 5952  13.594   4.449   5.776
  490DVPE   C4A 5953  13.334   4.656   6.124
  490DVPE   C1B 5954  13.832   4.794   4.964
  490DVPE   C2B 5955  13.817   4.811   5.472
  490DVPE   D3B 5956  13.590   5.013   5.832
  490DVPE   C4B 5957  13.507   5.091   6.314
  491DVPE   NH3 5958  13.430   5.557   3.854
  491DVPE   PO4 5959  13.716   5.400   3.968
  491DVPE   GL1 5960  13.457   5.485   4.318
  491DVPE   GL2 5961  13.352   5.200   4.308
  491DVPE   C1A 5962  13.443   5.646   4.737
  491DVPE   C2A 5963  13.446   5.719   5.243
  491DVPE   D3A 5964  13.357   5.414   5.601
  491DVPE   C4A 5965  13.125   5.162   5.954
  491DVPE   C1B 5966  13.530   5.135   4.719
  491DVPE   C2B 5967  13.721   5.272   5.193
  491DVPE   D3B 5968  13.872   5.399   5.633
  491DVPE   C4B 5969  13.930   5.311   6.123
  492DVPE   NH3 5970  13.648   6.400   4.112
  492DVPE   PO4 5971  13.886   6.185   3.966
  492DVPE   GL1 5972  13.746   5.830   4.124
  492DVPE   GL2 5973  13.501   5.934   4.234
  492DVPE   C1A 5974  13.909   5.685   4.510
  492DVPE   C2A 5975  13.921   5.752   5.016
  492DVPE   D3A 5976  13.870   5.898   5.459
  492DVPE   C4A 5977  13.479   5.890   5.727
  492DVPE   C1B 5978  13.598   6.114   4.616
  492DVPE   C2B 5979  13.644   6.218   5.115
  492DVPE   D3B 5980  13.586   6.368   5.549
  492DVPE   C4B 5981  13.170   6.163   5.428
  493DVPE   NH3 5982  13.245   7.027   3.780
  493DVPE   PO4 5983  13.456   6.879   4.023
  493DVPE   GL1 5984  13.548   7.266   4.179
  493DVPE   GL2 5985  13.843   7.186   4.185
  493DVPE   C1A 5986  13.488   7.344   4.622
  493DVPE   C2A 5987  13.597   7.310   5.126
  493DVPE   D3A 5988  13.704   7.247   5.583
  493DVPE   C4A 5989  13.377   7.029   5.863
  493DVPE   C1B 5990   0.001   7.199   4.611
  493DVPE   C2B 5991   0.100   7.139   5.125
  493DVPE   D3B 5992   0.185   7.020   5.578
  493DVPE   C4B 5993  13.815   6.784   5.776
  494DVPE   NH3 5994  13.433   7.515   3.764
  494DVPE   PO4 5995  13.714   7.662   3.911
  494DVPE   GL1 5996  13.546   7.714   4.293
  494DVPE   GL2 5997  13.802   7.582   4.396
  494DVPE   C1A 5998  13.281   7.806   4.637
  494DVPE   C2A 5999  13.377   7.787   5.141
  494DVPE   D3A 6000  13.552   7.795   5.580
  494DVPE   C4A 6001  13.410   7.527   5.947
  494DVPE   C1B 6002  13.851   7.669   4.822
  494DVPE   C2B 6003  13.959   7.628   5.318
  494DVPE   D3B 6004   0.051   7.561   5.767
  494DVPE   C4B 6005  13.787   7.856   6.028
  495POPE   NH3 6006   0.431   2.242   3.826
  495POPE   PO4 6007   0.629   2.438   4.021
  495POPE   GL1 6008   0.324   2.505   4.278
  495POPE   GL2 6009   0.094   2.355   4.167
  495POPE   C1A 6010   0.420   2.318   4.675
  495POPE   D2A 6011   0.512   2.127   5.121
  495POPE   C3A 6012   0.423   2.310   5.545
  495POPE   C4A 6013   0.444   2.384   6.028
  495POPE   C1B 6014  13.991   2.180   4.477
  495POPE   C2B 6015  13.972   2.113   4.881
  495POPE   C3B 6016  13.967   2.116   5.371
  495POPE   C4B 6017  13.943   2.106   5.872
  496POPE   NH3 6018   0.022   4.897   3.861
  496POPE   PO4 6019   0.203   5.146   4.045
  496POPE   GL1 6020   0.369   5.101   4.406
  496POPE   GL2 6021   0.611   4.932   4.359
  496POPE   C1A 6022   0.244   5.114   4.832
  496POPE   D2A 6023   0.193   5.117   5.332
  496POPE   C3A 6024   0.145   4.998   5.798
  496POPE   C4A 6025  13.868   4.754   6.148
  496POPE   C1B 6026   0.716   5.016   4.711
  496POPE   C2B 6027   0.661   5.004   5.120
  496POPE   C3B 6028   0.621   5.006   5.605
  496POPE   C4B 6029   0.569   5.080   6.103
  497POPE   NH3 6030   0.819   7.505   4.074
  497POPE   PO4 6031   0.625   7.266   3.882
  497POPE   GL1 6032   0.462   7.219   4.274
  497POPE   GL2 6033   0.371   7.502   4.252
  497POPE   C1A 6034   0.665   7.317   4.655
  497POPE   D2A 6035   0.859   7.351   5.120
  497POPE   C3A 6036   0.839   7.175   5.555
  497POPE   C4A 6037   0.606   6.917   5.914
  497POPE   C1B 6038   0.262   7.587   4.582
  497POPE   C2B 6039   0.349   7.561   4.981
  497POPE   C3B 6040   0.423   7.442   5.426
  497POPE   C4B 6041   0.535   7.405   5.887
  498POPE   NH3 6042   0.347  12.047   3.871
  498POPE   PO4 6043   0.084  11.814   3.903
  498POPE   GL1 6044   0.156  11.713   4.322
  498POPE   GL2 6045   0.313  11.990   4.339
  498POPE   C1A 6046   0.140  11.691   4.772
  498POPE   D2A 6047   0.175  11.688   5.281
  498POPE   C3A 6048   0.366  11.801   5.706
  498POPE   C4A 6049   0.669  11.839   6.109
  498POPE   C1B 6050   0.354  12.102   4.698
  498POPE   C2B 6051   0.422  12.176   5.108
  498POPE   C3B 6052   0.557  12.243   5.566
  498POPE   C4B 6053   0.762  12.317   6.016
  499POPE   NH3 6054   1.352   3.633   3.998
  499POPE   PO4 6055   1.170   3.938   3.970
  499POPE   GL1 6056   0.799   4.014   4.182
  499POPE   GL2 6057   0.750   3.733   4.122
  499POPE   C1A 6058   0.912   4.062   4.594
  499POPE   D2A 6059   0.963   4.067   5.077
  499POPE   C3A 6060   1.304   4.012   5.379
  499POPE   C4A 6061   1.320   4.052   5.873
  499POPE   C1B 6062   0.957   3.609   4.407
  499POPE   C2B 6063   1.127   3.492   4.763
  499POPE   C3B 6064   1.258   3.528   5.226
  499POPE   C4B 6065   1.508   3.639   5.647
  500POPE   NH3 6066   0.985   4.732   3.927
  500POPE   PO4 6067   0.945   4.399   3.968
  500POPE   GL1 6068   1.067   4.444   4.359
  500POPE   GL2 6069   1.282   4.217   4.358
  500POPE   C1A 6070   0.945   4.553   4.787
  500POPE   D2A 6071   0.788   4.515   5.278
  500POPE   C3A 6072   0.743   4.542   5.759
  500POPE   C4A 6073   0.815   4.632   6.249
  500POPE   C1B 6074   1.357   4.324   4.712
  500POPE   C2B 6075   1.327   4.459   5.114
  500POPE   C3B 6076   1.212   4.466   5.591
  500POPE   C4B 6077   1.286   4.513   6.081
  501POPE   NH3 6078   1.220   5.951   3.714
  501POPE   PO4 6079   0.939   5.941   3.939
  501POPE   GL1 6080   1.062   6.044   4.323
  501POPE   GL2 6081   0.944   5.818   4.470
  501POPE   C1A 6082   1.051   6.324   4.668
  501POPE   D2A 6083   1.028   6.396   5.157
  501POPE   C3A 6084   1.044   6.203   5.586
  501POPE   C4A 6085   1.155   6.205   6.058
  501POPE   C1B 6086   1.086   5.876   4.805
  501POPE   C2B 6087   1.154   5.851   5.212
  501POPE   C3B 6088   1.195   5.745   5.685
  501POPE   C4B 6089   1.208   5.729   6.184
  502POPE   NH3 6090   1.581   8.774   3.986
  502POPE   PO4 6091   1.485   9.095   3.863
  502POPE   GL1 6092   1.260   9.086   4.198
  502POPE   GL2 6093   1.167   8.808   4.196
  502POPE   C1A 6094   1.249   9.180   4.614
  502POPE   D2A 6095   1.053   9.387   5.034
  502POPE   C3A 6096   1.259   9.303   5.446
  502POPE   C4A 6097   1.290   9.002   5.835
  502POPE   C1B 6098   1.028   8.754   4.532
  502POPE   C2B 6099   0.962   8.865   4.924
  502POPE   C3B 6100   1.020   8.856   5.392
  502POPE   C4B 6101   0.901   8.638   5.810
  503POPE   NH3 6102   1.276   9.595   3.604
  503POPE   PO4 6103   1.206   9.880   3.807
  503POPE   GL1 6104   1.237   9.914   4.224
  503POPE   GL2 6105   1.014  10.078   4.308
  503POPE   C1A 6106   1.238   9.674   4.573
  503POPE   D2A 6107   1.531   9.487   4.923
  503POPE   C3A 6108   1.446   9.761   5.300
  503POPE   C4A 6109   1.405   9.795   5.801
  503POPE   C1B 6110   0.918   9.998   4.646
  503POPE   C2B 6111   0.964   9.923   5.050
  503POPE   C3B 6112   0.952   9.750   5.498
  503POPE   C4B 6113   0.933   9.656   5.979
  504POPE   NH3 6114   1.797   2.838   4.062
  504POPE   PO4 6115   2.106   2.807   3.892
  504POPE   GL1 6116   2.114   2.503   4.170
  504POPE   GL2 6117   2.394   2.475   4.182
  504POPE   C1A 6118   1.946   2.481   4.593
  504POPE   D2A 6119   1.906   2.065   4.846
  504POPE   C3A 6120   1.965   2.407   5.168
  504POPE   C4A 6121   1.708   2.686   5.481
  504POPE   C1B 6122   2.452   2.338   4.518
  504POPE   C2B 6123   2.403   2.130   4.870
  504POPE   C3B 6124   2.163   1.958   5.263
  504POPE   C4B 6125   1.914   2.044   5.678
  505POPE   NH3 6126   1.966   9.178   3.923
  505POPE   PO4 6127   2.081   8.844   3.945
  505POPE   GL1 6128   1.880   8.883   4.317
  505POPE   GL2 6129   1.742   9.135   4.320
  505POPE   C1A 6130   1.525   8.753   4.547
  505POPE   D2A 6131   1.444   8.931   5.009
  505POPE   C3A 6132   1.594   8.872   5.435
  505POPE   C4A 6133   1.820   8.998   5.842
  505POPE   C1B 6134   1.766   9.130   4.698
  505POPE   C2B 6135   1.900   9.157   5.099
  505POPE   C3B 6136   2.047   9.366   5.522
  505POPE   C4B 6137   2.345   9.717   5.749
  506POPE   NH3 6138   1.718   9.834   3.726
  506POPE   PO4 6139   1.652   9.578   3.955
  506POPE   GL1 6140   1.660   9.971   4.164
  506POPE   GL2 6141   1.962   9.938   4.126
  506POPE   C1A 6142   1.692   9.881   4.567
  506POPE   D2A 6143   2.003   9.526   4.673
  506POPE   C3A 6144   1.948   9.675   5.119
  506POPE   C4A 6145   1.870   9.830   5.582
  506POPE   C1B 6146   2.156   9.935   4.432
  506POPE   C2B 6147   2.248   9.978   4.828
  506POPE   C3B 6148   2.288   9.997   5.308
  506POPE   C4B 6149   2.180  10.196   5.754
  507POPE   NH3 6150   1.876  13.449   4.065
  507POPE   PO4 6151   1.726  13.132   4.050
  507POPE   GL1 6152   1.727  13.129   4.451
  507POPE   GL2 6153   1.993  13.271   4.495
  507POPE   C1A 6154   1.429  13.316   4.716
  507POPE   D2A 6155   1.191  13.324   5.148
  507POPE   C3A 6156   1.575  13.535   5.275
  507POPE   C4A 6157   1.907  13.595   5.613
  507POPE   C1B 6158   2.059  13.313   4.861
  507POPE   C2B 6159   2.125  13.267   5.272
  507POPE   C3B 6160   2.341  13.362   5.702
  507POPE   C4B 6161   2.377  13.143   6.133
  508POPE   NH3 6162   2.738   6.746   3.838
  508POPE   PO4 6163   2.442   6.920   3.900
  508POPE   GL1 6164   2.564   6.988   4.259
  508POPE   GL2 6165   2.844   6.916   4.255
  508POPE   C1A 6166   2.610   7.194   4.610
  508POPE   D2A 6167   2.630   7.247   5.070
  508POPE   C3A 6168   2.390   7.163   5.430
  508POPE   C4A 6169   2.268   6.998   5.863
  508POPE   C1B 6170   2.814   6.768   4.583
  508POPE   C2B 6171   2.703   6.753   4.977
  508POPE   C3B 6172   2.643   6.717   5.445
  508POPE   C4B 6173   2.823   6.620   5.907
  509POPE   NH3 6174   2.571   9.763   3.716
  509POPE   PO4 6175   2.316   9.990   3.832
  509POPE   GL1 6176   2.541   9.922   4.173
  509POPE   GL2 6177   2.498  10.191   4.273
  509POPE   C1A 6178   2.530   9.658   4.520
  509POPE   D2A 6179   2.403   9.501   4.966
  509POPE   C3A 6180   2.621   9.587   5.338
  509POPE   C4A 6181   2.901   9.662   5.713
  509POPE   C1B 6182   2.623  10.175   4.625
  509POPE   C2B 6183   2.692  10.158   5.038
  509POPE   C3B 6184   2.721  10.118   5.530
  509POPE   C4B 6185   2.849  10.089   6.002
  510POPE   NH3 6186   2.843  13.830   3.970
  510POPE   PO4 6187   2.865  13.501   4.100
  510POPE   GL1 6188   2.805  13.768   4.433
  510POPE   GL2 6189   2.506  13.783   4.316
  510POPE   C1A 6190   2.715  13.657   4.846
  510POPE   D2A 6191   2.589  13.486   5.285
  510POPE   C3A 6192   2.759  13.699   5.657
  510POPE   C4A 6193   2.954  13.956   6.031
  510POPE   C1B 6194   2.298  13.702   4.620
  510POPE   C2B 6195   2.226  13.745   5.035
  510POPE   C3B 6196   2.300  13.878   5.507
  510POPE   C4B 6197   2.427  13.994   5.968
  511POPE   NH3 6198   3.134   1.339   4.189
  511POPE   PO4 6199   2.878   1.123   4.299
  511POPE   GL1 6200   2.614   1.447   4.443
  511POPE   GL2 6201   2.859   1.623   4.409
  511POPE   C1A 6202   2.554   1.269   4.854
  511POPE   D2A 6203   2.410   0.956   5.231
  511POPE   C3A 6204   2.207   0.968   5.653
  511POPE   C4A 6205   2.209   1.018   6.149
  511POPE   C1B 6206   3.030   1.485   4.705
  511POPE   C2B 6207   2.979   1.409   5.100
  511POPE   C3B 6208   2.762   1.229   5.479
  511POPE   C4B 6209   2.657   1.159   5.953
  512POPE   NH3 6210   2.433   3.550   3.577
  512POPE   PO4 6211   2.340   3.842   3.748
  512POPE   GL1 6212   2.382   3.663   4.115
  512POPE   GL2 6213   2.580   3.469   4.017
  512POPE   C1A 6214   2.630   3.694   4.474
  512POPE   D2A 6215   2.996   3.764   4.796
  512POPE   C3A 6216   2.846   3.878   5.231
  512POPE   C4A 6217   2.645   3.969   5.683
  512POPE   C1B 6218   2.788   3.300   4.278
  512POPE   C2B 6219   2.913   3.208   4.657
  512POPE   C3B 6220   2.917   3.358   5.105
  512POPE   C4B 6221   2.732   3.486   5.543
  513POPE   NH3 6222   3.367   8.075   3.795
  513POPE   PO4 6223   3.304   8.416   3.818
  513POPE   GL1 6224   3.360   8.322   4.201
  513POPE   GL2 6225   3.114   8.157   4.227
  513POPE   C1A 6226   3.474   8.456   4.585
  513POPE   D2A 6227   3.542   8.565   5.055
  513POPE   C3A 6228   3.630   8.401   5.469
  513POPE   C4A 6229   3.764   8.118   5.855
  513POPE   C1B 6230   3.012   8.306   4.539
  513POPE   C2B 6231   3.050   8.362   4.937
  513POPE   C3B 6232   3.113   8.413   5.397
  513POPE   C4B 6233   3.281   8.298   5.843
  514POPE   NH3 6234   3.129  11.469   3.842
  514POPE   PO4 6235   3.163  11.123   3.758
  514POPE   GL1 6236   3.231  10.995   4.182
  514POPE   GL2 6237   3.351  11.261   4.197
  514POPE   C1A 6238   3.271  11.014   4.627
  514POPE   D2A 6239   3.174  11.156   5.109
  514POPE   C3A 6240   2.978  11.287   5.531
  514POPE   C4A 6241   3.131  11.286   6.011
  514POPE   C1B 6242   3.249  11.476   4.477
  514POPE   C2B 6243   3.162  11.677   4.830
  514POPE   C3B 6244   3.257  11.641   5.297
  514POPE   C4B 6245   3.478  11.439   5.689
  515POPE   NH3 6246   3.572  12.888   3.929
  515POPE   PO4 6247   3.347  12.617   3.875
  515POPE   GL1 6248   3.026  12.698   4.139
  515POPE   GL2 6249   3.222  12.925   4.248
  515POPE   C1A 6250   2.983  12.593   4.559
  515POPE   D2A 6251   3.306  12.751   4.900
  515POPE   C3A 6252   3.351  12.829   5.342
  515POPE   C4A 6253   2.985  12.751   5.640
  515POPE   C1B 6254   3.421  12.669   4.438
  515POPE   C2B 6255   3.555  12.363   4.689
  515POPE   C3B 6256   3.631  12.423   5.160
  515POPE   C4B 6257   3.870  12.741   5.429
  516POPE   NH3 6258   3.870   0.163   4.184
  516POPE   PO4 6259   4.061   0.455   4.151
  516POPE   GL1 6260   3.826   0.786   4.386
  516POPE   GL2 6261   3.740   0.500   4.473
  516POPE   C1A 6262   3.681   0.809   4.799
  516POPE   D2A 6263   3.553   0.312   4.855
  516POPE   C3A 6264   3.579   0.225   5.291
  516POPE   C4A 6265   3.662   0.262   5.745
  516POPE   C1B 6266   4.010   0.330   4.678
  516POPE   C2B 6267   4.373   0.292   4.895
  516POPE   C3B 6268   4.398   0.335   5.381
  516POPE   C4B 6269   4.193   0.303   5.840
  517POPE   NH3 6270   3.937   4.301   3.921
  517POPE   PO4 6271   4.202   4.151   4.104
  517POPE   GL1 6272   3.891   3.972   4.293
  517POPE   GL2 6273   4.057   3.716   4.239
  517POPE   C1A 6274   3.934   4.167   4.695
  517POPE   D2A 6275   4.072   4.309   5.157
  517POPE   C3A 6276   4.204   4.372   5.613
  517POPE   C4A 6277   4.271   4.363   6.119
  517POPE   C1B 6278   4.205   3.747   4.577
  517POPE   C2B 6279   4.186   3.827   4.984
  517POPE   C3B 6280   4.087   3.880   5.454
  517POPE   C4B 6281   3.963   4.021   5.910
  518POPE   NH3 6282   4.096  12.223   3.948
  518POPE   PO4 6283   3.777  12.325   4.058
  518POPE   GL1 6284   3.943  12.360   4.438
  518POPE   GL2 6285   3.976  12.055   4.416
  518POPE   C1A 6286   4.058  12.514   4.850
  518POPE   D2A 6287   4.324  12.593   5.286
  518POPE   C3A 6288   4.276  12.593   5.768
  518POPE   C4A 6289   4.102  12.601   6.248
  518POPE   C1B 6290   3.998  11.985   4.777
  518POPE   C2B 6291   4.025  12.094   5.177
  518POPE   C3B 6292   3.946  12.262   5.617
  518POPE   C4B 6293   4.199  12.143   6.021
  519POPE   NH3 6294   4.483  13.700   3.694
  519POPE   PO4 6295   4.215  13.509   3.805
  519POPE   GL1 6296   4.316  13.537   4.193
  519POPE   GL2 6297   4.222  13.836   4.188
  519POPE   C1A 6298   4.122  13.425   4.573
  519POPE   D2A 6299   3.897  13.459   5.010
  519POPE   C3A 6300   4.076  13.510   5.441
  519POPE   C4A 6301   4.143  13.426   5.916
  519POPE   C1B 6302   4.108  13.903   4.541
  519POPE   C2B 6303   4.009  13.952   4.946
  519POPE   C3B 6304   4.016   0.019   5.424
  519POPE   C4B 6305   3.940  13.875   5.892
  520POPE   NH3 6306   4.450   0.722   4.013
  520POPE   PO4 6307   4.687   0.471   4.058
  520POPE   GL1 6308   4.439   0.500   4.429
  520POPE   GL2 6309   4.397   0.206   4.379
  520POPE   C1A 6310   4.714   0.685   4.731
  520POPE   D2A 6311   5.047   0.869   5.066
  520POPE   C3A 6312   4.799   0.663   5.395
  520POPE   C4A 6313   4.465   0.713   5.736
  520POPE   C1B 6314   4.701   0.151   4.578
  520POPE   C2B 6315   4.847   0.040   4.938
  520POPE   C3B 6316   4.859   0.106   5.398
  520POPE   C4B 6317   4.709   0.273   5.809
  521POPE   NH3 6318   4.723   1.464   3.688
  521POPE   PO4 6319   4.988   1.693   3.761
  521POPE   GL1 6320   4.937   1.928   4.095
  521POPE   GL2 6321   5.086   2.077   4.245
  521POPE   C1A 6322   4.906   1.721   4.506
  521POPE   D2A 6323   4.612   1.644   4.917
  521POPE   C3A 6324   4.611   1.366   5.304
  521POPE   C4A 6325   4.628   1.367   5.790
  521POPE   C1B 6326   4.942   2.167   4.574
  521POPE   C2B 6327   4.804   2.125   4.970
  521POPE   C3B 6328   4.629   1.901   5.369
  521POPE   C4B 6329   4.528   1.858   5.851
  522POPE   NH3 6330   4.906   2.583   3.775
  522POPE   PO4 6331   4.766   2.338   3.979
  522POPE   GL1 6332   5.053   2.547   4.247
  522POPE   GL2 6333   4.859   2.802   4.184
  522POPE   C1A 6334   5.061   2.575   4.704
  522POPE   D2A 6335   5.147   2.869   5.105
  522POPE   C3A 6336   4.943   2.597   5.420
  522POPE   C4A 6337   4.638   2.310   5.672
  522POPE   C1B 6338   4.644   2.671   4.456
  522POPE   C2B 6339   4.497   2.506   4.812
  522POPE   C3B 6340   4.442   2.581   5.287
  522POPE   C4B 6341   4.576   2.799   5.722
  523POPE   NH3 6342   4.827   3.434   3.790
  523POPE   PO4 6343   4.878   3.091   3.778
  523POPE   GL1 6344   5.136   3.173   4.112
  523POPE   GL2 6345   4.859   3.294   4.229
  523POPE   C1A 6346   5.092   3.023   4.521
  523POPE   D2A 6347   4.714   2.951   4.835
  523POPE   C3A 6348   4.704   3.035   5.293
  523POPE   C4A 6349   5.023   3.052   5.677
  523POPE   C1B 6350   4.916   3.442   4.564
  523POPE   C2B 6351   4.964   3.366   4.967
  523POPE   C3B 6352   4.901   3.484   5.429
  523POPE   C4B 6353   4.781   3.535   5.907
  524POPE   NH3 6354   4.912   5.563   3.632
  524POPE   PO4 6355   4.905   5.779   3.902
  524POPE   GL1 6356   4.989   5.566   4.240
  524POPE   GL2 6357   4.723   5.672   4.385
  524POPE   C1A 6358   5.155   5.758   4.588
  524POPE   D2A 6359   5.126   5.938   5.059
  524POPE   C3A 6360   5.142   5.823   5.507
  524POPE   C4A 6361   5.115   5.797   5.992
  524POPE   C1B 6362   4.732   5.653   4.761
  524POPE   C2B 6363   4.718   5.648   5.181
  524POPE   C3B 6364   4.704   5.583   5.661
  524POPE   C4B 6365   4.692   5.523   6.151
  525POPE   NH3 6366   4.696   6.452   3.668
  525POPE   PO4 6367   4.591   6.216   3.919
  525POPE   GL1 6368   4.879   6.076   4.268
  525POPE   GL2 6369   4.904   6.358   4.284
  525POPE   C1A 6370   4.809   6.108   4.715
  525POPE   D2A 6371   4.725   6.265   5.175
  525POPE   C3A 6372   4.695   6.082   5.601
  525POPE   C4A 6373   4.647   6.041   6.081
  525POPE   C1B 6374   4.600   6.433   4.481
  525POPE   C2B 6375   4.344   6.436   4.815
  525POPE   C3B 6376   4.247   6.359   5.292
  525POPE   C4B 6377   4.239   6.260   5.759
  526POPE   NH3 6378   4.644   8.404   3.736
  526POPE   PO4 6379   4.963   8.296   3.757
  526POPE   GL1 6380   4.871   8.344   4.156
  526POPE   GL2 6381   5.157   8.446   4.221
  526POPE   C1A 6382   4.531   8.310   4.434
  526POPE   D2A 6383   4.347   8.470   4.857
  526POPE   C3A 6384   4.467   8.576   5.279
  526POPE   C4A 6385   4.711   8.647   5.696
  526POPE   C1B 6386   5.224   8.467   4.579
  526POPE   C2B 6387   5.253   8.368   4.972
  526POPE   C3B 6388   5.111   8.370   5.419
  526POPE   C4B 6389   5.005   8.264   5.875
  527POPE   NH3 6390   5.020  10.188   3.797
  527POPE   PO4 6391   5.017  10.465   3.995
  527POPE   GL1 6392   5.033  10.431   4.424
  527POPE   GL2 6393   4.828  10.213   4.335
  527POPE   C1A 6394   5.254  10.451   4.813
  527POPE   D2A 6395   5.543  10.481   5.225
  527POPE   C3A 6396   5.227  10.362   5.539
  527POPE   C4A 6397   4.854  10.192   5.810
  527POPE   C1B 6398   4.614   9.956   4.495
  527POPE   C2B 6399   4.447   9.774   4.820
  527POPE   C3B 6400   4.541   9.806   5.293
  527POPE   C4B 6401   4.674   9.705   5.765
  528POPE   NH3 6402   4.849  11.437   3.833
  528POPE   PO4 6403   4.549  11.394   4.015
  528POPE   GL1 6404   4.873  11.437   4.308
  528POPE   GL2 6405   4.877  11.142   4.351
  528POPE   C1A 6406   4.655  11.582   4.662
  528POPE   D2A 6407   4.371  11.713   5.042
  528POPE   C3A 6408   4.601  11.615   5.443
  528POPE   C4A 6409   4.482  11.470   5.899
  528POPE   C1B 6410   4.803  11.143   4.726
  528POPE   C2B 6411   4.785  11.198   5.144
  528POPE   C3B 6412   4.782  11.177   5.633
  528POPE   C4B 6413   4.672  10.992   6.088
  529POPE   NH3 6414   4.593  12.128   3.985
  529POPE   PO4 6415   4.809  11.873   4.108
  529POPE   GL1 6416   4.825  12.154   4.399
  529POPE   GL2 6417   5.072  12.302   4.380
  529POPE   C1A 6418   4.705  12.097   4.820
  529POPE   D2A 6419   4.534  12.129   5.291
  529POPE   C3A 6420   4.626  12.042   5.737
  529POPE   C4A 6421   4.938  11.680   5.838
  529POPE   C1B 6422   5.116  12.353   4.751
  529POPE   C2B 6423   5.109  12.201   5.145
  529POPE   C3B 6424   5.124  12.160   5.634
  529POPE   C4B 6425   4.986  12.114   6.112
  530POPE   NH3 6426   5.670   0.102   3.981
  530POPE   PO4 6427   5.674   0.388   4.183
  530POPE   GL1 6428   5.691   0.058   4.467
  530POPE   GL2 6429   5.434  13.965   4.361
  530POPE   C1A 6430   5.654   0.214   4.878
  530POPE   D2A 6431   5.728   0.350   5.357
  530POPE   C3A 6432   5.660   0.377   5.816
  530POPE   C4A 6433   5.863   0.253   6.251
  530POPE   C1B 6434   5.166   0.175   4.493
  530POPE   C2B 6435   5.164   0.419   4.820
  530POPE   C3B 6436   5.226   0.432   5.290
  530POPE   C4B 6437   5.166   0.496   5.783
  531POPE   NH3 6438   5.404   5.803   3.766
  531POPE   PO4 6439   5.360   5.506   3.917
  531POPE   GL1 6440   5.525   5.564   4.289
  531POPE   GL2 6441   5.734   5.771   4.216
  531POPE   C1A 6442   5.572   5.515   4.726
  531POPE   D2A 6443   5.527   5.625   5.213
  531POPE   C3A 6444   5.478   5.422   5.630
  531POPE   C4A 6445   5.494   5.412   6.121
  531POPE   C1B 6446   5.909   5.796   4.556
  531POPE   C2B 6447   5.962   5.777   4.979
  531POPE   C3B 6448   6.016   5.678   5.452
  531POPE   C4B 6449   5.958   5.491   5.903
  532POPE   NH3 6450   5.271   6.232   3.563
  532POPE   PO4 6451   5.107   6.235   3.854
  532POPE   GL1 6452   5.323   6.263   4.191
  532POPE   GL2 6453   5.324   5.958   4.193
  532POPE   C1A 6454   5.233   6.355   4.620
  532POPE   D2A 6455   5.167   6.493   5.091
  532POPE   C3A 6456   5.091   6.372   5.533
  532POPE   C4A 6457   5.033   6.349   6.027
  532POPE   C1B 6458   5.524   6.006   4.496
  532POPE   C2B 6459   5.570   6.071   4.887
  532POPE   C3B 6460   5.512   6.159   5.344
  532POPE   C4B 6461   5.502   6.346   5.802
  533POPE   NH3 6462   5.584   7.900   3.780
  533POPE   PO4 6463   5.407   8.149   3.955
  533POPE   GL1 6464   5.389   7.948   4.300
  533POPE   GL2 6465   5.406   7.688   4.154
  533POPE   C1A 6466   5.459   7.930   4.727
  533POPE   D2A 6467   5.529   7.999   5.220
  533POPE   C3A 6468   5.454   8.109   5.669
  533POPE   C4A 6469   5.393   8.071   6.156
  533POPE   C1B 6470   5.525   7.522   4.448
  533POPE   C2B 6471   5.413   7.400   4.812
  533POPE   C3B 6472   5.406   7.514   5.266
  533POPE   C4B 6473   5.484   7.626   5.734
  534POPE   NH3 6474   5.536  11.956   3.771
  534POPE   PO4 6475   5.274  11.734   3.842
  534POPE   GL1 6476   5.308  11.969   4.206
  534POPE   GL2 6477   5.607  11.883   4.223
  534POPE   C1A 6478   5.209  11.913   4.635
  534POPE   D2A 6479   5.422  11.781   5.069
  534POPE   C3A 6480   5.580  12.083   5.384
  534POPE   C4A 6481   5.909  12.187   5.726
  534POPE   C1B 6482   5.650  12.088   4.528
  534POPE   C2B 6483   5.577  12.257   4.893
  534POPE   C3B 6484   5.455  12.552   5.271
  534POPE   C4B 6485   5.486  12.539   5.768
  535POPE   NH3 6486   6.035   6.180   3.836
  535POPE   PO4 6487   5.701   6.172   3.937
  535POPE   GL1 6488   5.902   6.167   4.317
  535POPE   GL2 6489   6.133   6.318   4.261
  535POPE   C1A 6490   6.024   6.238   4.741
  535POPE   D2A 6491   6.153   6.357   5.202
  535POPE   C3A 6492   5.950   6.179   5.580
  535POPE   C4A 6493   5.638   5.868   5.813
  535POPE   C1B 6494   6.387   6.160   4.470
  535POPE   C2B 6495   6.388   5.830   4.713
  535POPE   C3B 6496   6.408   5.934   5.171
  535POPE   C4B 6497   6.449   6.107   5.611
  536POPE   NH3 6498   6.369   9.374   3.785
  536POPE   PO4 6499   6.079   9.497   3.928
  536POPE   GL1 6500   6.257   9.730   4.235
  536POPE   GL2 6501   6.516   9.583   4.195
  536POPE   C1A 6502   6.141   9.587   4.644
  536POPE   D2A 6503   5.955   9.408   5.073
  536POPE   C3A 6504   6.031   9.720   5.418
  536POPE   C4A 6505   6.057   9.804   5.906
  536POPE   C1B 6506   6.616   9.625   4.545
  536POPE   C2B 6507   6.579   9.603   4.955
  536POPE   C3B 6508   6.525   9.590   5.428
  536POPE   C4B 6509   6.521   9.590   5.923
  537POPE   NH3 6510   5.706  11.410   4.059
  537POPE   PO4 6511   6.019  11.273   3.939
  537POPE   GL1 6512   6.160  11.071   4.262
  537POPE   GL2 6513   6.353  11.314   4.299
  537POPE   C1A 6514   5.880  11.140   4.599
  537POPE   D2A 6515   5.644  11.296   5.014
  537POPE   C3A 6516   6.040  11.281   5.275
  537POPE   C4A 6517   6.109  11.294   5.772
  537POPE   C1B 6518   6.359  11.241   4.654
  537POPE   C2B 6519   6.392  11.005   4.983
  537POPE   C3B 6520   6.412  10.970   5.454
  537POPE   C4B 6521   6.445  10.938   5.934
  538POPE   NH3 6522   5.723  13.318   3.968
  538POPE   PO4 6523   5.695  13.607   4.187
  538POPE   GL1 6524   5.948  13.348   4.391
  538POPE   GL2 6525   6.204  13.497   4.279
  538POPE   C1A 6526   5.884  13.473   4.824
  538POPE   D2A 6527   5.793  13.814   5.194
  538POPE   C3A 6528   5.956  13.461   5.445
  538POPE   C4A 6529   5.957  13.344   5.916
  538POPE   C1B 6530   6.263  13.650   4.622
  538POPE   C2B 6531   6.269  13.760   5.035
  538POPE   C3B 6532   6.250  13.883   5.517
  538POPE   C4B 6533   6.264  13.845   6.024
  539POPE   NH3 6534   6.532   2.714   3.918
  539POPE   PO4 6535   6.178   2.679   3.893
  539POPE   GL1 6536   6.127   2.848   4.300
  539POPE   GL2 6537   6.405   2.746   4.362
  539POPE   C1A 6538   5.886   2.911   4.691
  539POPE   D2A 6539   5.748   2.958   5.183
  539POPE   C3A 6540   5.867   2.708   5.554
  539POPE   C4A 6541   5.803   2.656   6.028
  539POPE   C1B 6542   6.283   2.636   4.690
  539POPE   C2B 6543   6.126   2.628   5.073
  539POPE   C3B 6544   6.373   2.713   5.479
  539POPE   C4B 6545   6.682   2.564   5.849
  540POPE   NH3 6546   6.871   2.375   3.784
  540POPE   PO4 6547   7.149   2.353   3.975
  540POPE   GL1 6548   6.867   2.553   4.220
  540POPE   GL2 6549   7.112   2.642   4.346
  540POPE   C1A 6550   6.681   2.417   4.568
  540POPE   D2A 6551   6.506   2.316   4.996
  540POPE   C3A 6552   6.749   2.367   5.383
  540POPE   C4A 6553   7.132   2.384   5.677
  540POPE   C1B 6554   7.119   2.545   4.702
  540POPE   C2B 6555   7.119   2.304   5.037
  540POPE   C3B 6556   7.131   1.966   5.387
  540POPE   C4B 6557   7.152   1.711   5.816
  541POPE   NH3 6558   8.138   2.977   3.919
  541POPE   PO4 6559   7.865   2.890   3.722
  541POPE   GL1 6560   7.743   2.863   4.157
  541POPE   GL2 6561   7.510   2.686   4.104
  541POPE   C1A 6562   7.827   2.851   4.584
  541POPE   D2A 6563   7.859   2.890   5.079
  541POPE   C3A 6564   7.831   2.801   5.532
  541POPE   C4A 6565   7.583   2.564   5.910
  541POPE   C1B 6566   7.520   2.526   4.445
  541POPE   C2B 6567   7.573   2.492   4.863
  541POPE   C3B 6568   7.534   2.391   5.342
  541POPE   C4B 6569   7.536   2.060   5.722
  542POPE   NH3 6570   7.952   4.346   3.697
  542POPE   PO4 6571   7.845   4.140   3.939
  542POPE   GL1 6572   8.062   3.989   4.238
  542POPE   GL2 6573   8.046   3.697   4.233
  542POPE   C1A 6574   7.813   4.089   4.599
  542POPE   D2A 6575   7.549   4.105   5.026
  542POPE   C3A 6576   7.896   4.262   5.302
  542POPE   C4A 6577   8.310   4.341   5.543
  542POPE   C1B 6578   7.934   3.631   4.569
  542POPE   C2B 6579   7.967   3.747   4.962
  542POPE   C3B 6580   8.036   3.813   5.435
  542POPE   C4B 6581   7.931   3.934   5.884
  543POPE   NH3 6582   8.158   0.565   3.926
  543POPE   PO4 6583   8.484   0.688   3.919
  543POPE   GL1 6584   8.545   0.785   4.290
  543POPE   GL2 6585   8.803   0.880   4.320
  543POPE   C1A 6586   8.468   0.820   4.706
  543POPE   D2A 6587   8.570   0.753   5.174
  543POPE   C3A 6588   8.203   0.848   5.417
  543POPE   C4A 6589   7.894   0.984   5.788
  543POPE   C1B 6590   8.882   1.066   4.634
  543POPE   C2B 6591   8.826   1.204   5.015
  543POPE   C3B 6592   8.671   1.192   5.466
  543POPE   C4B 6593   8.487   0.906   5.813
  544POPE   NH3 6594   8.439   1.684   3.895
  544POPE   PO4 6595   8.752   1.662   4.024
  544POPE   GL1 6596   8.762   1.570   4.431
  544POPE   GL2 6597   8.629   1.300   4.386
  544POPE   C1A 6598   8.686   1.684   4.847
  544POPE   D2A 6599   8.428   1.661   5.270
  544POPE   C3A 6600   8.498   1.703   5.726
  544POPE   C4A 6601   8.603   1.822   6.192
  544POPE   C1B 6602   8.457   1.279   4.711
  544POPE   C2B 6603   8.283   1.225   5.084
  544POPE   C3B 6604   8.182   1.329   5.561
  544POPE   C4B 6605   8.254   1.281   6.046
  545POPE   NH3 6606   8.667   4.291   3.808
  545POPE   PO4 6607   8.363   4.245   3.957
  545POPE   GL1 6608   8.559   4.523   4.205
  545POPE   GL2 6609   8.736   4.265   4.273
  545POPE   C1A 6610   8.453   4.668   4.600
  545POPE   D2A 6611   8.182   4.352   4.881
  545POPE   C3A 6612   8.317   4.714   5.154
  545POPE   C4A 6613   8.541   5.107   5.357
  545POPE   C1B 6614   8.674   4.260   4.636
  545POPE   C2B 6615   8.672   4.378   5.028
  545POPE   C3B 6616   8.745   4.596   5.449
  545POPE   C4B 6617   8.748   4.325   5.842
  546POPE   NH3 6618   8.813   6.618   3.811
  546POPE   PO4 6619   9.116   6.790   3.837
  546POPE   GL1 6620   8.886   6.927   4.181
  546POPE   GL2 6621   8.927   6.614   4.264
  546POPE   C1A 6622   8.781   6.988   4.611
  546POPE   D2A 6623   8.970   6.718   4.988
  546POPE   C3A 6624   8.807   6.691   5.422
  546POPE   C4A 6625   8.513   6.751   5.805
  546POPE   C1B 6626   8.743   6.526   4.573
  546POPE   C2B 6627   8.479   6.642   4.876
  546POPE   C3B 6628   8.298   6.737   5.308
  546POPE   C4B 6629   8.008   6.832   5.694
  547POPE   NH3 6630   8.399  11.285   3.670
  547POPE   PO4 6631   8.346  11.512   3.915
  547POPE   GL1 6632   8.561  11.148   4.082
  547POPE   GL2 6633   8.308  11.043   4.120
  547POPE   C1A 6634   8.696  11.306   4.447
  547POPE   D2A 6635   8.754  11.674   4.761
  547POPE   C3A 6636   8.662  11.683   5.209
  547POPE   C4A 6637   8.560  11.315   5.524
  547POPE   C1B 6638   8.298  11.064   4.486
  547POPE   C2B 6639   8.315  11.100   4.892
  547POPE   C3B 6640   8.166  11.022   5.338
  547POPE   C4B 6641   8.215  11.111   5.812
  548POPE   NH3 6642   7.963  11.029   3.821
  548POPE   PO4 6643   7.871  11.363   3.843
  548POPE   GL1 6644   7.909  11.560   4.209
  548POPE   GL2 6645   8.164  11.436   4.318
  548POPE   C1A 6646   8.010  11.879   4.496
  548POPE   D2A 6647   8.243  11.613   4.855
  548POPE   C3A 6648   8.159  11.546   5.306
  548POPE   C4A 6649   8.050  11.603   5.790
  548POPE   C1B 6650   8.420  11.688   4.434
  548POPE   C2B 6651   8.456  12.056   4.635
  548POPE   C3B 6652   8.334  12.063   5.105
  548POPE   C4B 6653   8.388  11.918   5.589
  549POPE   NH3 6654   8.977   0.870   3.902
  549POPE   PO4 6655   9.308   0.976   3.867
  549POPE   GL1 6656   9.457   1.080   4.178
  549POPE   GL2 6657   9.732   1.066   4.242
  549POPE   C1A 6658   9.230   0.810   4.464
  549POPE   D2A 6659   8.988   0.676   4.879
  549POPE   C3A 6660   9.065   0.820   5.316
  549POPE   C4A 6661   9.364   0.881   5.695
  549POPE   C1B 6662   9.616   1.029   4.587
  549POPE   C2B 6663   9.321   1.079   4.877
  549POPE   C3B 6664   9.545   1.072   5.281
  549POPE   C4B 6665   9.921   0.854   5.526
  550POPE   NH3 6666   9.511   4.240   3.618
  550POPE   PO4 6667   9.173   4.286   3.678
  550POPE   GL1 6668   9.078   4.393   4.014
  550POPE   GL2 6669   8.964   4.642   4.046
  550POPE   C1A 6670   9.280   4.309   4.364
  550POPE   D2A 6671   9.360   4.118   4.812
  550POPE   C3A 6672   9.478   3.841   5.156
  550POPE   C4A 6673   9.484   3.770   5.637
  550POPE   C1B 6674   8.932   4.638   4.418
  550POPE   C2B 6675   9.084   4.545   4.796
  550POPE   C3B 6676   9.134   4.312   5.235
  550POPE   C4B 6677   9.260   4.279   5.711
  551POPE   NH3 6678   9.018   8.094   3.628
  551POPE   PO4 6679   8.739   7.985   3.818
  551POPE   GL1 6680   8.991   7.748   4.091
  551POPE   GL2 6681   9.193   7.939   4.018
  551POPE   C1A 6682   9.202   7.800   4.491
  551POPE   D2A 6683   9.036   7.945   4.920
  551POPE   C3A 6684   8.895   7.925   5.349
  551POPE   C4A 6685   8.744   7.922   5.813
  551POPE   C1B 6686   9.122   8.198   4.271
  551POPE   C2B 6687   9.146   8.371   4.651
  551POPE   C3B 6688   9.151   8.382   5.152
  551POPE   C4B 6689   9.224   8.187   5.618
  552POPE   NH3 6690   9.095   8.996   4.009
  552POPE   PO4 6691   9.388   8.821   3.918
  552POPE   GL1 6692   9.265   8.622   4.246
  552POPE   GL2 6693   9.476   8.458   4.289
  552POPE   C1A 6694   9.157   8.886   4.574
  552POPE   D2A 6695   8.840   9.099   4.886
  552POPE   C3A 6696   9.121   8.945   5.227
  552POPE   C4A 6697   9.210   9.045   5.693
  552POPE   C1B 6698   9.569   8.574   4.636
  552POPE   C2B 6699   9.612   8.621   5.049
  552POPE   C3B 6700   9.461   8.636   5.512
  552POPE   C4B 6701   9.214   8.585   5.940
  553POPE   NH3 6702  10.004   3.977   4.058
  553POPE   PO4 6703   9.875   4.292   3.955
  553POPE   GL1 6704   9.718   4.508   4.247
  553POPE   GL2 6705   9.810   4.785   4.181
  553POPE   C1A 6706   9.659   4.512   4.663
  553POPE   D2A 6707   9.554   4.557   5.138
  553POPE   C3A 6708   9.687   4.236   5.430
  553POPE   C4A 6709   9.729   4.144   5.896
  553POPE   C1B 6710  10.039   4.788   4.479
  553POPE   C2B 6711   9.992   4.845   4.891
  553POPE   C3B 6712   9.979   4.787   5.379
  553POPE   C4B 6713  10.015   4.630   5.862
  554POPE   NH3 6714   9.763   7.428   3.903
  554POPE   PO4 6715  10.021   7.254   4.070
  554POPE   GL1 6716  10.135   7.565   4.307
  554POPE   GL2 6717   9.879   7.731   4.258
  554POPE   C1A 6718  10.023   7.382   4.710
  554POPE   D2A 6719   9.927   7.152   5.156
  554POPE   C3A 6720   9.954   7.128   5.627
  554POPE   C4A 6721   9.914   7.107   6.122
  554POPE   C1B 6722   9.744   7.760   4.604
  554POPE   C2B 6723   9.879   7.784   4.997
  554POPE   C3B 6724   9.964   7.651   5.431
  554POPE   C4B 6725  10.009   7.558   5.901
  555POPE   NH3 6726  10.055  12.160   3.670
  555POPE   PO4 6727  10.373  12.156   3.788
  555POPE   GL1 6728  10.545  12.179   4.174
  555POPE   GL2 6729  10.410  11.925   4.267
  555POPE   C1A 6730  10.464  12.461   4.514
  555POPE   D2A 6731  10.363  12.762   4.911
  555POPE   C3A 6732  10.312  12.625   5.357
  555POPE   C4A 6733  10.132  12.295   5.699
  555POPE   C1B 6734  10.266  12.033   4.603
  555POPE   C2B 6735  10.113  12.140   4.980
  555POPE   C3B 6736   9.857  12.416   5.285
  555POPE   C4B 6737   9.728  12.619   5.727
  556POPE   NH3 6738  10.598   5.216   3.802
  556POPE   PO4 6739  10.388   5.159   4.065
  556POPE   GL1 6740  10.800   5.024   4.189
  556POPE   GL2 6741  10.845   5.302   4.253
  556POPE   C1A 6742  10.730   4.816   4.560
  556POPE   D2A 6743  10.437   4.592   4.882
  556POPE   C3A 6744  10.504   4.748   5.300
  556POPE   C4A 6745  10.940   4.764   5.515
  556POPE   C1B 6746  10.763   5.290   4.611
  556POPE   C2B 6747  10.712   5.105   4.981
  556POPE   C3B 6748  10.745   5.223   5.445
  556POPE   C4B 6749  10.662   5.373   5.905
  557POPE   NH3 6750  10.571   5.645   4.107
  557POPE   PO4 6751  10.906   5.724   4.018
  557POPE   GL1 6752  10.895   6.025   4.300
  557POPE   GL2 6753  10.614   6.110   4.241
  557POPE   C1A 6754  10.753   5.806   4.654
  557POPE   D2A 6755  10.585   5.578   5.052
  557POPE   C3A 6756  10.735   5.813   5.413
  557POPE   C4A 6757  10.927   6.221   5.634
  557POPE   C1B 6758  10.588   6.340   4.528
  557POPE   C2B 6759  10.600   6.474   4.917
  557POPE   C3B 6760  10.516   6.278   5.346
  557POPE   C4B 6761  10.439   6.014   5.777
  558POPE   NH3 6762  10.700  11.795   3.901
  558POPE   PO4 6763  10.978  11.667   4.069
  558POPE   GL1 6764  10.714  11.602   4.318
  558POPE   GL2 6765  10.693  11.327   4.385
  558POPE   C1A 6766  10.732  11.948   4.608
  558POPE   D2A 6767  10.592  12.263   4.955
  558POPE   C3A 6768  10.545  12.187   5.404
  558POPE   C4A 6769  10.582  12.483   5.811
  558POPE   C1B 6770  10.823  11.431   4.714
  558POPE   C2B 6771  11.000  11.664   5.012
  558POPE   C3B 6772  10.971  11.838   5.467
  558POPE   C4B 6773  10.696  11.993   5.845
  559POPE   NH3 6774  11.329   7.290   3.883
  559POPE   PO4 6775  11.258   7.062   4.126
  559POPE   GL1 6776  11.673   7.159   4.281
  559POPE   GL2 6777  11.612   7.443   4.193
  559POPE   C1A 6778  11.542   7.227   4.697
  559POPE   D2A 6779  11.048   7.235   4.718
  559POPE   C3A 6780  11.219   7.311   5.148
  559POPE   C4A 6781  11.327   7.420   5.618
  559POPE   C1B 6782  11.373   7.576   4.439
  559POPE   C2B 6783  11.335   7.694   4.832
  559POPE   C3B 6784  11.515   7.740   5.273
  559POPE   C4B 6785  11.711   7.774   5.721
  560POPE   NH3 6786  11.401   8.906   3.920
  560POPE   PO4 6787  11.050   8.866   3.929
  560POPE   GL1 6788  11.125   9.121   4.244
  560POPE   GL2 6789  11.302   8.916   4.381
  560POPE   C1A 6790  11.015   9.390   4.552
  560POPE   D2A 6791  11.020   9.542   5.008
  560POPE   C3A 6792  11.053   9.427   5.442
  560POPE   C4A 6793  11.102   9.273   5.891
  560POPE   C1B 6794  11.325   9.033   4.735
  560POPE   C2B 6795  11.349   9.110   5.146
  560POPE   C3B 6796  11.388   8.949   5.603
  560POPE   C4B 6797  11.235   8.721   6.015
  561POPE   NH3 6798  11.423   9.478   3.659
  561POPE   PO4 6799  11.159   9.356   3.837
  561POPE   GL1 6800  11.260   9.549   4.137
  561POPE   GL2 6801  11.002   9.705   4.193
  561POPE   C1A 6802  11.504   9.357   4.446
  561POPE   D2A 6803  11.721   9.363   4.885
  561POPE   C3A 6804  11.503   9.597   5.225
  561POPE   C4A 6805  11.486   9.551   5.708
  561POPE   C1B 6806  10.983   9.879   4.518
  561POPE   C2B 6807  10.979  10.027   4.909
  561POPE   C3B 6808  11.005   9.944   5.383
  561POPE   C4B 6809  11.071   9.807   5.841
  562POPE   NH3 6810  11.390  11.340   3.962
  562POPE   PO4 6811  11.092  11.174   3.999
  562POPE   GL1 6812  11.136  11.344   4.376
  562POPE   GL2 6813  11.345  11.573   4.362
  562POPE   C1A 6814  11.257  11.265   4.772
  562POPE   D2A 6815  11.337  11.361   5.244
  562POPE   C3A 6816  11.275  11.286   5.689
  562POPE   C4A 6817  11.241  11.262   6.172
  562POPE   C1B 6818  11.552  11.628   4.687
  562POPE   C2B 6819  11.733  11.625   5.082
  562POPE   C3B 6820  11.655  11.616   5.585
  562POPE   C4B 6821  11.291  11.712   5.940
  563POPE   NH3 6822  11.392   9.958   3.844
  563POPE   PO4 6823  11.656   9.777   3.990
  563POPE   GL1 6824  11.385   9.931   4.309
  563POPE   GL2 6825  11.554  10.180   4.252
  563POPE   C1A 6826  11.394   9.795   4.726
  563POPE   D2A 6827  11.454  10.092   5.130
  563POPE   C3A 6828  11.490  10.052   5.597
  563POPE   C4A 6829  11.415  10.072   6.087
  563POPE   C1B 6830  11.754  10.081   4.547
  563POPE   C2B 6831  11.866   9.872   4.889
  563POPE   C3B 6832  11.921   9.874   5.361
  563POPE   C4B 6833  12.017  10.261   5.627
  564POPE   NH3 6834  12.105  13.588   3.909
  564POPE   PO4 6835  11.843  13.360   3.945
  564POPE   GL1 6836  12.010  13.189   4.291
  564POPE   GL2 6837  12.275  13.271   4.200
  564POPE   C1A 6838  12.026  13.396   4.669
  564POPE   D2A 6839  12.020  13.846   4.891
  564POPE   C3A 6840  12.071  13.895   5.352
  564POPE   C4A 6841  12.390  13.656   5.626
  564POPE   C1B 6842  12.478  13.412   4.465
  564POPE   C2B 6843  12.555  13.386   4.862
  564POPE   C3B 6844  12.495  13.258   5.304
  564POPE   C4B 6845  12.400  13.140   5.759
  565POPE   NH3 6846  12.378   2.056   3.652
  565POPE   PO4 6847  12.227   1.908   3.927
  565POPE   GL1 6848  12.411   2.037   4.242
  565POPE   GL2 6849  12.312   2.294   4.303
  565POPE   C1A 6850  12.553   1.866   4.611
  565POPE   D2A 6851  12.654   1.845   5.090
  565POPE   C3A 6852  12.624   1.840   5.552
  565POPE   C4A 6853  12.676   1.840   6.027
  565POPE   C1B 6854  12.205   2.188   4.635
  565POPE   C2B 6855  12.179   1.989   4.997
  565POPE   C3B 6856  12.148   1.982   5.476
  565POPE   C4B 6857  12.178   1.945   5.973
  566POPE   NH3 6858  12.437   2.735   4.079
  566POPE   PO4 6859  12.532   3.067   4.129
  566POPE   GL1 6860  12.263   3.045   4.389
  566POPE   GL2 6861  11.981   3.043   4.385
  566POPE   C1A 6862  12.305   2.657   4.598
  566POPE   D2A 6863  12.093   2.487   4.996
  566POPE   C3A 6864  12.317   2.482   5.399
  566POPE   C4A 6865  12.508   2.286   5.817
  566POPE   C1B 6866  12.005   2.975   4.741
  566POPE   C2B 6867  12.330   2.987   4.993
  566POPE   C3B 6868  12.417   3.008   5.456
  566POPE   C4B 6869  12.270   2.740   5.839
  567POPE   NH3 6870  12.067   3.147   3.953
  567POPE   PO4 6871  11.835   3.407   3.936
  567POPE   GL1 6872  11.919   3.486   4.313
  567POPE   GL2 6873  12.017   3.765   4.289
  567POPE   C1A 6874  12.150   3.423   4.659
  567POPE   D2A 6875  12.486   3.651   4.932
  567POPE   C3A 6876  12.327   3.501   5.331
  567POPE   C4A 6877  11.997   3.297   5.635
  567POPE   C1B 6878  12.119   3.902   4.629
  567POPE   C2B 6879  12.193   4.062   5.016
  567POPE   C3B 6880  12.189   4.261   5.450
  567POPE   C4B 6881  12.276   4.040   5.862
  568POPE   NH3 6882  12.557   4.303   4.182
  568POPE   PO4 6883  12.280   4.105   4.072
  568POPE   GL1 6884  11.960   4.205   4.309
  568POPE   GL2 6885  11.827   4.436   4.196
  568POPE   C1A 6886  12.221   4.385   4.623
  568POPE   D2A 6887  12.496   4.635   4.938
  568POPE   C3A 6888  12.520   4.720   5.389
  568POPE   C4A 6889  12.338   4.729   5.840
  568POPE   C1B 6890  11.818   4.588   4.534
  568POPE   C2B 6891  11.945   4.656   4.932
  568POPE   C3B 6892  12.005   4.728   5.385
  568POPE   C4B 6893  11.820   4.604   5.796
  569POPE   NH3 6894  12.335   7.484   3.977
  569POPE   PO4 6895  12.010   7.338   3.972
  569POPE   GL1 6896  12.004   7.441   4.402
  569POPE   GL2 6897  12.265   7.313   4.395
  569POPE   C1A 6898  11.976   7.422   4.851
  569POPE   D2A 6899  11.721   7.265   5.252
  569POPE   C3A 6900  12.053   7.427   5.524
  569POPE   C4A 6901  12.248   7.782   5.807
  569POPE   C1B 6902  12.428   7.333   4.718
  569POPE   C2B 6903  12.476   7.410   5.120
  569POPE   C3B 6904  12.570   7.417   5.588
  569POPE   C4B 6905  12.423   7.288   6.040
  570POPE   NH3 6906  12.589  12.752   3.612
  570POPE   PO4 6907  12.751  13.052   3.683
  570POPE   GL1 6908  12.901  13.125   4.083
  570POPE   GL2 6909  12.955  12.821   4.066
  570POPE   C1A 6910  12.815  13.078   4.518
  570POPE   D2A 6911  12.713  12.900   4.990
  570POPE   C3A 6912  12.727  12.837   5.468
  570POPE   C4A 6913  12.824  12.893   5.945
  570POPE   C1B 6914  13.143  12.763   4.388
  570POPE   C2B 6915  13.161  12.736   4.803
  570POPE   C3B 6916  13.164  12.621   5.274
  570POPE   C4B 6917  13.227  12.561   5.761
  571POPE   NH3 6918  12.744   6.099   4.033
  571POPE   PO4 6919  12.503   6.333   3.958
  571POPE   GL1 6920  12.640   6.522   4.316
  571POPE   GL2 6921  12.820   6.336   4.419
  571POPE   C1A 6922  12.465   6.504   4.736
  571POPE   D2A 6923  12.292   6.477   5.208
  571POPE   C3A 6924  12.290   6.447   5.685
  571POPE   C4A 6925  12.291   6.348   6.173
  571POPE   C1B 6926  12.833   6.234   4.774
  571POPE   C2B 6927  12.733   6.149   5.166
  571POPE   C3B 6928  12.714   6.058   5.640
  571POPE   C4B 6929  12.684   5.971   6.128
  572POPE   NH3 6930  12.908   6.629   3.913
  572POPE   PO4 6931  13.132   6.487   4.127
  572POPE   GL1 6932  12.914   6.852   4.304
  572POPE   GL2 6933  13.083   7.035   4.230
  572POPE   C1A 6934  12.927   6.721   4.713
  572POPE   D2A 6935  13.044   6.593   5.161
  572POPE   C3A 6936  12.725   6.545   5.478
  572POPE   C4A 6937  12.728   6.446   5.971
  572POPE   C1B 6938  13.284   6.953   4.532
  572POPE   C2B 6939  13.451   6.871   4.898
  572POPE   C3B 6940  13.431   6.851   5.378
  572POPE   C4B 6941  13.154   6.605   5.704
  573POPE   NH3 6942  13.719   2.391   3.901
  573POPE   PO4 6943  13.512   2.107   3.880
  573POPE   GL1 6944  13.694   2.018   4.206
  573POPE   GL2 6945  13.745   1.734   4.212
  573POPE   C1A 6946  13.527   2.043   4.597
  573POPE   D2A 6947  13.531   1.951   5.077
  573POPE   C3A 6948  13.470   2.077   5.522
  573POPE   C4A 6949  13.440   2.170   6.004
  573POPE   C1B 6950  13.861   1.719   4.567
  573POPE   C2B 6951  13.885   1.601   4.960
  573POPE   C3B 6952  13.754   1.644   5.424
  573POPE   C4B 6953  13.557   1.679   5.865
  574POPE   NH3 6954  13.786   3.526   3.897
  574POPE   PO4 6955  13.469   3.395   3.928
  574POPE   GL1 6956  13.714   3.254   4.272
  574POPE   GL2 6957  13.729   3.582   4.352
  574POPE   C1A 6958  13.601   2.949   4.571
  574POPE   D2A 6959  13.284   2.770   4.911
  574POPE   C3A 6960  13.189   3.034   5.281
  574POPE   C4A 6961  13.144   3.077   5.760
  574POPE   C1B 6962  13.522   3.745   4.614
  574POPE   C2B 6963  13.391   3.681   4.999
  574POPE   C3B 6964  13.357   3.500   5.442
  574POPE   C4B 6965  13.433   3.446   5.928
  575POPG   GL0 6966   0.348   3.529   3.937
  575POPG   PO4 6967   0.152   3.416   4.224
  575POPG   GL1 6968   0.074   3.849   4.266
  575POPG   GL2 6969   0.342   3.892   4.200
  575POPG   C1A 6970   0.002   3.880   4.704
  575POPG   D2A 6971   0.014   3.808   5.210
  575POPG   C3A 6972  13.866   3.584   5.615
  575POPG   C4A 6973  13.905   3.299   6.035
  575POPG   C1B 6974   0.527   3.799   4.500
  575POPG   C2B 6975   0.675   3.675   4.865
  575POPG   C3B 6976   0.768   3.645   5.335
  575POPG   C4B 6977   0.472   3.681   5.714
  576POPG   GL0 6978  13.789  10.246   3.470
  576POPG   PO4 6979   0.110  10.336   3.637
  576POPG   GL1 6980   0.164  10.459   4.071
  576POPG   GL2 6981   0.399  10.304   4.135
  576POPG   C1A 6982   0.154  10.498   4.518
  576POPG   D2A 6983   0.339  10.524   4.985
  576POPG   C3A 6984   0.328  10.480   5.449
  576POPG   C4A 6985   0.253  10.413   5.924
  576POPG   C1B 6986   0.625  10.351   4.439
  576POPG   C2B 6987   0.828  10.420   4.809
  576POPG   C3B 6988   0.837  10.433   5.295
  576POPG   C4B 6989   0.722  10.544   5.763
  577POPG   GL0 6990   0.415  12.997   3.788
  577POPG   PO4 6991   0.676  12.806   3.962
  577POPG   GL1 6992   0.508  12.963   4.317
  577POPG   GL2 6993   0.249  12.858   4.244
  577POPG   C1A 6994   0.508  12.840   4.727
  577POPG   D2A 6995   0.642  12.645   5.156
  577POPG   C3A 6996   0.562  12.903   5.529
  577POPG   C4A 6997   0.478  13.179   5.922
  577POPG   C1B 6998   0.112  12.649   4.516
  577POPG   C2B 6999   0.119  12.557   4.918
  577POPG   C3B 7000   0.202  12.586   5.382
  577POPG   C4B 7001   0.326  12.586   5.873
  578POPG   GL0 7002   1.363   2.951   3.836
  578POPG   PO4 7003   1.394   2.584   3.879
  578POPG   GL1 7004   1.050   2.630   4.170
  578POPG   GL2 7005   1.320   2.740   4.272
  578POPG   C1A 7006   0.932   2.532   4.593
  578POPG   D2A 7007   1.013   2.219   4.968
  578POPG   C3A 7008   0.925   2.368   5.381
  578POPG   C4A 7009   0.700   2.742   5.609
  578POPG   C1B 7010   1.437   2.582   4.588
  578POPG   C2B 7011   1.513   2.367   4.937
  578POPG   C3B 7012   1.603   2.006   5.261
  578POPG   C4B 7013   1.820   1.596   5.456
  579POPG   GL0 7014   0.964   3.120   3.613
  579POPG   PO4 7015   0.926   3.410   3.836
  579POPG   GL1 7016   1.195   3.232   4.187
  579POPG   GL2 7017   0.999   3.042   4.093
  579POPG   C1A 7018   1.299   3.038   4.597
  579POPG   D2A 7019   1.183   2.738   4.995
  579POPG   C3A 7020   1.213   2.785   5.459
  579POPG   C4A 7021   1.246   3.226   5.649
  579POPG   C1B 7022   0.882   2.957   4.422
  579POPG   C2B 7023   0.841   3.078   4.817
  579POPG   C3B 7024   0.900   3.146   5.279
  579POPG   C4B 7025   0.738   3.232   5.737
  580POPG   GL0 7026   0.912   8.452   4.061
  580POPG   PO4 7027   1.272   8.364   4.002
  580POPG   GL1 7028   1.391   8.054   4.256
  580POPG   GL2 7029   1.210   7.857   4.151
  580POPG   C1A 7030   1.228   8.233   4.643
  580POPG   D2A 7031   1.241   8.464   5.089
  580POPG   C3A 7032   1.292   8.449   5.549
  580POPG   C4A 7033   1.327   8.516   6.046
  580POPG   C1B 7034   1.001   7.813   4.452
  580POPG   C2B 7035   0.936   7.808   4.861
  580POPG   C3B 7036   0.724   7.819   5.297
  580POPG   C4B 7037   0.498   7.881   5.741
  581POPG   GL0 7038   0.961  10.541   4.090
  581POPG   PO4 7039   1.276  10.339   4.040
  581POPG   GL1 7040   1.467  10.290   4.397
  581POPG   GL2 7041   1.511  10.583   4.436
  581POPG   C1A 7042   1.318  10.221   4.798
  581POPG   D2A 7043   1.345  10.281   5.298
  581POPG   C3A 7044   1.122  10.211   5.715
  581POPG   C4A 7045   0.943  10.126   6.180
  581POPG   C1B 7046   1.298  10.712   4.705
  581POPG   C2B 7047   1.194  10.753   5.101
  581POPG   C3B 7048   1.171  10.709   5.580
  581POPG   C4B 7049   1.100  10.617   6.063
  582POPG   GL0 7050   2.109   3.344   3.918
  582POPG   PO4 7051   1.753   3.292   3.830
  582POPG   GL1 7052   1.617   3.348   4.250
  582POPG   GL2 7053   1.878   3.242   4.297
  582POPG   C1A 7054   1.624   3.397   4.693
  582POPG   D2A 7055   1.533   3.115   5.101
  582POPG   C3A 7056   1.753   3.215   5.500
  582POPG   C4A 7057   1.867   3.392   5.942
  582POPG   C1B 7058   1.859   2.980   4.547
  582POPG   C2B 7059   1.969   2.881   4.924
  582POPG   C3B 7060   2.141   2.903   5.358
  582POPG   C4B 7061   2.050   2.906   5.834
  583POPG   GL0 7062   2.114   7.707   3.895
  583POPG   PO4 7063   2.006   7.348   3.885
  583POPG   GL1 7064   1.866   7.457   4.235
  583POPG   GL2 7065   1.821   7.752   4.269
  583POPG   C1A 7066   1.718   7.348   4.619
  583POPG   D2A 7067   1.824   7.632   5.009
  583POPG   C3A 7068   1.660   7.709   5.428
  583POPG   C4A 7069   1.569   7.545   5.865
  583POPG   C1B 7070   1.894   7.874   4.622
  583POPG   C2B 7071   2.089   8.057   4.954
  583POPG   C3B 7072   2.018   8.051   5.436
  583POPG   C4B 7073   1.893   7.944   5.907
  584POPG   GL0 7074   2.134  12.828   3.916
  584POPG   PO4 7075   2.249  13.112   4.120
  584POPG   GL1 7076   2.091  12.845   4.392
  584POPG   GL2 7077   1.877  12.704   4.282
  584POPG   C1A 7078   1.937  12.869   4.792
  584POPG   D2A 7079   1.619  13.036   5.126
  584POPG   C3A 7080   1.691  13.119   5.572
  584POPG   C4A 7081   2.098  12.924   5.743
  584POPG   C1B 7082   1.716  12.521   4.577
  584POPG   C2B 7083   1.623  12.475   4.991
  584POPG   C3B 7084   1.553  12.624   5.450
  584POPG   C4B 7085   1.688  12.681   5.924
  585POPG   GL0 7086   2.666   6.253   3.880
  585POPG   PO4 7087   2.336   6.414   3.823
  585POPG   GL1 7088   2.338   6.613   4.216
  585POPG   GL2 7089   2.596   6.536   4.236
  585POPG   C1A 7090   2.325   6.721   4.635
  585POPG   D2A 7091   2.017   6.773   5.026
  585POPG   C3A 7092   2.114   6.720   5.457
  585POPG   C4A 7093   2.368   6.464   5.776
  585POPG   C1B 7094   2.511   6.245   4.432
  585POPG   C2B 7095   2.482   6.249   4.839
  585POPG   C3B 7096   2.400   6.308   5.297
  585POPG   C4B 7097   2.433   5.981   5.671
  586POPG   GL0 7098   2.707  11.304   3.510
  586POPG   PO4 7099   2.722  11.657   3.559
  586POPG   GL1 7100   2.467  11.461   3.900
  586POPG   GL2 7101   2.722  11.294   3.961
  586POPG   C1A 7102   2.355  11.606   4.313
  586POPG   D2A 7103   2.154  11.814   4.733
  586POPG   C3A 7104   2.187  11.568   5.138
  586POPG   C4A 7105   2.542  11.580   5.483
  586POPG   C1B 7106   2.868  11.249   4.292
  586POPG   C2B 7107   2.839  11.281   4.703
  586POPG   C3B 7108   2.643  11.216   5.129
  586POPG   C4B 7109   2.454  11.043   5.547
  587POPG   GL0 7110   2.870  12.703   3.684
  587POPG   PO4 7111   2.521  12.622   3.670
  587POPG   GL1 7112   2.558  12.691   4.100
  587POPG   GL2 7113   2.695  12.965   4.062
  587POPG   C1A 7114   2.475  12.659   4.547
  587POPG   D2A 7115   2.420  12.861   5.017
  587POPG   C3A 7116   2.519  12.917   5.480
  587POPG   C4A 7117   2.609  12.739   5.952
  587POPG   C1B 7118   2.809  13.017   4.419
  587POPG   C2B 7119   2.916  13.099   4.822
  587POPG   C3B 7120   2.953  13.145   5.314
  587POPG   C4B 7121   2.816  13.199   5.803
  588POPG   GL0 7122   3.116   7.548   3.696
  588POPG   PO4 7123   3.022   7.756   3.988
  588POPG   GL1 7124   3.331   7.638   4.271
  588POPG   GL2 7125   3.466   7.888   4.235
  588POPG   C1A 7126   3.425   7.520   4.691
  588POPG   D2A 7127   3.557   7.449   5.168
  588POPG   C3A 7128   3.282   7.452   5.543
  588POPG   C4A 7129   3.031   7.427   5.975
  588POPG   C1B 7130   3.517   7.989   4.579
  588POPG   C2B 7131   3.510   8.047   4.988
  588POPG   C3B 7132   3.458   7.933   5.449
  588POPG   C4B 7133   3.354   7.797   5.909
  589POPG   GL0 7134   3.199   9.710   3.794
  589POPG   PO4 7135   2.979   9.915   4.001
  589POPG   GL1 7136   3.287  10.132   4.226
  589POPG   GL2 7137   3.482   9.936   4.123
  589POPG   C1A 7138   3.143  10.013   4.626
  589POPG   D2A 7139   2.889   9.683   4.888
  589POPG   C3A 7140   3.067   9.860   5.269
  589POPG   C4A 7141   3.274  10.011   5.693
  589POPG   C1B 7142   3.542   9.775   4.452
  589POPG   C2B 7143   3.489   9.695   4.856
  589POPG   C3B 7144   3.551   9.779   5.343
  589POPG   C4B 7145   3.637   9.677   5.839
  590POPG   GL0 7146   3.300  13.588   3.842
  590POPG   PO4 7147   3.444  13.372   4.100
  590POPG   GL1 7148   3.257  13.678   4.304
  590POPG   GL2 7149   3.515  13.844   4.288
  590POPG   C1A 7150   3.196  13.579   4.725
  590POPG   D2A 7151   3.083  13.634   5.214
  590POPG   C3A 7152   3.210  13.471   5.637
  590POPG   C4A 7153   3.134  13.476   6.123
  590POPG   C1B 7154   3.574  13.886   4.647
  590POPG   C2B 7155   3.532  13.798   5.051
  590POPG   C3B 7156   3.608  13.746   5.529
  590POPG   C4B 7157   3.450  13.880   5.994
  591POPG   GL0 7158   4.518   4.652   3.624
  591POPG   PO4 7159   4.325   4.645   3.948
  591POPG   GL1 7160   4.509   4.531   4.346
  591POPG   GL2 7161   4.230   4.478   4.437
  591POPG   C1A 7162   4.643   4.736   4.713
  591POPG   D2A 7163   4.681   5.118   5.036
  591POPG   C3A 7164   4.578   4.944   5.460
  591POPG   C4A 7165   4.500   4.777   5.907
  591POPG   C1B 7166   4.169   4.616   4.785
  591POPG   C2B 7167   4.148   4.808   5.166
  591POPG   C3B 7168   4.058   4.867   5.651
  591POPG   C4B 7169   4.080   4.880   6.164
  592POPG   GL0 7170   3.949   7.009   3.713
  592POPG   PO4 7171   4.291   7.149   3.716
  592POPG   GL1 7172   4.261   7.025   4.110
  592POPG   GL2 7173   3.986   7.112   4.165
  592POPG   C1A 7174   4.413   6.849   4.484
  592POPG   D2A 7175   4.784   6.706   4.812
  592POPG   C3A 7176   4.518   6.777   5.193
  592POPG   C4A 7177   4.227   6.806   5.592
  592POPG   C1B 7178   4.056   7.189   4.519
  592POPG   C2B 7179   4.008   7.225   4.928
  592POPG   C3B 7180   3.995   7.230   5.408
  592POPG   C4B 7181   3.840   7.075   5.854
  593POPG   GL0 7182   4.249   8.671   3.581
  593POPG   PO4 7183   4.453   8.900   3.804
  593POPG   GL1 7184   4.490   8.630   4.105
  593POPG   GL2 7185   4.243   8.473   4.021
  593POPG   C1A 7186   4.314   8.783   4.464
  593POPG   D2A 7187   3.926   8.747   4.772
  593POPG   C3A 7188   3.982   8.786   5.238
  593POPG   C4A 7189   4.250   8.904   5.634
  593POPG   C1B 7190   4.063   8.395   4.340
  593POPG   C2B 7191   3.920   8.236   4.698
  593POPG   C3B 7192   4.007   8.257   5.168
  593POPG   C4B 7193   4.121   8.419   5.620
  594POPG   GL0 7194   4.392   9.639   3.521
  594POPG   PO4 7195   4.346   9.809   3.836
  594POPG   GL1 7196   4.301   9.722   4.243
  594POPG   GL2 7197   4.197  10.009   4.293
  594POPG   C1A 7198   4.004   9.652   4.560
  594POPG   D2A 7199   3.939   9.837   5.014
  594POPG   C3A 7200   4.033   9.744   5.455
  594POPG   C4A 7201   4.173   9.730   5.920
  594POPG   C1B 7202   4.141  10.097   4.658
  594POPG   C2B 7203   4.263  10.220   5.042
  594POPG   C3B 7204   4.273  10.169   5.520
  594POPG   C4B 7205   3.841  10.107   5.752
  595POPG   GL0 7206   3.839  11.781   4.008
  595POPG   PO4 7207   3.720  11.425   3.982
  595POPG   GL1 7208   4.098  11.393   4.174
  595POPG   GL2 7209   4.180  11.098   4.161
  595POPG   C1A 7210   3.996  11.509   4.596
  595POPG   D2A 7211   3.622  11.437   4.934
  595POPG   C3A 7212   3.826  11.618   5.320
  595POPG   C4A 7213   4.179  11.820   5.608
  595POPG   C1B 7214   4.369  11.066   4.480
  595POPG   C2B 7215   4.354  11.202   4.875
  595POPG   C3B 7216   4.223  11.305   5.331
  595POPG   C4B 7217   3.989  11.385   5.764
  596POPG   GL0 7218   4.151  13.020   3.758
  596POPG   PO4 7219   4.054  12.729   3.950
  596POPG   GL1 7220   3.823  12.783   4.320
  596POPG   GL2 7221   4.102  12.812   4.413
  596POPG   C1A 7222   3.644  13.044   4.645
  596POPG   D2A 7223   3.425  13.257   5.059
  596POPG   C3A 7224   3.651  13.218   5.477
  596POPG   C4A 7225   3.867  12.982   5.859
  596POPG   C1B 7226   4.107  12.976   4.736
  596POPG   C2B 7227   4.137  13.048   5.139
  596POPG   C3B 7228   4.272  13.056   5.586
  596POPG   C4B 7229   4.358  12.986   6.077
  597POPG   GL0 7230   4.407   7.659   3.725
  597POPG   PO4 7231   4.624   7.912   3.896
  597POPG   GL1 7232   4.997   7.930   4.113
  597POPG   GL2 7233   4.979   7.643   4.203
  597POPG   C1A 7234   4.972   8.085   4.551
  597POPG   D2A 7235   4.773   8.205   5.019
  597POPG   C3A 7236   4.650   8.160   5.487
  597POPG   C4A 7237   4.498   8.275   5.941
  597POPG   C1B 7238   5.077   7.633   4.566
  597POPG   C2B 7239   5.048   7.750   4.973
  597POPG   C3B 7240   5.053   7.838   5.456
  597POPG   C4B 7241   5.059   7.773   5.947
  598POPG   GL0 7242   4.963  13.593   3.650
  598POPG   PO4 7243   5.116  13.327   3.834
  598POPG   GL1 7244   4.777  13.474   4.060
  598POPG   GL2 7245   4.787  13.745   4.053
  598POPG   C1A 7246   4.864  13.376   4.473
  598POPG   D2A 7247   4.956  13.386   4.944
  598POPG   C3A 7248   4.958  13.611   5.336
  598POPG   C4A 7249   4.980  13.794   5.786
  598POPG   C1B 7250   4.629  13.776   4.379
  598POPG   C2B 7251   4.492  13.729   4.763
  598POPG   C3B 7252   4.459  13.804   5.236
  598POPG   C4B 7253   4.421  13.869   5.724
  599POPG   GL0 7254   5.770   5.190   3.747
  599POPG   PO4 7255   5.467   5.018   3.882
  599POPG   GL1 7256   5.592   5.098   4.270
  599POPG   GL2 7257   5.838   4.924   4.207
  599POPG   C1A 7258   5.590   4.993   4.699
  599POPG   D2A 7259   5.461   5.099   5.170
  599POPG   C3A 7260   5.478   4.832   5.553
  599POPG   C4A 7261   5.432   4.898   6.031
  599POPG   C1B 7262   5.772   4.619   4.408
  599POPG   C2B 7263   5.764   4.395   4.761
  599POPG   C3B 7264   5.862   4.502   5.231
  599POPG   C4B 7265   6.131   4.687   5.599
  600POPG   GL0 7266   5.433   9.107   3.658
  600POPG   PO4 7267   5.756   9.088   3.835
  600POPG   GL1 7268   5.620   9.068   4.199
  600POPG   GL2 7269   5.310   9.017   4.158
  600POPG   C1A 7270   5.857   9.087   4.583
  600POPG   D2A 7271   5.938   8.862   5.029
  600POPG   C3A 7272   5.850   8.940   5.489
  600POPG   C4A 7273   5.501   9.071   5.822
  600POPG   C1B 7274   5.154   9.034   4.504
  600POPG   C2B 7275   5.125   9.157   4.910
  600POPG   C3B 7276   5.376   9.295   5.315
  600POPG   C4B 7277   5.632   9.526   5.671
  601POPG   GL0 7278   5.184   9.462   3.935
  601POPG   PO4 7279   5.318   9.805   3.935
  601POPG   GL1 7280   5.262  10.105   4.222
  601POPG   GL2 7281   5.581  10.123   4.254
  601POPG   C1A 7282   5.110   9.988   4.625
  601POPG   D2A 7283   5.140  10.055   5.127
  601POPG   C3A 7284   5.134   9.856   5.556
  601POPG   C4A 7285   5.109   9.834   6.061
  601POPG   C1B 7286   5.790  10.198   4.558
  601POPG   C2B 7287   5.939  10.257   4.946
  601POPG   C3B 7288   5.980  10.234   5.428
  601POPG   C4B 7289   5.608  10.026   5.660
  602POPG   GL0 7290   6.732   6.666   3.882
  602POPG   PO4 7291   6.635   7.016   3.904
  602POPG   GL1 7292   6.565   6.839   4.273
  602POPG   GL2 7293   6.347   6.677   4.145
  602POPG   C1A 7294   6.570   6.584   4.602
  602POPG   D2A 7295   6.717   6.200   4.858
  602POPG   C3A 7296   6.674   6.414   5.266
  602POPG   C4A 7297   6.741   6.506   5.746
  602POPG   C1B 7298   6.123   6.747   4.424
  602POPG   C2B 7299   6.082   6.778   4.833
  602POPG   C3B 7300   6.028   6.817   5.315
  602POPG   C4B 7301   6.255   6.599   5.679
  603POPG   GL0 7302   6.090  12.639   3.882
  603POPG   PO4 7303   6.082  12.963   4.041
  603POPG   GL1 7304   6.287  12.744   4.369
  603POPG   GL2 7305   6.116  12.502   4.326
  603POPG   C1A 7306   6.353  12.655   4.808
  603POPG   D2A 7307   6.360  12.642   5.322
  603POPG   C3A 7308   6.236  13.020   5.582
  603POPG   C4A 7309   6.404  13.447   5.719
  603POPG   C1B 7310   5.927  12.526   4.642
  603POPG   C2B 7311   5.906  12.614   5.043
  603POPG   C3B 7312   5.887  12.675   5.520
  603POPG   C4B 7313   5.849  12.848   6.001
  604POPG   GL0 7314   7.113   7.006   3.725
  604POPG   PO4 7315   7.437   7.082   3.875
  604POPG   GL1 7316   7.231   7.182   4.198
  604POPG   GL2 7317   7.004   6.989   4.195
  604POPG   C1A 7318   7.471   7.017   4.512
  604POPG   D2A 7319   7.478   6.846   4.949
  604POPG   C3A 7320   7.243   7.007   5.306
  604POPG   C4A 7321   7.193   7.330   5.664
  604POPG   C1B 7322   6.882   6.957   4.550
  604POPG   C2B 7323   6.817   6.892   4.967
  604POPG   C3B 7324   6.733   6.901   5.451
  604POPG   C4B 7325   6.556   6.948   5.932
  605POPG   GL0 7326   7.177   7.515   3.863
  605POPG   PO4 7327   7.390   7.766   3.696
  605POPG   GL1 7328   7.384   7.850   4.121
  605POPG   GL2 7329   7.090   7.898   4.133
  605POPG   C1A 7330   7.349   7.569   4.456
  605POPG   D2A 7331   7.139   7.260   4.799
  605POPG   C3A 7332   6.986   7.443   5.196
  605POPG   C4A 7333   7.189   7.796   5.486
  605POPG   C1B 7334   6.976   7.925   4.489
  605POPG   C2B 7335   6.898   7.913   4.905
  605POPG   C3B 7336   6.712   7.835   5.356
  605POPG   C4B 7337   6.789   7.814   5.845
  606POPG   GL0 7338   7.039   9.581   3.575
  606POPG   PO4 7339   6.859   9.500   3.887
  606POPG   GL1 7340   6.970   9.722   4.250
  606POPG   GL2 7341   6.771   9.944   4.177
  606POPG   C1A 7342   7.073   9.653   4.685
  606POPG   D2A 7343   7.079   9.640   5.194
  606POPG   C3A 7344   6.979   9.548   5.653
  606POPG   C4A 7345   7.017   9.777   6.093
  606POPG   C1B 7346   6.796  10.077   4.513
  606POPG   C2B 7347   6.841  10.045   4.918
  606POPG   C3B 7348   6.881  10.117   5.380
  606POPG   C4B 7349   6.964  10.235   5.838
  607POPG   GL0 7350   6.562  10.607   3.699
  607POPG   PO4 7351   6.675  10.341   3.922
  607POPG   GL1 7352   6.770  10.715   4.115
  607POPG   GL2 7353   7.056  10.627   4.173
  607POPG   C1A 7354   6.583  10.869   4.473
  607POPG   D2A 7355   6.646  10.510   4.825
  607POPG   C3A 7356   6.790  10.677   5.237
  607POPG   C4A 7357   6.903  10.775   5.726
  607POPG   C1B 7358   7.061  10.465   4.508
  607POPG   C2B 7359   7.151  10.442   4.914
  607POPG   C3B 7360   7.237  10.500   5.378
  607POPG   C4B 7361   7.366  10.589   5.820
  608POPG   GL0 7362   6.805  13.536   3.722
  608POPG   PO4 7363   6.877  13.197   3.853
  608POPG   GL1 7364   6.976  13.324   4.244
  608POPG   GL2 7365   6.759  13.538   4.179
  608POPG   C1A 7366   7.059  13.351   4.693
  608POPG   D2A 7367   7.152  13.345   5.194
  608POPG   C3A 7368   7.235  13.582   5.596
  608POPG   C4A 7369   7.127  13.486   6.071
  608POPG   C1B 7370   6.634  13.450   4.504
  608POPG   C2B 7371   6.611  13.413   4.914
  608POPG   C3B 7372   6.707  13.597   5.345
  608POPG   C4B 7373   6.791  13.790   5.791
  609POPG   GL0 7374   7.234   3.558   3.929
  609POPG   PO4 7375   7.084   3.812   4.138
  609POPG   GL1 7376   6.970   3.427   4.333
  609POPG   GL2 7377   6.721   3.518   4.413
  609POPG   C1A 7378   7.086   3.350   4.758
  609POPG   D2A 7379   7.052   3.277   5.256
  609POPG   C3A 7380   7.185   3.291   5.711
  609POPG   C4A 7381   7.259   3.682   6.011
  609POPG   C1B 7382   6.819   3.734   4.695
  609POPG   C2B 7383   7.051   3.819   5.026
  609POPG   C3B 7384   7.155   3.753   5.487
  609POPG   C4B 7385   6.794   3.604   5.774
  610POPG   GL0 7386   8.647   6.261   4.175
  610POPG   PO4 7387   8.391   6.367   3.930
  610POPG   GL1 7388   8.160   6.196   4.214
  610POPG   GL2 7389   8.330   5.915   4.198
  610POPG   C1A 7390   8.227   6.280   4.627
  610POPG   D2A 7391   8.210   6.224   5.116
  610POPG   C3A 7392   8.043   6.354   5.520
  610POPG   C4A 7393   8.143   6.436   5.999
  610POPG   C1B 7394   8.301   5.798   4.553
  610POPG   C2B 7395   8.090   5.773   4.915
  610POPG   C3B 7396   7.865   5.899   5.338
  610POPG   C4B 7397   7.859   6.035   5.841
  611POPG   GL0 7398   7.740   8.883   3.520
  611POPG   PO4 7399   7.879   9.000   3.839
  611POPG   GL1 7400   7.700   8.847   4.205
  611POPG   GL2 7401   7.588   9.135   4.246
  611POPG   C1A 7402   7.956   8.714   4.570
  611POPG   D2A 7403   8.173   8.626   5.014
  611POPG   C3A 7404   8.257   8.908   5.382
  611POPG   C4A 7405   8.253   8.922   5.878
  611POPG   C1B 7406   7.753   9.145   4.570
  611POPG   C2B 7407   7.820   9.017   4.954
  611POPG   C3B 7408   7.746   9.029   5.419
  611POPG   C4B 7409   7.461   9.409   5.517
  612POPG   GL0 7410   8.008  10.199   4.079
  612POPG   PO4 7411   7.983  10.553   3.978
  612POPG   GL1 7412   8.112  10.716   4.333
  612POPG   GL2 7413   8.151  10.455   4.426
  612POPG   C1A 7414   7.936  10.783   4.713
  612POPG   D2A 7415   7.655  10.514   5.019
  612POPG   C3A 7416   7.708  10.770   5.403
  612POPG   C4A 7417   7.746  10.954   5.860
  612POPG   C1B 7418   7.819  10.346   4.547
  612POPG   C2B 7419   7.490  10.125   4.676
  612POPG   C3B 7420   7.399  10.074   5.147
  612POPG   C4B 7421   7.661  10.279   5.547
  613POPG   GL0 7422   7.519  10.765   3.850
  613POPG   PO4 7423   7.454  11.098   3.982
  613POPG   GL1 7424   7.711  10.862   4.253
  613POPG   GL2 7425   7.881  11.106   4.272
  613POPG   C1A 7426   7.434  10.752   4.574
  613POPG   D2A 7427   6.988  10.877   4.752
  613POPG   C3A 7428   7.266  10.938   5.112
  613POPG   C4A 7429   7.327  11.039   5.590
  613POPG   C1B 7430   7.894  11.242   4.612
  613POPG   C2B 7431   7.815  11.248   5.016
  613POPG   C3B 7432   7.713  11.347   5.474
  613POPG   C4B 7433   7.507  11.404   5.917
  614POPG   GL0 7434   8.344   2.499   3.948
  614POPG   PO4 7435   7.987   2.483   4.057
  614POPG   GL1 7436   8.174   2.397   4.404
  614POPG   GL2 7437   8.048   2.151   4.468
  614POPG   C1A 7438   8.229   2.628   4.779
  614POPG   D2A 7439   8.160   2.533   5.249
  614POPG   C3A 7440   7.961   2.339   5.642
  614POPG   C4A 7441   7.849   2.203   6.122
  614POPG   C1B 7442   7.963   2.236   4.823
  614POPG   C2B 7443   7.918   2.087   5.210
  614POPG   C3B 7444   8.014   1.848   5.635
  614POPG   C4B 7445   8.063   1.733   6.117
  615POPG   GL0 7446   8.593   9.358   3.516
  615POPG   PO4 7447   8.727   9.319   3.853
  615POPG   GL1 7448   8.780   9.695   4.066
  615POPG   GL2 7449   8.476   9.697   4.101
  615POPG   C1A 7450   8.792   9.749   4.502
  615POPG   D2A 7451   8.824   9.606   4.974
  615POPG   C3A 7452   8.774   9.860   5.352
  615POPG   C4A 7453   8.963  10.136   5.700
  615POPG   C1B 7454   8.347   9.633   4.446
  615POPG   C2B 7455   8.331   9.736   4.853
  615POPG   C3B 7456   8.256   9.858   5.319
  615POPG   C4B 7457   8.060  10.001   5.745
  616POPG   GL0 7458   9.426   9.277   4.271
  616POPG   PO4 7459   9.233   9.491   4.032
  616POPG   GL1 7460   9.161   9.887   4.262
  616POPG   GL2 7461   9.432   9.888   4.188
  616POPG   C1A 7462   9.267   9.757   4.670
  616POPG   D2A 7463   9.291   9.335   4.919
  616POPG   C3A 7464   9.183   9.449   5.359
  616POPG   C4A 7465   8.964   9.618   5.764
  616POPG   C1B 7466   9.706   9.966   4.415
  616POPG   C2B 7467   9.711  10.014   4.830
  616POPG   C3B 7468   9.610  10.068   5.310
  616POPG   C4B 7469   9.415   9.949   5.764
  617POPG   GL0 7470   8.858  10.136   3.938
  617POPG   PO4 7471   9.215  10.095   3.836
  617POPG   GL1 7472   9.205  10.387   4.126
  617POPG   GL2 7473   9.482  10.321   4.219
  617POPG   C1A 7474   8.924  10.286   4.464
  617POPG   D2A 7475   8.724  10.146   4.900
  617POPG   C3A 7476   8.903  10.374   5.276
  617POPG   C4A 7477   9.153  10.597   5.660
  617POPG   C1B 7478   9.368  10.187   4.538
  617POPG   C2B 7479   9.257  10.231   4.927
  617POPG   C3B 7480   9.415  10.580   5.218
  617POPG   C4B 7481   9.511  10.967   5.513
  618POPG   GL0 7482   8.864  11.037   3.759
  618POPG   PO4 7483   8.908  10.777   4.019
  618POPG   GL1 7484   9.332  10.802   4.158
  618POPG   GL2 7485   9.202  11.085   4.211
  618POPG   C1A 7486   9.350  10.641   4.555
  618POPG   D2A 7487   8.976  10.665   4.867
  618POPG   C3A 7488   8.976  10.875   5.284
  618POPG   C4A 7489   8.954  11.060   5.741
  618POPG   C1B 7490   9.059  11.036   4.552
  618POPG   C2B 7491   8.911  11.199   4.906
  618POPG   C3B 7492   9.026  11.369   5.346
  618POPG   C4B 7493   8.859  11.687   5.714
  619POPG   GL0 7494   9.756   3.803   3.659
  619POPG   PO4 7495   9.903   3.518   3.808
  619POPG   GL1 7496   9.677   3.652   4.101
  619POPG   GL2 7497   9.549   3.942   4.032
  619POPG   C1A 7498   9.755   3.554   4.492
  619POPG   D2A 7499   9.848   3.445   4.958
  619POPG   C3A 7500   9.791   3.431   5.419
  619POPG   C4A 7501   9.678   3.357   5.904
  619POPG   C1B 7502   9.625   4.008   4.395
  619POPG   C2B 7503   9.838   3.974   4.751
  619POPG   C3B 7504  10.007   3.879   5.188
  619POPG   C4B 7505  10.041   3.822   5.663
  620POPG   GL0 7506   9.579   0.611   4.137
  620POPG   PO4 7507   9.951   0.630   4.120
  620POPG   GL1 7508  10.144   0.259   4.282
  620POPG   GL2 7509   9.877   0.124   4.294
  620POPG   C1A 7510  10.110   0.307   4.724
  620POPG   D2A 7511   9.996   0.367   5.220
  620POPG   C3A 7512   9.694   0.080   5.461
  620POPG   C4A 7513   9.438  13.999   5.888
  620POPG   C1B 7514   9.682   0.336   4.527
  620POPG   C2B 7515   9.543   0.582   4.833
  620POPG   C3B 7516   9.514   0.552   5.313
  620POPG   C4B 7517   9.676   0.462   5.770
  621POPG   GL0 7518  10.389   2.472   3.883
  621POPG   PO4 7519  10.298   2.151   4.036
  621POPG   GL1 7520  10.253   2.378   4.348
  621POPG   GL2 7521  10.092   2.587   4.261
  621POPG   C1A 7522  10.503   2.558   4.642
  621POPG   D2A 7523  10.730   2.714   5.048
  621POPG   C3A 7524  10.516   2.496   5.397
  621POPG   C4A 7525  10.241   2.232   5.723
  621POPG   C1B 7526  10.136   2.844   4.523
  621POPG   C2B 7527  10.242   3.011   4.893
  621POPG   C3B 7528  10.366   3.006   5.363
  621POPG   C4B 7529  10.275   2.745   5.777
  622POPG   GL0 7530  10.751   2.751   4.131
  622POPG   PO4 7531  10.764   3.028   3.889
  622POPG   GL1 7532  10.895   3.215   4.219
  622POPG   GL2 7533  11.139   3.045   4.275
  622POPG   C1A 7534  10.654   3.047   4.551
  622POPG   D2A 7535  10.733   3.237   4.996
  622POPG   C3A 7536  10.937   3.060   5.358
  622POPG   C4A 7537  10.833   2.795   5.733
  622POPG   C1B 7538  11.226   2.987   4.639
  622POPG   C2B 7539  11.238   2.785   5.011
  622POPG   C3B 7540  11.113   2.511   5.415
  622POPG   C4B 7541  10.805   2.288   5.767
  623POPG   GL0 7542  10.571   6.477   3.812
  623POPG   PO4 7543  10.857   6.264   3.881
  623POPG   GL1 7544  10.871   6.517   4.193
  623POPG   GL2 7545  10.608   6.662   4.228
  623POPG   C1A 7546  11.007   6.609   4.577
  623POPG   D2A 7547  10.994   6.813   5.017
  623POPG   C3A 7548  10.849   6.697   5.429
  623POPG   C4A 7549  11.004   6.665   5.890
  623POPG   C1B 7550  10.568   6.839   4.561
  623POPG   C2B 7551  10.410   6.953   4.939
  623POPG   C3B 7552  10.357   6.833   5.413
  623POPG   C4B 7553  10.517   6.526   5.786
  624POPG   GL0 7554  10.507  10.692   3.756
  624POPG   PO4 7555  10.152  10.643   3.830
  624POPG   GL1 7556  10.327  10.540   4.223
  624POPG   GL2 7557  10.587  10.430   4.125
  624POPG   C1A 7558  10.373  10.579   4.664
  624POPG   D2A 7559  10.441  10.736   5.130
  624POPG   C3A 7560  10.777  10.814   5.438
  624POPG   C4A 7561  10.869  11.003   5.870
  624POPG   C1B 7562  10.809  10.523   4.413
  624POPG   C2B 7563  10.910  10.538   4.825
  624POPG   C3B 7564  11.070  10.428   5.273
  624POPG   C4B 7565  11.108  10.350   5.768
  625POPG   GL0 7566  11.641   2.985   3.739
  625POPG   PO4 7567  11.594   2.969   4.103
  625POPG   GL1 7568  11.508   3.331   4.266
  625POPG   GL2 7569  11.267   3.464   4.293
  625POPG   C1A 7570  11.651   3.286   4.680
  625POPG   D2A 7571  11.908   3.243   5.104
  625POPG   C3A 7572  11.937   2.848   5.329
  625POPG   C4A 7573  11.792   2.857   5.782
  625POPG   C1B 7574  11.193   3.448   4.659
  625POPG   C2B 7575  11.277   3.305   5.046
  625POPG   C3B 7576  11.444   3.022   5.426
  625POPG   C4B 7577  11.296   2.940   5.908
  626POPG   GL0 7578  11.571   5.107   3.806
  626POPG   PO4 7579  11.754   4.795   3.876
  626POPG   GL1 7580  11.549   4.811   4.247
  626POPG   GL2 7581  11.308   4.975   4.189
  626POPG   C1A 7582  11.647   4.991   4.652
  626POPG   D2A 7583  11.723   5.089   5.146
  626POPG   C3A 7584  11.714   5.091   5.633
  626POPG   C4A 7585  11.690   4.970   6.126
  626POPG   C1B 7586  11.188   5.120   4.509
  626POPG   C2B 7587  11.216   5.070   4.923
  626POPG   C3B 7588  11.257   5.168   5.390
  626POPG   C4B 7589  11.151   5.234   5.862
  627POPG   GL0 7590  11.016   8.205   3.866
  627POPG   PO4 7591  11.384   8.185   3.859
  627POPG   GL1 7592  11.413   8.486   4.218
  627POPG   GL2 7593  11.125   8.501   4.188
  627POPG   C1A 7594  11.304   8.545   4.669
  627POPG   D2A 7595  11.300   8.599   5.180
  627POPG   C3A 7596  11.118   8.457   5.591
  627POPG   C4A 7597  10.985   8.259   6.023
  627POPG   C1B 7598  11.058   8.224   4.416
  627POPG   C2B 7599  11.015   8.118   4.819
  627POPG   C3B 7600  11.055   8.003   5.285
  627POPG   C4B 7601  11.190   7.889   5.743
  628POPG   GL0 7602  11.444  10.841   3.875
  628POPG   PO4 7603  11.432  10.477   3.908
  628POPG   GL1 7604  11.247  10.519   4.274
  628POPG   GL2 7605  11.269  10.814   4.314
  628POPG   C1A 7606  11.336  10.315   4.645
  628POPG   D2A 7607  11.656  10.539   4.950
  628POPG   C3A 7608  11.626  10.514   5.402
  628POPG   C4A 7609  11.618  10.482   5.889
  628POPG   C1B 7610  11.322  10.807   4.689
  628POPG   C2B 7611  11.297  10.851   5.111
  628POPG   C3B 7612  11.270  10.802   5.599
  628POPG   C4B 7613  11.244  10.759   6.096
  629POPG   GL0 7614  11.533  12.997   3.799
  629POPG   PO4 7615  11.562  12.968   4.161
  629POPG   GL1 7616  11.853  12.790   4.404
  629POPG   GL2 7617  11.759  12.502   4.311
  629POPG   C1A 7618  11.736  12.971   4.798
  629POPG   D2A 7619  11.586  13.157   5.236
  629POPG   C3A 7620  11.512  13.016   5.678
  629POPG   C4A 7621  11.411  13.031   6.145
  629POPG   C1B 7622  11.443  12.441   4.486
  629POPG   C2B 7623  11.369  12.584   4.863
  629POPG   C3B 7624  11.303  12.737   5.299
  629POPG   C4B 7625  11.497  12.498   5.656
  630POPG   GL0 7626  12.146   1.255   3.722
  630POPG   PO4 7627  12.316   1.188   4.033
  630POPG   GL1 7628  12.363   1.592   4.241
  630POPG   GL2 7629  12.459   1.418   4.436
  630POPG   C1A 7630  12.085   1.702   4.560
  630POPG   D2A 7631  12.397   1.477   4.888
  630POPG   C3A 7632  12.315   1.506   5.319
  630POPG   C4A 7633  12.017   1.541   5.700
  630POPG   C1B 7634  12.226   1.171   4.616
  630POPG   C2B 7635  12.131   1.057   5.015
  630POPG   C3B 7636  12.137   1.075   5.515
  630POPG   C4B 7637  12.119   1.160   6.014
  631POPG   GL0 7638  11.835   8.212   4.103
  631POPG   PO4 7639  12.010   7.886   4.031
  631POPG   GL1 7640  11.758   7.814   4.340
  631POPG   GL2 7641  11.507   7.944   4.254
  631POPG   C1A 7642  11.883   7.911   4.733
  631POPG   D2A 7643  12.304   7.881   4.986
  631POPG   C3A 7644  12.033   7.964   5.365
  631POPG   C4A 7645  11.958   8.236   5.777
  631POPG   C1B 7646  11.439   8.077   4.589
  631POPG   C2B 7647  11.501   8.168   4.993
  631POPG   C3B 7648  11.539   8.209   5.481
  631POPG   C4B 7649  11.489   8.213   5.985
  632POPG   GL0 7650  12.856  12.022   3.747
  632POPG   PO4 7651  12.780  12.362   3.832
  632POPG   GL1 7652  12.978  12.405   4.191
  632POPG   GL2 7653  13.014  12.124   4.222
  632POPG   C1A 7654  12.722  12.568   4.498
  632POPG   D2A 7655  12.403  12.512   4.865
  632POPG   C3A 7656  12.685  12.391   5.220
  632POPG   C4A 7657  12.778  12.356   5.711
  632POPG   C1B 7658  12.864  11.956   4.524
  632POPG   C2B 7659  12.666  11.967   4.891
  632POPG   C3B 7660  12.604  11.914   5.373
  632POPG   C4B 7661  12.626  11.828   5.860
  633POPG   GL0 7662  12.983   5.384   4.101
  633POPG   PO4 7663  13.074   5.746   4.159
  633POPG   GL1 7664  12.816   5.902   4.469
  633POPG   GL2 7665  12.562   5.787   4.373
  633POPG   C1A 7666  12.899   5.760   4.883
  633POPG   D2A 7667  12.964   5.677   5.376
  633POPG   C3A 7668  12.971   5.649   5.848
  633POPG   C4A 7669  12.810   5.465   6.282
  633POPG   C1B 7670  12.697   5.453   4.454
  633POPG   C2B 7671  13.039   5.324   4.645
  633POPG   C3B 7672  13.203   5.309   5.081
  633POPG   C4B 7673  13.347   4.963   5.369
  634POPG   GL0 7674  13.632  13.603   3.580
  634POPG   PO4 7675  13.423  13.782   3.823
  634POPG   GL1 7676  13.482  13.750   4.222
  634POPG   GL2 7677  13.245  13.862   4.348
  634POPG   C1A 7678  13.694  13.517   4.535
  634POPG   D2A 7679  13.833  13.390   5.003
  634POPG   C3A 7680  13.704  13.364   5.459
  634POPG   C4A 7681  13.562  13.486   5.920
  634POPG   C1B 7682  13.286  13.708   4.689
  634POPG   C2B 7683  13.349  13.664   5.097
  634POPG   C3B 7684  13.439  13.809   5.544
  634POPG   C4B 7685  13.690  13.966   5.944
  635POPG   GL0 7686  13.632   2.905   3.964
  635POPG   PO4 7687  13.328   2.710   4.041
  635POPG   GL1 7688  13.410   2.369   4.259
  635POPG   GL2 7689  13.665   2.473   4.369
  635POPG   C1A 7690  13.132   2.381   4.577
  635POPG   D2A 7691  13.162   2.295   5.047
  635POPG   C3A 7692  13.214   2.539   5.419
  635POPG   C4A 7693  13.222   2.602   5.888
  635POPG   C1B 7694  13.603   2.468   4.742
  635POPG   C2B 7695  13.646   2.460   5.159
  635POPG   C3B 7696  13.686   2.516   5.655
  635POPG   C4B 7697  13.780   2.524   6.146
  636TOCL   GLC 7698   1.020   1.246   4.853
  636TOCL  PO41 7699   1.069   1.565   5.041
  636TOCL  GL11 7700   1.428   1.450   5.261
  636TOCL  GL21 7701   1.401   1.188   5.108
  636TOCL  C1A1 7702   1.558   1.149   5.553
  636TOCL  D2A1 7703   1.412   0.682   5.701
  636TOCL  C3A1 7704   1.827   0.475   5.616
  636TOCL  C4A1 7705   2.290   0.417   5.440
  636TOCL  C1B1 7706   1.130   0.925   5.355
  636TOCL  D2B1 7707   0.935   0.527   5.614
  636TOCL  C3B1 7708   0.525   0.712   5.760
  636TOCL  C4B1 7709   0.145   0.924   5.549
  636TOCL  PO42 7710   1.228   0.981   4.697
  636TOCL  GL12 7711   1.521   1.290   4.696
  636TOCL  GL22 7712   1.315   1.424   4.501
  636TOCL  C1A2 7713   1.722   1.597   4.930
  636TOCL  D2A2 7714   1.362   1.904   4.772
  636TOCL  C3A2 7715   1.657   1.893   4.430
  636TOCL  C4A2 7716   2.105   2.068   4.360
  636TOCL  C1B2 7717   0.851   1.503   4.462
  636TOCL  D2B2 7718   0.420   1.330   4.664
  636TOCL  C3B2 7719   0.392   1.793   4.720
  636TOCL  C4B2 7720   0.809   2.017   4.550
  637TOCL   GLC 7721   7.208   1.171   4.957
  637TOCL  PO41 7722   7.228   1.250   5.316
  637TOCL  GL11 7723   6.875   1.472   5.188
  637TOCL  GL21 7724   7.064   1.643   5.017
  637TOCL  C1A1 7725   6.420   1.419   5.168
  637TOCL  D2A1 7726   5.986   1.149   5.243
  637TOCL  C3A1 7727   5.954   0.824   5.599
  637TOCL  C4A1 7728   6.158   0.434   5.856
  637TOCL  C1B1 7729   6.822   1.947   4.810
  637TOCL  D2B1 7730   6.633   1.890   5.262
  637TOCL  C3B1 7731   6.307   1.761   5.566
  637TOCL  C4B1 7732   6.258   1.889   6.028
  637TOCL  PO42 7733   6.969   1.299   4.715
  637TOCL  GL12 7734   7.334   1.483   4.587
  637TOCL  GL22 7735   7.259   1.757   4.650
  637TOCL  C1A2 7736   7.669   1.355   4.850
  637TOCL  D2A2 7737   7.797   1.106   5.262
  637TOCL  C3A2 7738   7.991   0.806   4.947
  637TOCL  C4A2 7739   8.004   0.659   4.467
  637TOCL  C1B2 7740   7.498   1.820   5.030
  637TOCL  D2B2 7741   7.917   1.594   5.215
  637TOCL  C3B2 7742   7.964   1.777   4.787
  637TOCL  C4B2 7743   7.600   2.071   4.577
  638TOCL   GLC 7744  10.464   1.515   5.283
  638TOCL  PO41 7745  10.611   1.843   5.341
  638TOCL  GL11 7746  10.955   1.605   5.208
  638TOCL  GL21 7747  10.905   1.510   5.504
  638TOCL  C1A1 7748  11.354   1.481   5.342
  638TOCL  D2A1 7749  11.624   1.175   5.633
  638TOCL  C3A1 7750  11.614   1.197   6.093
  638TOCL  C4A1 7751  11.895   1.196   6.501
  638TOCL  C1B1 7752  11.062   1.132   5.679
  638TOCL  D2B1 7753  10.894   0.661   5.678
  638TOCL  C3B1 7754  10.533   0.468   5.439
  638TOCL  C4B1 7755  10.453   0.153   5.061
  638TOCL  PO42 7756  10.654   1.221   5.182
  638TOCL  GL12 7757  10.621   1.387   4.784
  638TOCL  GL22 7758  10.300   1.346   4.839
  638TOCL  C1A2 7759  10.858   1.773   4.762
  638TOCL  D2A2 7760  10.922   2.192   5.053
  638TOCL  C3A2 7761  11.251   2.329   4.756
  638TOCL  C4A2 7762  11.409   2.142   4.325
  638TOCL  C1B2 7763  10.114   1.726   4.937
  638TOCL  D2B2 7764  10.460   2.080   4.850
  638TOCL  C3B2 7765  10.386   1.729   4.533
  638TOCL  C4B2 7766  10.035   1.377   4.443
  639TOCL   GLC 7767   2.715   5.209   5.064
  639TOCL  PO41 7768   2.536   4.912   5.206
  639TOCL  GL11 7769   2.704   5.042   5.553
  639TOCL  GL21 7770   2.986   4.986   5.492
  639TOCL  C1A1 7771   2.585   5.471   5.515
  639TOCL  D2A1 7772   2.584   5.864   5.214
  639TOCL  C3A1 7773   2.147   5.690   5.314
  639TOCL  C4A1 7774   1.855   5.311   5.515
  639TOCL  C1B1 7775   3.098   5.394   5.365
  639TOCL  D2B1 7776   3.093   5.828   5.122
  639TOCL  C3B1 7777   3.515   5.741   5.295
  639TOCL  C4B1 7778   3.891   5.573   5.583
  639TOCL  PO42 7779   2.676   5.517   4.859
  639TOCL  GL12 7780   2.978   5.319   4.664
  639TOCL  GL22 7781   3.163   5.387   4.893
  639TOCL  C1A2 7782   2.829   4.898   4.648
  639TOCL  D2A2 7783   2.334   4.831   4.685
  639TOCL  C3A2 7784   2.227   4.451   4.451
  639TOCL  C4A2 7785   2.206   3.968   4.401
  639TOCL  C1B2 7786   3.202   4.986   5.070
  639TOCL  D2B2 7787   3.352   4.542   5.241
  639TOCL  C3B2 7788   3.686   4.555   4.910
  639TOCL  C4B2 7789   3.795   4.608   4.422
  640TOCL   GLC 7790   7.480   5.035   5.035
  640TOCL  PO41 7791   7.127   4.961   5.107
  640TOCL  GL11 7792   7.149   4.971   5.551
  640TOCL  GL21 7793   7.096   4.675   5.573
  640TOCL  C1A1 7794   6.830   5.256   5.659
  640TOCL  D2A1 7795   6.755   5.674   5.405
  640TOCL  C3A1 7796   7.200   5.543   5.376
  640TOCL  C4A1 7797   7.620   5.291   5.474
  640TOCL  C1B1 7798   7.460   4.496   5.399
  640TOCL  D2B1 7799   7.726   4.595   4.973
  640TOCL  C3B1 7800   7.876   4.850   5.342
  640TOCL  C4B1 7801   8.124   5.105   5.691
  640TOCL  PO42 7802   7.658   5.220   4.772
  640TOCL  GL12 7803   7.226   5.327   4.751
  640TOCL  GL22 7804   7.190   5.049   4.600
  640TOCL  C1A2 7805   6.851   5.543   4.915
  640TOCL  D2A2 7806   6.376   5.443   5.089
  640TOCL  C3A2 7807   6.097   5.374   4.705
  640TOCL  C4A2 7808   5.963   5.382   4.229
  640TOCL  C1B2 7809   7.355   4.617   4.603
  640TOCL  D2B2 7810   7.180   4.143   4.636
  640TOCL  C3B2 7811   6.714   4.156   4.520
  640TOCL  C4B2 7812   6.424   4.048   4.132
  641TOCL   GLC 7813  12.498   8.673   4.868
  641TOCL  PO41 7814  12.492   8.397   5.120
  641TOCL  GL11 7815  12.279   8.580   5.464
  641TOCL  GL21 7816  12.329   8.843   5.292
  641TOCL  C1A1 7817  11.885   8.747   5.562
  641TOCL  D2A1 7818  11.799   9.233   5.451
  641TOCL  C3A1 7819  11.982   9.542   5.763
  641TOCL  C4A1 7820  11.916   9.504   6.254
  641TOCL  C1B1 7821  12.733   9.021   5.272
  641TOCL  D2B1 7822  13.149   9.257   5.130
  641TOCL  C3B1 7823  13.257   9.559   5.476
  641TOCL  C4B1 7824  13.230   9.872   5.857
  641TOCL  PO42 7825  12.297   8.971   4.780
  641TOCL  GL12 7826  12.655   9.051   4.537
  641TOCL  GL22 7827  12.793   9.114   4.810
  641TOCL  C1A2 7828  12.862   8.670   4.515
  641TOCL  D2A2 7829  12.702   8.218   4.649
  641TOCL  C3A2 7830  12.253   8.283   4.523
  641TOCL  C4A2 7831  11.777   8.396   4.572
  641TOCL  C1B2 7832  13.043   8.758   4.960
  641TOCL  D2B2 7833  13.207   8.295   4.810
  641TOCL  C3B2 7834  13.658   8.168   4.688
  641TOCL  C4B2 7835   0.116   8.284   4.491
  642TOCL   GLC 7836   9.079  12.684   5.063
  642TOCL  PO41 7837   9.300  12.912   5.265
  642TOCL  GL11 7838   9.323  12.548   5.496
  642TOCL  GL21 7839   9.057  12.628   5.640
  642TOCL  C1A1 7840   9.227  12.228   5.225
  642TOCL  D2A1 7841   8.865  12.134   4.929
  642TOCL  C3A1 7842   8.729  12.235   5.372
  642TOCL  C4A1 7843   8.587  12.313   5.847
  642TOCL  C1B1 7844   8.696  12.752   5.419
  642TOCL  D2B1 7845   8.530  13.222   5.304
  642TOCL  C3B1 7846   8.496  13.515   5.675
  642TOCL  C4B1 7847   8.124  13.599   5.995
  642TOCL  PO42 7848   8.850  12.641   4.768
  642TOCL  GL12 7849   9.199  12.478   4.642
  642TOCL  GL22 7850   9.289  12.751   4.520
  642TOCL  C1A2 7851   9.549  12.420   4.876
  642TOCL  D2A2 7852   9.988  12.491   4.654
  642TOCL  C3A2 7853   9.784  12.065   4.605
  642TOCL  C4A2 7854   9.287  12.010   4.608
  642TOCL  C1B2 7855   9.655  12.902   4.722
  642TOCL  D2B2 7856   9.832  13.115   5.147
  642TOCL  C3B2 7857   9.769  13.593   5.120
  642TOCL  C4B2 7858   9.705   0.057   4.937
  643W        W 7859  13.929  12.501   8.232
  644W        W 7860  13.188   4.463   1.614
  645W        W 7861   1.705   4.734  10.529
  646W        W 7862   1.950   7.462   3.394
  647W        W 7863   8.722   1.390   0.565
  648W        W 7864  10.567   4.800   0.191
  649W        W 7865   0.243  12.746   2.861
  650W        W 7866   8.421  12.298  10.693
  651W        W 7867  13.518   1.168  10.953
  652W        W 7868   6.117   5.186  10.004
  653W        W 7869  12.125   2.467   3.285
  654W        W 7870  13.442   8.140   1.845
  655W        W 7871   3.336   5.333   9.177
  656W        W 7872  12.948   1.378   1.729
  657W        W 7873   7.941   0.420  10.571
  658W        W 7874   7.995  12.008  10.611
  659W        W 7875   4.288   7.342  10.898
  660W        W 7876   1.573   7.731  10.375
  661W        W 7877   6.033  12.806   0.112
  662W        W 7878   2.908  11.228   8.007
  663W        W 7879   2.678  10.784  10.810
  664W        W 7880   3.747   5.912   2.416
  665W        W 7881   7.921   3.398   2.492
  666W        W 7882   6.120  11.482   9.567
  667W        W 7883   2.909   0.964  10.160
  668W        W 7884   9.266  10.383   8.185
  669W        W 7885   1.644  13.012   0.832
  670W        W 7886   2.629   9.975   2.640
  671W        W 7887   7.903   6.865   9.407
  672W        W 7888   0.452  13.883   1.648
  673W        W 7889  10.197   1.891   3.611
  674W        W 7890   5.440  11.555  10.854
  675W        W 7891   1.538  11.870  11.310
  676W        W 7892   4.637   8.985   7.733
  677W        W 7893   7.859   3.545   3.097
  678W        W 7894  10.394  11.070   9.776
  679W        W 7895   7.622  12.812   8.790
  680W        W 7896  12.503   2.536   3.593
  681W        W 7897   6.048  10.338   9.042
  682W        W 7898   8.438   6.650   1.595
  683W        W 7899   5.374  11.051  10.769
  684W        W 7900  12.983  10.519   3.429
  685W        W 7901  11.848   0.901   2.991
  686W        W 7902   3.813  10.454   9.082
  687W        W 7903  12.280   6.330   2.536
  688W        W 7904   4.539   0.117  11.464
  689W        W 7905  12.073   7.401  11.927
  690W        W 7906  13.589  13.784   1.829
  691W        W 7907  13.174   0.586   0.714
  692W        W 7908   8.847   1.012   9.169
  693W        W 7909  10.175  10.718   2.946
  694W        W 7910  10.500   9.812   9.593
  695W        W 7911   6.129   7.083  11.852
  696W        W 7912  13.247   5.134   0.859
  697W        W 7913   3.855   4.489   2.470
  698W        W 7914   2.359   5.028   3.712
  699W        W 7915   5.540   7.422  10.052
  700W        W 7916   7.828   8.732   2.450
  701W        W 7917   8.229  12.842   2.592
  702W        W 7918  11.844  12.784  11.230
  703W        W 7919   8.084  11.620  10.266
  704W        W 7920  12.798   8.452   0.899
  705W        W 7921  11.078  10.717   1.268
  706W        W 7922   2.118   9.715   8.738
  707W        W 7923   7.800   1.890   1.892
  708W        W 7924   4.799   8.990  10.582
  709W        W 7925   8.940   4.053  10.646
  710W        W 7926  13.150   8.936  11.864
  711W        W 7927   5.451   7.666   1.826
  712W        W 7928   4.659  11.355  11.555
  713W        W 7929  11.505   2.169  10.967
  714W        W 7930   4.511   2.694   3.051
  715W        W 7931   0.583   1.855   8.691
  716W        W 7932   8.303  12.957   8.040
  717W        W 7933  12.347   4.137   8.796
  718W        W 7934   2.546  11.571  11.273
  719W        W 7935   4.386   6.193   0.921
  720W        W 7936   3.041  12.368   9.670
  721W        W 7937   3.627   7.814   9.586
  722W        W 7938   9.498   0.210  11.447
  723W        W 7939  11.582   4.649   8.552
  724W        W 7940   0.987  10.095   0.505
  725W        W 7941   4.687   0.969   3.651
  726W        W 7942   9.425   3.464  10.856
  727W        W 7943  12.288   4.657  10.468
  728W        W 7944  10.468   6.184   9.404
  729W        W 7945   1.814   1.649   9.160
  730W        W 7946   7.700   3.524   8.348
  731W        W 7947  10.109  13.578  11.203
  732W        W 7948   7.531   2.086   0.188
  733W        W 7949   0.156   2.150   1.694
  734W        W 7950  10.989   9.466   3.380
  735W        W 7951  12.702   4.420   1.572
  736W        W 7952  12.060   9.516  10.670
  737W        W 7953  11.173  11.901   2.853
  738W        W 7954  10.245   4.537   1.415
  739W        W 7955   4.227   0.218  10.352
  740W        W 7956   3.767   0.244   1.999
  741W        W 7957   6.025   3.057   1.848
  742W        W 7958   2.557   8.650   1.814
  743W        W 7959   4.757  12.134   9.325
  744W        W 7960  10.267  10.437   3.376
  745W        W 7961   5.947  11.644   9.121
  746W        W 7962   9.500   7.535  11.196
  747W        W 7963  10.805   5.123   8.686
  748W        W 7964   2.669   5.341   3.469
  749W        W 7965  11.371  10.363   1.485
  750W        W 7966   5.664   8.333  11.348
  751W        W 7967   6.694   5.090   0.394
  752W        W 7968   3.904   3.538  11.262
  753W        W 7969  13.088   9.805   4.017
  754W        W 7970   3.412   4.353   2.703
  755W        W 7971   2.770  12.520   0.295
  756W        W 7972   2.079   9.577   9.245
  757W        W 7973   2.604   9.685   1.675
  758W        W 7974  13.389   4.927   2.297
  759W        W 7975   6.214  11.734  11.198
  760W        W 7976   4.437  11.114  11.963
  761W        W 7977   9.538  13.255   4.318
  762W        W 7978  12.005  13.345   3.452
  763W        W 7979   2.086   7.817  10.443
  764W        W 7980   4.704   2.047  10.770
  765W        W 7981   7.180   4.779   9.033
  766W        W 7982   0.990  13.098   9.868
  767W        W 7983  10.356   1.652  11.895
  768W        W 7984   3.530   2.714   2.349
  769W        W 7985   6.793   4.576   2.166
  770W        W 7986   8.003   1.888   8.409
  771W        W 7987   4.636   9.416   0.173
  772W        W 7988  11.916   0.639   9.496
  773W        W 7989   6.505  13.847   2.990
  774W        W 7990  10.510   0.237  10.242
  775W        W 7991  12.549   5.409   0.448
  776W        W 7992   2.509  10.990   0.134
  777W        W 7993   5.304   2.208   9.379
  778W        W 7994  13.834   2.921   9.778
  779W        W 7995   4.906   7.691  11.812
  780W        W 7996  12.284   1.507  10.799
  781W        W 7997   0.848  13.809  10.949
  782W        W 7998   7.178   7.820   2.651
  783W        W 7999  10.222   7.877  10.149
  784W        W 8000  11.710  10.769   3.467
  785W        W 8001   9.500   1.269   8.618
  786W        W 8002   6.972   8.403  10.882
  787W        W 8003   2.723  12.382   3.219
  788W        W 8004   0.488   9.900  11.251
  789W        W 8005   8.527   5.469   2.623
  790W        W 8006  11.937   2.039   0.836
  791W        W 8007   5.249   3.932   9.642
  792W        W 8008   3.548   1.832  11.534
  793W        W 8009  11.979   8.393   8.392
  794W        W 8010   8.909   0.634   1.312
  795W        W 8011   0.138   5.225   2.563
  796W        W 8012  11.279   6.463   2.815
  797W        W 8013   2.307   9.805   2.162
  798W        W 8014  13.122   6.491   0.705
  799W        W 8015   8.750  12.021   7.917
  800W        W 8016   8.666   2.493   1.040
  801W        W 8017  11.792   8.700   8.881
  802W        W 8018   9.984  13.609   8.631
  803W        W 8019   6.828  12.871   1.104
  804W        W 8020   6.766   4.405   2.851
  805W        W 8021   9.921  11.323   0.811
  806W        W 8022   8.704   7.842   2.210
  807W        W 8023   4.904  12.076   9.815
  808W        W 8024   0.031   8.100  10.467
  809W        W 8025   8.933   1.931   9.247
  810W        W 8026  13.020   0.994  11.083
  811W        W 8027  12.157   1.953   3.207
  812W        W 8028  10.222  10.705   9.472
  813W        W 8029  10.035   1.941   1.547
  814W        W 8030   6.633  13.459  11.688
  815W        W 8031   4.112  10.469   3.108
  816W        W 8032   1.102  12.268   0.538
  817W        W 8033   3.039   2.550   9.302
  818W        W 8034   2.961  10.964   3.300
  819W        W 8035  10.244  10.716   1.303
  820W        W 8036   9.297   2.499  10.690
  821W        W 8037  12.933  12.692   0.617
  822W        W 8038  13.233  11.591   1.187
  823W        W 8039   0.692   7.088  10.756
  824W        W 8040   7.056  12.190   0.501
  825W        W 8041   3.811   2.977  10.134
  826W        W 8042   3.073  13.781  11.901
  827W        W 8043   4.746  13.334  11.854
  828W        W 8044   1.861   7.780   2.989
  829W        W 8045   7.917   5.177   8.674
  830W        W 8046  13.236   2.286   8.719
  831W        W 8047   3.744   3.758   0.503
  832W        W 8048   7.155   0.819   0.993
  833W        W 8049   1.830   7.545  10.782
  834W        W 8050   5.655   4.105  11.435
  835W        W 8051   1.708   5.495   2.379
  836W        W 8052   9.715   6.220   0.191
  837W        W 8053  10.959   8.760   9.060
  838W        W 8054   8.069   3.015   1.334
  839W        W 8055   8.841  13.434  10.870
  840W        W 8056   2.845   5.085   9.226
  841W        W 8057   5.810   4.355  11.020
  842W        W 8058   7.508   0.219   2.388
  843W        W 8059  10.885   1.430  11.071
  844W        W 8060   9.334  13.582  10.480
  845W        W 8061   3.447  12.719   7.953
  846W        W 8062  13.509   1.889   2.177
  847W        W 8063  13.908  11.971   3.027
  848W        W 8064   9.832   5.150   1.686
  849W        W 8065   1.745  13.014   1.349
  850W        W 8066  10.601   5.310   0.020
  851W        W 8067   8.071   7.716  10.523
  852W        W 8068   5.957   5.931  11.771
  853W        W 8069   6.878  11.883   9.398
  854W        W 8070   2.776   6.383   3.417
  855W        W 8071  13.017   9.933   9.564
  856W        W 8072   2.058   6.905   7.951
  857W        W 8073   0.353  12.329   1.093
  858W        W 8074  10.212   0.015   8.816
  859W        W 8075  13.513   9.832  10.276
  860W        W 8076   9.025  12.656  11.642
  861W        W 8077   9.427   6.621   0.303
  862W        W 8078   4.151   4.227  11.885
  863W        W 8079   0.824   3.415   9.125
  864W        W 8080   2.196   8.641   1.416
  865W        W 8081   9.351   0.082   2.582
  866W        W 8082  11.729  12.064   1.661
  867W        W 8083   2.785   3.303   2.215
  868W        W 8084   3.892   5.147   0.886
  869W        W 8085   8.826  11.564   3.791
  870W        W 8086   1.915  11.523   9.690
  871W        W 8087   1.785  13.371  11.050
  872W        W 8088   8.406   1.586   8.405
  873W        W 8089   4.153   9.804   8.417
  874W        W 8090  10.119   9.462   3.139
  875W        W 8091  11.046  10.259   3.627
  876W        W 8092   9.570  12.211   3.554
  877W        W 8093   9.987   3.760   9.934
  878W        W 8094  12.317  10.297   1.318
  879W        W 8095   6.913   7.926   2.229
  880W        W 8096   9.584   1.284   0.195
  881W        W 8097  13.100   0.640   2.484
  882W        W 8098   5.022  10.195   3.294
  883W        W 8099  10.176   8.492   2.231
  884W        W 8100  12.997   2.710   1.480
  885W        W 8101   4.228  12.867   3.002
  886W        W 8102   9.813   0.292   0.922
  887W        W 8103   8.034   5.940   9.311
  888W        W 8104   6.433   5.771   0.481
  889W        W 8105   3.414   6.334   2.400
  890W        W 8106   5.353   2.979  11.457
  891W        W 8107  10.588  13.438   1.210
  892W        W 8108  13.159  10.980   3.593
  893W        W 8109   2.451   3.573   1.348
  894W        W 8110   9.017   9.183  10.777
  895W        W 8111  12.838   8.879   1.875
  896W        W 8112   0.153   1.459  11.565
  897W        W 8113   8.506   9.850   3.676
  898W        W 8114   7.777   3.821   7.938
  899W        W 8115   8.184   0.872  10.472
  900W        W 8116   6.377   0.598   0.621
  901W        W 8117   9.158   4.488   9.107
  902W        W 8118  13.272   0.217  11.766
  903W        W 8119   0.391   8.331  10.749
  904W        W 8120   9.822  11.039   3.147
  905W        W 8121   7.544   0.196   0.217
  906W        W 8122   8.908  11.808  11.592
  907W        W 8123  10.794   3.003  11.860
  908W        W 8124   0.214   7.829  10.061
  909W        W 8125   6.482  13.016   0.772
  910W        W 8126   5.526   2.080   0.995
  911W        W 8127   1.018   9.572   0.440
  912W        W 8128   2.078   1.931   7.736
  913W        W 8129  11.169   0.141   8.958
  914W        W 8130   0.690   4.898   0.596
  915W        W 8131   1.778  13.836  10.874
  916W        W 8132   2.905  11.311   8.887
  917W        W 8133   5.702   9.374  10.239
  918W        W 8134   7.382   7.317   3.433
  919W        W 8135   6.995   8.299   2.548
  920W        W 8136   3.307   5.614   8.766
  921W        W 8137   6.624   1.848  10.524
  922W        W 8138   4.181  12.965  10.740
  923W        W 8139   8.615  10.909  11.803
  924W        W 8140  12.360  10.501   9.468
  925W        W 8141   6.970   9.614   7.908
  926W        W 8142   6.641  13.984  11.730
  927W        W 8143   8.619   3.625   9.417
  928W        W 8144   9.626   5.477   2.946
  929W        W 8145   5.635   6.953   9.897
  930W        W 8146   6.436   6.680   9.521
  931W        W 8147   7.726  10.378   1.613
  932W        W 8148   5.888   6.584   9.181
  933W        W 8149   6.362  11.409   8.902
  934W        W 8150   5.374  11.787   0.563
  935W        W 8151   7.479   9.174   2.559
  936W        W 8152   1.945   0.996   0.079
  937W        W 8153   6.604   3.183   0.926
  938W        W 8154   7.154   0.966   8.915
  939W        W 8155  13.141  12.282   1.633
  940W        W 8156   9.359   9.363   1.225
  941W        W 8157  13.193  10.241   3.791
  942W        W 8158   0.129   4.228   0.268
  943W        W 8159   3.540   4.268  10.152
  944W        W 8160   7.455  11.188  11.639
  945W        W 8161   7.098   2.437   8.091
  946W        W 8162   4.262   0.180   2.860
  947W        W 8163  10.780   1.010   9.959
  948W        W 8164   8.086   4.445   4.324
  949W        W 8165   7.763   2.841   8.498
  950W        W 8166   8.241   8.632   3.292
  951W        W 8167  13.311  13.277  10.744
  952W        W 8168   4.062   8.139   9.668
  953W        W 8169  10.338   6.624  10.704
  954W        W 8170   2.286   6.869   2.804
  955W        W 8171   7.798  11.809   0.789
  956W        W 8172  10.794   0.966   9.454
  957W        W 8173   9.962   9.663  11.446
  958W        W 8174  10.941   9.560   9.625
  959W        W 8175   8.452   1.662   3.070
  960W        W 8176   6.216   1.653   8.385
  961W        W 8177   2.780   6.200   1.728
  962W        W 8178   3.579  12.198   1.156
  963W        W 8179  11.798   8.413   0.612
  964W        W 8180   1.976  12.665   0.952
  965W        W 8181  13.441   0.687  11.054
  966W        W 8182   4.946   0.810  11.935
  967W        W 8183   7.581   0.050   0.709
  968W        W 8184   2.652   4.667  11.181
  969W        W 8185   5.931  12.721   2.799
  970W        W 8186   1.811   9.551   2.128
  971W        W 8187   6.526  12.607   3.126
  972W        W 8188   3.983  10.033   1.918
  973W        W 8189   0.671  12.707  11.969
  974W        W 8190   4.039   2.172   9.984
  975W        W 8191   1.718   1.461   3.610
  976W        W 8192   3.923  10.282   2.674
  977W        W 8193  11.541  10.640  11.793
  978W        W 8194  12.098  12.422   2.298
  979W        W 8195   7.807  12.083   8.512
  980W        W 8196   7.577  10.534  11.028
  981W        W 8197   6.201   6.228   3.345
  982W        W 8198   3.297  12.812   2.698
  983W        W 8199   7.282   2.893   0.715
  984W        W 8200  10.394  10.217   2.933
  985W        W 8201   2.181  10.974   9.077
  986W        W 8202   0.542   1.522   1.832
  987W        W 8203   2.683   8.791  11.085
  988W        W 8204   3.805  12.204  10.911
  989W        W 8205   7.183  12.332   0.991
  990W        W 8206  10.317   0.817  10.881
  991W        W 8207  13.828   1.791   8.968
  992W        W 8208   4.683  10.028   0.208
  993W        W 8209   1.214  13.022   2.060
  994W        W 8210   4.007  11.956   9.111
  995W        W 8211   1.633   2.967   0.144
  996W        W 8212  11.774   1.227   3.382
  997W        W 8213   7.766   2.196   1.045
  998W        W 8214   2.403   6.039   3.493
  999W        W 8215   8.562   4.685   2.817
 1000W        W 8216   4.570   1.359   2.504
 1001W        W 8217   0.862   7.779   0.765
 1002W        W 8218   8.169  10.158   1.510
 1003W        W 8219  10.762   3.804   9.360
 1004W        W 8220  11.398  13.289   0.852
 1005W        W 8221  10.369  11.201   2.043
 1006W        W 8222  10.247   7.800   8.463
 1007W        W 8223  10.291  11.711   0.992
 1008W        W 8224   9.675   8.865   3.521
 1009W        W 8225  11.433   2.189   0.904
 1010W        W 8226   2.316   5.178   8.342
 1011W        W 8227   1.946   3.782   0.566
 1012W        W 8228   7.900   4.791   9.934
 1013W        W 8229  10.713   7.150   1.170
 1014W        W 8230  10.613   6.376   7.771
 1015W        W 8231  10.084   1.628   3.194
 1016W        W 8232   7.991   6.952   0.732
 1017W        W 8233   0.696   5.037   0.100
 1018W        W 8234   8.825  10.628   8.104
 1019W        W 8235   1.129   5.474   1.730
 1020W        W 8236   3.585   8.589   8.456
 1021W        W 8237   3.754   5.516   1.203
 1022W        W 8238   8.379  11.452   1.941
 1023W        W 8239   8.930   6.037  10.038
 1024W        W 8240   6.680   6.219  10.749
 1025W        W 8241  12.721  11.355   2.868
 1026W        W 8242   2.568   4.871   3.222
 1027W        W 8243   9.292  10.536   9.171
 1028W        W 8244   8.768  10.984   2.469
 1029W        W 8245   7.275   1.989   7.816
 1030W        W 8246  11.110  10.417   0.873
 1031W        W 8247  10.180   6.753  11.197
 1032W        W 8248  11.799  11.990   1.127
 1033W        W 8249  12.535   5.875   0.613
 1034W        W 8250   1.092   0.792   3.270
 1035W        W 8251   9.632   8.779   1.457
 1036W        W 8252   5.635  11.186   9.077
 1037W        W 8253   2.897  10.485  10.426
 1038W        W 8254   6.391   2.310   1.239
 1039W        W 8255  12.739   2.269   9.293
 1040W        W 8256   8.553   7.610  10.617
 1041W        W 8257   7.133  12.777   1.500
 1042W        W 8258  13.593   1.823  11.131
 1043W        W 8259  10.709   4.280   9.728
 1044W        W 8260   8.975   0.478  10.750
 1045W        W 8261   6.734   5.435   1.746
 1046W        W 8262   4.114   1.410   2.271
 1047W        W 8263  12.753  10.932  10.738
 1048W        W 8264   4.736  11.985  10.967
 1049W        W 8265  13.637  11.368   9.312
 1050W        W 8266   6.473   5.858   1.014
 1051W        W 8267   0.585   3.380   2.336
 1052W        W 8268   2.164   3.896   8.329
 1053W        W 8269   1.632  11.285   0.034
 1054W        W 8270  10.712   6.421   9.768
 1055W        W 8271   3.173   2.916   3.421
 1056W        W 8272   0.872  11.823   0.419
 1057W        W 8273   7.940  10.384   8.512
 1058W        W 8274   6.667   4.405   8.295
 1059W        W 8275  10.447   9.666   8.771
 1060W        W 8276  12.062   7.396   1.193
 1061W        W 8277  11.508   6.078   8.940
 1062W        W 8278   9.855   5.514  10.982
 1063W        W 8279   0.677   1.268  10.254
 1064W        W 8280   8.256   0.412  10.166
 1065W        W 8281   6.645  12.776   8.531
 1066W        W 8282   8.288   0.990   2.495
 1067W        W 8283   2.924   6.209   2.434
 1068W        W 8284   0.651  11.244   3.477
 1069W        W 8285   4.068   5.449  10.287
 1070W        W 8286   7.427   1.238   9.585
 1071W        W 8287  13.424   2.710   9.061
 1072W        W 8288   1.293   2.191   8.822
 1073W        W 8289   1.909  12.571   9.721
 1074W        W 8290   3.095   0.385   1.262
 1075W        W 8291   7.182  11.616  10.833
 1076W        W 8292   2.369   0.845   8.335
 1077W        W 8293   0.751  12.664   0.503
 1078W        W 8294  12.218   4.673   4.088
 1079W        W 8295   9.673   8.567   2.284
 1080W        W 8296   8.890  13.211   3.941
 1081W        W 8297   3.148  12.843   9.018
 1082W        W 8298   5.212   9.324   0.682
 1083W        W 8299   4.939  12.517   1.872
 1084W        W 8300   0.771   5.123  10.248
 1085W        W 8301   0.159   1.235   3.022
 1086W        W 8302  13.914  13.166   2.559
 1087W        W 8303  10.132  11.998   0.610
 1088W        W 8304   3.804   6.536   9.768
 1089W        W 8305  11.498   2.877   0.977
 1090W        W 8306   1.815  10.809   3.032
 1091W        W 8307  12.850   5.666   2.757
 1092W        W 8308   3.722   2.886   0.832
 1093W        W 8309   7.064   3.361   2.646
 1094W        W 8310  12.738   5.999   8.791
 1095W        W 8311   9.557   0.782   8.741
 1096W        W 8312  11.676   6.817   1.980
 1097W        W 8313   3.056   1.251   9.685
 1098W        W 8314   6.089   9.841   8.356
 1099W        W 8315   1.115  12.267   8.753
 1100W        W 8316  12.627   6.410   8.507
 1101W        W 8317  12.478   3.610   8.616
 1102W        W 8318  12.748   4.475   8.876
 1103W        W 8319  12.821   0.475  11.850
 1104W        W 8320  12.400   7.106   2.485
 1105W        W 8321  12.922   2.192   3.515
 1106W        W 8322   7.407  13.539   1.553
 1107W        W 8323   8.681   8.158  11.035
 1108W        W 8324   2.888   6.763  11.747
 1109W        W 8325   0.626   4.231   2.641
 1110W        W 8326   1.142   9.766   9.959
 1111W        W 8327   7.972  11.889  11.491
 1112W        W 8328   8.101   1.009   8.736
 1113W        W 8329   3.156   6.302   8.839
 1114W        W 8330   1.363  11.787   2.444
 1115W        W 8331   5.864   1.680  10.026
 1116W        W 8332  13.508   0.238   1.646
 1117W        W 8333  10.356   9.345  11.443
 1118W        W 8334   5.057   1.165  11.117
 1119W        W 8335   1.084   9.007   9.202
 1120W        W 8336   8.713   1.413   1.798
 1121W        W 8337   0.103   2.190  10.253
 1122W        W 8338  12.885   9.528  10.726
 1123W        W 8339  12.246   4.748   3.575
 1124W        W 8340   4.137  10.665  10.643
 1125W        W 8341  12.812   6.647  10.363
 1126W        W 8342  11.108   0.756   1.466
 1127W        W 8343   6.923   2.864  10.592
 1128W        W 8344  13.262   9.295  11.030
 1129W        W 8345   9.262  13.153   7.667
 1130W        W 8346   5.928  12.471   0.756
 1131W        W 8347  12.810  11.527   0.064
 1132W        W 8348   8.198   6.299   2.163
 1133W        W 8349  13.401  10.060   9.223
 1134W        W 8350  11.494   6.123   2.213
 1135W        W 8351   7.326  11.735   9.660
 1136W        W 8352   0.065  11.547   0.552
 1137W        W 8353  10.392   8.787   2.969
 1138W        W 8354   5.021   4.316  11.518
 1139W        W 8355  11.481   9.988   9.591
 1140W        W 8356   7.397   8.330  10.585
 1141W        W 8357   5.612   9.105  10.650
 1142W        W 8358  10.031   9.393   8.606
 1143W        W 8359   8.104  13.329   9.153
 1144W        W 8360   0.107   1.494   1.072
 1145W        W 8361  12.030   8.688  11.783
 1146W        W 8362   9.278   9.703   9.034
 1147W        W 8363   2.789   5.097   2.815
 1148W        W 8364   4.387   0.141   9.357
 1149W        W 8365   3.892   1.727  10.712
 1150W        W 8366   5.112   1.281   9.681
 1151W        W 8367   9.869   7.477   8.588
 1152W        W 8368  11.997  10.902  11.753
 1153W        W 8369   8.427  12.309   0.925
 1154W        W 8370   5.198  11.301  10.337
 1155W        W 8371  10.575  10.413   2.058
 1156W        W 8372   9.853   5.640   2.516
 1157W        W 8373   0.988   6.201   2.743
 1158W        W 8374  12.460   4.839   8.071
 1159W        W 8375   1.146   2.667   8.765
 1160W        W 8376   1.666   1.302   2.588
 1161W        W 8377   9.246  10.225   1.926
 1162W        W 8378   6.334   2.590   9.907
 1163W        W 8379   5.092   4.115  10.858
 1164W        W 8380   4.634  13.683   1.208
 1165W        W 8381   7.995   2.515   8.835
 1166W        W 8382  12.679  11.687   9.368
 1167W        W 8383   7.312   2.968  10.975
 1168W        W 8384   0.548   0.269   2.284
 1169W        W 8385  11.319  10.831   1.684
 1170W        W 8386   0.461   3.884   2.263
 1171W        W 8387   0.247  11.860   0.931
 1172W        W 8388   9.237   1.863   0.046
 1173W        W 8389   7.638   5.821   0.919
 1174W        W 8390   8.431  13.030   3.075
 1175W        W 8391  11.662   4.050  11.588
 1176W        W 8392   6.662   2.106   4.187
 1177W        W 8393   3.623   6.064  10.771
 1178W        W 8394  12.806   4.746  11.917
 1179W        W 8395  10.798  12.727   9.235
 1180W        W 8396  12.486  10.672   7.987
 1181W        W 8397   6.793   0.504  11.723
 1182W        W 8398  12.439   0.495   0.305
 1183W        W 8399   9.201   6.450  11.484
 1184W        W 8400   8.328   1.217  10.870
 1185W        W 8401   1.128   8.599   0.128
 1186W        W 8402   0.793  12.570   1.017
 1187W        W 8403  13.665   2.701  11.128
 1188W        W 8404   8.940   1.607  11.737
 1189W        W 8405  11.609   7.613   8.597
 1190W        W 8406   3.658   2.036  10.350
 1191W        W 8407   3.735   7.963   0.163
 1192W        W 8408  10.687  12.702   2.957
 1193W        W 8409   4.968  10.384   1.153
 1194W        W 8410   5.574   0.884  11.352
 1195W        W 8411   4.834   7.927   9.594
 1196W        W 8412   9.561  13.656   9.448
 1197W        W 8413  10.872   6.709   2.590
 1198W        W 8414   8.999   8.331   9.511
 1199W        W 8415   2.695   6.911   9.103
 1200W        W 8416   5.111   7.422   3.324
 1201W        W 8417   3.106   3.387   9.883
 1202W        W 8418   9.321   0.825  11.596
 1203W        W 8419   4.527   6.827  10.112
 1204W        W 8420   6.398  11.004   1.729
 1205W        W 8421   6.478   9.137   2.409
 1206W        W 8422  11.716   1.185   2.458
 1207W        W 8423   0.623   4.064   0.767
 1208W        W 8424  11.112  11.430   1.029
 1209W        W 8425   8.159   3.073   0.823
 1210W        W 8426  10.719   9.800  10.463
 1211W        W 8427   6.027   0.389   4.540
 1212W        W 8428   6.474   4.671   2.535
 1213W        W 8429  12.059   5.080  10.168
 1214W        W 8430  10.753   2.440   1.454
 1215W        W 8431   0.803   5.231   8.538
 1216W        W 8432   2.777   5.457  10.800
 1217W        W 8433   3.239   8.909  10.373
 1218W        W 8434   5.672   9.188   0.181
 1219W        W 8435  12.415   9.215   8.444
 1220W        W 8436   8.788   0.586  11.607
 1221W        W 8437   7.755   6.525   0.625
 1222W        W 8438   0.852  11.656   1.610
 1223W        W 8439  12.549  12.520   9.685
 1224W        W 8440   5.146   8.041   0.197
 1225W        W 8441   8.715   2.759   9.370
 1226W        W 8442   5.436  13.353   1.583
 1227W        W 8443   8.609   3.124   8.518
 1228W        W 8444   3.804  12.870   0.688
 1229W        W 8445   0.029   5.650   9.963
 1230W        W 8446   5.126   0.997   1.186
 1231W        W 8447   4.899   6.629   8.873
 1232W        W 8448  12.179  10.902   3.487
 1233W        W 8449   0.162   1.096   9.218
 1234W        W 8450   3.689   1.837   8.325
 1235W        W 8451  11.995  13.654  10.920
 1236W        W 8452   9.599   9.197   0.759
 1237W        W 8453   9.585   9.127   8.625
 1238W        W 8454   1.575   7.459  11.942
 1239W        W 8455   7.124   0.006  10.553
 1240W        W 8456  10.885  11.898   1.048
 1241W        W 8457   8.779   2.935   2.730
 1242W        W 8458   8.419   4.787   8.618
 1243W        W 8459   8.517   2.303  10.943
 1244W        W 8460  12.527   7.142   1.118
 1245W        W 8461   8.487   4.277  10.824
 1246W        W 8462   3.241   5.941   3.678
 1247W        W 8463   1.506   9.155   2.605
 1248W        W 8464   8.210   7.384   0.790
 1249W        W 8465   1.359   5.755   2.080
 1250W        W 8466   5.548  13.857  11.293
 1251W        W 8467   3.099   1.038   7.723
 1252W        W 8468  10.887   7.280  11.268
 1253W        W 8469   9.301   2.495  11.871
 1254W        W 8470  11.450   0.802   1.073
 1255W        W 8471   3.371  11.659   2.327
 1256W        W 8472   5.892  10.671   3.276
 1257W        W 8473   7.751  10.934  11.320
 1258W        W 8474  11.394   0.897   3.205
 1259W        W 8475   8.709   9.033  11.172
 1260W        W 8476   7.191   5.293  10.415
 1261W        W 8477   7.028  12.612   1.982
 1262W        W 8478   0.930  10.782   2.925
 1263W        W 8479   1.057  10.692   8.598
 1264W        W 8480  13.925  13.344   0.882
 1265W        W 8481   8.897   7.097   0.448
 1266W        W 8482   2.116  11.357   0.550
 1267W        W 8483   5.746   1.467  10.488
 1268W        W 8484  10.004   6.269   9.101
 1269W        W 8485   7.818  13.703  11.781
 1270W        W 8486   5.153  12.856   9.473
 1271W        W 8487   0.119   5.036  10.886
 1272W        W 8488  10.644   8.488   9.333
 1273W        W 8489   9.069  12.772   7.970
 1274W        W 8490   0.866   8.478   8.477
 1275W        W 8491   2.658  11.479   8.414
 1276W        W 8492   7.160  13.019   9.040
 1277W        W 8493   5.846   6.556   0.386
 1278W        W 8494   7.022   9.499   8.936
 1279W        W 8495  10.362   4.535  11.806
 1280W        W 8496   9.944   6.979   8.614
 1281W        W 8497   0.411  13.048   8.055
 1282W        W 8498   8.579  10.666   2.805
 1283W        W 8499   9.389   0.598  10.489
 1284W        W 8500   7.842   1.764   4.292
 1285W        W 8501  12.579   2.630  10.721
 1286W        W 8502   3.988   7.584   0.770
 1287W        W 8503   6.374   7.330   8.807
 1288W        W 8504   2.082  12.644   1.490
 1289W        W 8505   4.011   5.840  11.509
 1290W        W 8506  10.986   7.406  10.329
 1291W        W 8507   6.556   4.029   9.199
 1292W        W 8508   0.199   3.832  11.200
 1293W        W 8509   2.086   7.640   2.506
 1294W        W 8510  12.849  12.692   8.609
 1295W        W 8511  12.824  11.680   0.915
 1296W        W 8512   7.340  13.224   0.302
 1297W        W 8513  12.124   1.017   8.194
 1298W        W 8514  10.239   6.363   4.198
 1299W        W 8515   1.702  11.369   9.186
 1300W        W 8516   3.654   2.676  11.809
 1301W        W 8517   2.707   5.160  10.368
 1302W        W 8518   1.999   8.258   9.059
 1303W        W 8519   9.599   6.182   1.131
 1304W        W 8520  11.941  11.483   1.261
 1305W        W 8521   4.602  10.245   2.100
 1306W        W 8522   7.112  12.046   8.993
 1307W        W 8523   3.099   4.537   1.976
 1308W        W 8524   8.058   3.668   2.083
 1309W        W 8525   5.338  11.657   2.125
 1310W        W 8526   9.882   5.068   9.780
 1311W        W 8527   7.908   7.174   8.275
 1312W        W 8528  10.092  12.435  10.433
 1313W        W 8529   2.586   7.545   2.780
 1314W        W 8530  12.521   4.527   3.162
 1315W        W 8531   8.251   0.229   1.262
 1316W        W 8532   0.688   8.144   9.967
 1317W        W 8533   8.591   5.037   0.621
 1318W        W 8534  12.603   2.639   2.748
 1319W        W 8535   4.253   6.378   1.833
 1320W        W 8536   7.072   8.822   9.568
 1321W        W 8537   0.650   5.650  10.612
 1322W        W 8538  10.675   7.303   1.659
 1323W        W 8539   0.953   5.005   1.654
 1324W        W 8540  13.217   3.836   8.459
 1325W        W 8541   8.604  11.274  11.429
 1326W        W 8542   3.014  13.287  11.875
 1327W        W 8543   0.588   2.663  10.886
 1328W        W 8544   0.119  13.252   3.429
 1329W        W 8545   4.089   2.066   2.799
 1330W        W 8546   9.607  10.549   3.852
 1331W        W 8547   9.062   6.848  10.531
 1332W        W 8548   2.387   7.635  10.078
 1333W        W 8549   2.899  12.536   1.967
 1334W        W 8550   7.297   7.830   0.721
 1335W        W 8551   3.128   9.476   0.963
 1336W        W 8552  12.424  13.899   9.066
 1337W        W 8553   5.636  10.141   3.011
 1338W        W 8554   0.639   2.462  11.388
 1339W        W 8555   5.345   5.440  11.557
 1340W        W 8556  12.406  11.241   0.133
 1341W        W 8557   6.276   4.831   9.707
 1342W        W 8558   5.512   9.978   2.066
 1343W        W 8559   1.093  10.146   1.011
 1344W        W 8560  11.258   0.070   4.171
 1345W        W 8561   8.686  13.979   9.091
 1346W        W 8562  13.700   1.399  11.373
 1347W        W 8563   4.215   7.691   3.264
 1348W        W 8564  10.072  10.731   8.656
 1349W        W 8565   7.582  11.401  11.120
 1350W        W 8566  10.541  10.509   0.072
 1351W        W 8567   0.262   6.080   2.644
 1352W        W 8568  11.596   6.297   8.483
 1353W        W 8569   7.307  12.008   8.542
 1354W        W 8570   3.302  13.736   3.010
 1355W        W 8571   8.710   2.228   1.476
 1356W        W 8572   9.411   4.566   2.819
 1357W        W 8573   7.668   3.550   0.207
 1358W        W 8574   8.963  11.072   8.927
 1359W        W 8575   1.132   8.309   2.487
 1360W        W 8576   2.456   9.429   3.308
 1361W        W 8577   1.543  10.476   8.430
 1362W        W 8578  10.029  11.150   1.632
 1363W        W 8579   7.369   5.062   0.969
 1364W        W 8580   2.053  13.711   8.879
 1365W        W 8581   6.076  12.222  10.987
 1366W        W 8582   7.038   6.138   0.369
 1367W        W 8583  11.709   9.158   2.301
 1368W        W 8584   8.992  10.845   9.390
 1369W        W 8585  12.516   4.341   3.671
 1370W        W 8586   2.549  11.909  10.392
 1371W        W 8587   2.353  12.563   9.029
 1372W        W 8588  11.613   8.064   0.969
 1373W        W 8589   6.039   5.643   0.180
 1374W        W 8590   1.388   4.727   1.669
 1375W        W 8591  12.034  12.463   1.003
 1376W        W 8592  11.850   8.285   0.095
 1377W        W 8593   5.528   9.933   9.434
 1378W        W 8594   4.320   7.328  10.078
 1379W        W 8595  13.684   9.127   8.844
 1380W        W 8596  10.392   4.224   3.903
 1381W        W 8597  12.447   9.665   2.778
 1382W        W 8598  10.766  13.561  10.042
 1383W        W 8599  13.140   2.376   3.007
 1384W        W 8600  12.525   5.582   1.025
 1385W        W 8601   1.704   9.356   3.461
 1386W        W 8602  10.780   8.479  11.241
 1387W        W 8603  12.104   0.483   3.103
 1388W        W 8604  11.713   0.390   0.964
 1389W        W 8605   1.670   4.879   8.796
 1390W        W 8606  13.952   3.772   0.128
 1391W        W 8607   0.208   7.386   3.018
 1392W        W 8608  12.037  13.244  10.036
 1393W        W 8609   2.054  11.729  11.300
 1394W        W 8610   5.468   6.556   1.282
 1395W        W 8611   4.276  13.284   3.348
 1396W        W 8612   9.449  13.104   2.292
 1397W        W 8613   5.987  12.160  11.479
 1398W        W 8614   2.782   3.748   2.425
 1399W        W 8615   3.512   8.362  11.095
 1400W        W 8616   1.584  10.645   0.793
 1401W        W 8617   3.452  13.478   0.097
 1402W        W 8618   1.161   8.641  10.698
 1403W        W 8619   2.198   6.266  10.444
 1404W        W 8620   1.739   0.490  10.022
 1405W        W 8621   3.520   8.841  11.928
 1406W        W 8622   2.484   8.899   9.681
 1407W        W 8623   6.397   9.534   0.270
 1408W        W 8624   9.912  12.243   7.636
 1409W        W 8625  13.225  11.211  10.892
 1410W        W 8626   5.661   9.660   9.026
 1411W        W 8627   7.271   3.507   9.555
 1412W        W 8628   0.206   2.559   3.117
 1413W        W 8629   1.104   9.512  11.616
 1414W        W 8630  11.389  10.053   1.915
 1415W        W 8631   0.744   1.527   2.303
 1416W        W 8632   3.331   2.295  11.202
 1417W        W 8633   5.478   4.844   8.608
 1418W        W 8634   7.922   9.249   9.350
 1419W        W 8635   4.759  11.885  11.946
 1420W        W 8636   5.861   7.419   9.650
 1421W        W 8637   6.552   8.470   1.623
 1422W        W 8638   9.563   3.441   3.378
 1423W        W 8639   4.537  10.025   9.118
 1424W        W 8640   2.991   4.977   1.188
 1425W        W 8641   5.109   1.200   2.498
 1426W        W 8642  11.588   5.582   9.578
 1427W        W 8643   9.808   7.958   3.027
 1428W        W 8644   8.887  12.132   0.970
 1429W        W 8645   7.356   3.844   0.518
 1430W        W 8646   4.478  10.822   2.322
 1431W        W 8647   5.479   4.459  11.735
 1432W        W 8648   1.733  12.370  10.562
 1433W        W 8649  10.673  11.854  10.315
 1434W        W 8650   7.831   4.003   0.436
 1435W        W 8651  12.384  13.463   1.727
 1436W        W 8652   3.547  11.947  10.566
 1437W        W 8653   6.915   9.215   8.175
 1438W        W 8654  11.295   0.567   0.648
 1439W        W 8655   4.540   2.703  11.662
 1440W        W 8656  12.550   2.175  11.380
 1441W        W 8657   7.034   0.412   2.426
 1442W        W 8658   9.945   7.210   0.587
 1443W        W 8659   7.107   6.971   0.158
 1444W        W 8660   3.181   2.442   9.788
 1445W        W 8661   3.490   3.257   0.543
 1446W        W 8662   7.525   5.963   9.252
 1447W        W 8663  11.860   4.000   8.916
 1448W        W 8664   6.828   1.203   0.875
 1449W        W 8665   7.000   6.039   2.888
 1450W        W 8666  12.230   9.873   9.144
 1451W        W 8667   4.704  13.679   1.987
 1452W        W 8668   0.885   4.679  11.437
 1453W        W 8669   6.878  12.397   3.667
 1454W        W 8670  10.033   3.635   3.283
 1455W        W 8671  12.600  13.730   2.734
 1456W        W 8672   9.214   0.537   0.313
 1457W        W 8673  12.857  10.018  10.983
 1458W        W 8674  13.313  11.135   2.062
 1459W        W 8675   0.570   4.791   8.747
 1460W        W 8676   1.931  12.838   9.139
 1461W        W 8677   8.875  13.247   9.312
 1462W        W 8678   6.984   7.669  11.310
 1463W        W 8679   9.008   4.604  10.108
 1464W        W 8680   6.292   4.248  10.924
 1465W        W 8681  11.704  10.050   3.080
 1466W        W 8682   1.741   6.475   0.140
 1467W        W 8683  13.088  11.731   4.054
 1468W        W 8684   1.207   6.542   2.430
 1469W        W 8685   4.891  10.512   8.301
 1470W        W 8686   4.742   9.822   9.550
 1471W        W 8687   7.514   9.450   9.126
 1472W        W 8688   9.365   3.442  11.707
 1473W        W 8689  10.077   0.666   0.043
 1474W        W 8690   2.309  11.466   1.763
 1475W        W 8691   3.132   5.605   1.908
 1476W        W 8692   7.798   3.048   0.450
 1477W        W 8693   2.588   4.132  11.979
 1478W        W 8694  11.005  10.166   4.124
 1479W        W 8695  10.093   4.191   0.128
 1480W        W 8696   6.607  11.003  10.669
 1481W        W 8697   6.800   2.676   8.895
 1482W        W 8698   6.578   2.498   0.155
 1483W        W 8699   0.742  11.551  10.908
 1484W        W 8700   5.536   5.509   0.915
 1485W        W 8701   4.159   7.655   2.279
 1486W        W 8702  12.621   3.170   1.031
 1487W        W 8703   5.620   9.844   8.538
 1488W        W 8704   2.268   9.052   1.109
 1489W        W 8705   0.828   5.167  11.623
 1490W        W 8706  11.977   6.186   9.170
 1491W        W 8707  10.806   5.108   2.484
 1492W        W 8708   4.229  13.680   9.516
 1493W        W 8709  12.909   8.762   2.367
 1494W        W 8710  10.861   5.183  11.106
 1495W        W 8711   1.155  11.316   2.385
 1496W        W 8712  10.318   7.390  11.129
 1497W        W 8713   0.900   2.083  10.247
 1498W        W 8714  13.499   4.982   3.817
 1499W        W 8715  11.697   0.171  11.718
 1500W        W 8716   5.753  11.107   9.583
 1501W        W 8717   1.873   5.508   4.033
 1502W        W 8718   7.488  13.606   2.049
 1503W        W 8719   9.683   0.317   1.709
 1504W        W 8720   6.384   8.674   3.226
 1505W        W 8721  12.773   1.539   7.846
 1506W        W 8722  11.242   0.894   0.284
 1507W        W 8723   6.968   1.954  11.409
 1508W        W 8724   3.156   4.219   1.563
 1509W        W 8725   3.076  13.393  10.930
 1510W        W 8726   6.894  10.221   8.602
 1511W        W 8727   7.844   1.373   7.580
 1512W        W 8728   8.203   8.446   2.219
 1513W        W 8729  12.076   1.556   2.333
 1514W        W 8730   5.238  10.888   0.644
 1515W        W 8731   7.890   5.457  11.099
 1516W        W 8732   2.389   0.371   0.327
 1517W        W 8733   8.816   2.726   1.501
 1518W        W 8734   3.866  10.059   0.638
 1519W        W 8735   8.895   3.248  11.723
 1520W        W 8736   2.408  10.388   0.510
 1521W        W 8737  10.404   0.378   8.538
 1522W        W 8738   5.744  11.413   1.313
 1523W        W 8739   8.853   8.847   9.108
 1524W        W 8740  13.519  10.734   9.331
 1525W        W 8741   7.462   7.723   1.176
 1526W        W 8742   0.520   1.240   8.760
 1527W        W 8743  11.536   9.273   9.526
 1528W        W 8744   0.339   7.035   9.369
 1529W        W 8745   1.564   0.686   1.728
 1530W        W 8746   2.002  12.589  10.920
 1531W        W 8747   9.045   2.893   8.996
 1532W        W 8748   7.967   7.344   2.205
 1533W        W 8749   0.411   8.381   1.819
 1534W        W 8750   4.001   3.113   1.717
 1535W        W 8751   9.413   6.275   8.898
 1536W        W 8752  11.767   0.818   8.509
 1537W        W 8753   9.197   6.231   0.538
 1538W        W 8754   5.779   5.676   7.658
 1539W        W 8755   5.538   3.816   3.432
 1540W        W 8756   6.535   6.123   1.964
 1541W        W 8757   7.665   5.986   2.282
 1542W        W 8758   3.408   0.056   0.159
 1543W        W 8759  11.990   4.039   2.596
 1544W        W 8760   2.150   4.678   3.428
 1545W        W 8761   0.703  12.667   9.776
 1546W        W 8762  11.135  10.302   3.119
 1547W        W 8763  11.559   4.236  10.755
 1548W        W 8764  13.190   2.937   8.634
 1549W        W 8765   6.092   6.356   8.680
 1550W        W 8766   7.010   2.027   3.086
 1551W        W 8767  10.241   1.817   2.010
 1552W        W 8768   8.869   4.560  10.592
 1553W        W 8769   0.864   0.651   1.498
 1554W        W 8770  10.127   9.539   9.261
 1555W        W 8771   0.902   8.109   9.125
 1556W        W 8772   1.665   4.421   8.434
 1557W        W 8773   8.192  11.900   2.175
 1558W        W 8774   8.871   5.816  11.882
 1559W        W 8775  10.136  11.820  11.679
 1560W        W 8776   0.336   1.889   2.093
 1561W        W 8777  12.263  12.929   2.322
 1562W        W 8778  12.483  11.789   3.007
 1563W        W 8779   1.303  10.596   3.226
 1564W        W 8780   4.088  10.438   0.383
 1565W        W 8781   2.984   1.956  11.083
 1566W        W 8782   0.955  11.737   2.146
 1567W        W 8783   0.681  13.796   2.340
 1568W        W 8784   9.930   3.761  11.855
 1569W        W 8785  12.942   7.614   1.368
 1570W        W 8786   9.741   4.312  11.193
 1571W        W 8787  10.152   5.012   3.075
 1572W        W 8788  11.919  10.224   9.394
 1573W        W 8789   6.138  10.122  10.033
 1574W        W 8790   3.488   5.765   3.247
 1575W        W 8791   4.131   6.984   9.778
 1576W        W 8792   7.599  11.118   3.480
 1577W        W 8793  12.886  11.405   8.970
 1578W        W 8794   9.975  11.881   8.027
 1579W        W 8795   6.483   1.991   0.839
 1580W        W 8796   2.629   1.562  11.728
 1581W        W 8797  10.972   0.812   2.519
 1582W        W 8798   3.772   4.744   9.293
 1583W        W 8799  11.832   3.203   7.924
 1584W        W 8800   7.378   8.054   9.785
 1585W        W 8801   2.604   8.319   1.399
 1586W        W 8802  12.424   9.459   4.558
 1587W        W 8803   3.788  13.744   3.922
 1588W        W 8804   0.671   9.791   1.296
 1589W        W 8805   4.261   4.413   3.221
 1590W        W 8806   9.593   2.238   8.284
 1591W        W 8807   7.507   6.883  10.273
 1592W        W 8808   5.855   4.551   7.790
 1593W        W 8809   5.083   0.115  10.420
 1594W        W 8810  12.385   2.498  11.745
 1595W        W 8811   6.561   3.654  10.844
 1596W        W 8812   9.732  13.007   1.494
 1597W        W 8813   9.335   5.866  10.245
 1598W        W 8814   0.339   8.783   2.949
 1599W        W 8815   0.148   4.769  10.046
 1600W        W 8816   9.994   8.705   2.656
 1601W        W 8817   3.015   4.688   8.943
 1602W        W 8818   5.276   3.976   0.381
 1603W        W 8819   2.902  13.555   2.652
 1604W        W 8820   7.198   5.380   7.818
 1605W        W 8821   0.150   6.218   1.746
 1606W        W 8822   1.687   2.018   2.962
 1607W        W 8823   9.499   1.884   1.561
 1608W        W 8824   5.046  13.990   2.969
 1609W        W 8825   5.915  12.028   8.394
 1610W        W 8826   6.606   0.160   2.263
 1611W        W 8827   7.745   1.021   2.175
 1612W        W 8828   0.573   8.406   3.179
 1613W        W 8829   4.532   0.449  11.949
 1614W        W 8830   9.911   3.727   2.581
 1615W        W 8831   3.029  12.382   1.106
 1616W        W 8832   3.373  13.425   9.267
 1617W        W 8833   7.895   8.735   9.344
 1618W        W 8834  13.737   1.649   0.062
 1619W        W 8835   4.641  12.892   1.618
 1620W        W 8836  13.897   3.115   2.568
 1621W        W 8837  11.636   8.638   2.218
 1622W        W 8838  11.227  10.566  11.297
 1623W        W 8839   0.257   9.997   9.042
 1624W        W 8840   0.157   8.666  11.038
 1625W        W 8841   8.928   0.800   1.797
 1626W        W 8842  11.632   9.333   7.861
 1627W        W 8843  10.196   6.152  10.523
 1628W        W 8844   3.972   5.395   9.790
 1629W        W 8845   3.144   9.717   1.407
 1630W        W 8846   2.299  10.712   2.907
 1631W        W 8847  13.451   3.180   2.767
 1632W        W 8848  13.269  13.086  11.736
 1633W        W 8849  10.555  13.577  10.910
 1634W        W 8850   7.084  13.833   9.720
 1635W        W 8851   9.217  13.902  10.104
 1636W        W 8852   4.088   7.493   2.790
 1637W        W 8853   1.828   9.625   0.782
 1638W        W 8854   8.741   7.058   2.440
 1639W        W 8855  12.543  10.253   8.377
 1640W        W 8856  13.010   8.452   9.868
 1641W        W 8857   1.509  11.378   3.969
 1642W        W 8858  11.871   8.110   3.585
 1643W        W 8859   4.782   9.213   2.512
 1644W        W 8860  12.664   9.944  10.001
 1645W        W 8861   8.330   2.268   0.709
 1646W        W 8862   5.034   3.177   8.530
 1647W        W 8863   0.639   5.945   3.008
 1648W        W 8864   2.017  12.040   8.341
 1649W        W 8865  12.521   5.953   8.321
 1650W        W 8866   5.774   2.251  11.692
 1651W        W 8867   4.528   8.962   2.120
 1652W        W 8868   9.555   7.479  10.445
 1653W        W 8869   3.630   6.239   1.142
 1654W        W 8870   7.803   0.893  11.331
 1655W        W 8871  12.508   2.734   1.279
 1656W        W 8872  12.621   9.675   9.404
 1657W        W 8873   1.030   6.171   7.996
 1658W        W 8874   3.777   6.254  10.220
 1659W        W 8875  11.693   0.420   8.194
 1660W        W 8876   1.624   5.237  10.541
 1661W        W 8877   9.787   1.078  11.690
 1662W        W 8878   9.253  11.185   0.963
 1663W        W 8879  12.684   8.800   3.212
 1664W        W 8880   0.567   5.355   1.824
 1665W        W 8881  10.611  12.969  11.665
 1666W        W 8882   6.501   2.980   2.578
 1667W        W 8883   4.316  13.266  11.541
 1668W        W 8884   9.981   0.532  11.180
 1669W        W 8885   0.981  12.006   2.779
 1670W        W 8886   0.802   2.949   9.899
 1671W        W 8887   1.628   0.087  11.278
 1672W        W 8888   5.639   6.890  11.734
 1673W        W 8889  11.537   3.700   9.132
 1674W        W 8890   4.360   5.147  10.580
 1675W        W 8891   6.636   4.075  10.600
 1676W        W 8892   1.326  11.629   1.442
 1677W        W 8893  12.604   1.139   3.569
 1678W        W 8894   2.873   8.254  11.004
 1679W        W 8895   5.819   3.517   2.262
 1680W        W 8896  13.196   3.458   2.373
 1681W        W 8897   1.449  11.679   9.752
 1682W        W 8898   6.726  11.767  11.084
 1683W        W 8899  12.391   1.995   1.092
 1684W        W 8900   2.433   9.321   8.882
 1685W        W 8901  10.431   5.838   1.648
 1686W        W 8902  12.165   2.456   1.047
 1687W        W 8903  13.972  11.290   4.032
 1688W        W 8904  13.960   7.073  10.311
 1689W        W 8905  12.048   7.511   2.412
 1690W        W 8906   6.387   9.239   1.894
 1691W        W 8907   7.436   8.414  11.149
 1692W        W 8908   0.336   6.693   1.730
 1693W        W 8909   8.285   5.103   2.893
 1694W        W 8910   7.841   5.231   1.294
 1695W        W 8911  11.065   4.823  11.396
 1696W        W 8912   2.285  10.999   8.529
 1697W        W 8913   0.753  10.572   1.740
 1698W        W 8914  10.341  13.042   9.222
 1699W        W 8915   8.124   1.993  10.829
 1700W        W 8916   2.404   3.005   8.866
 1701W        W 8917   7.960   1.820   1.404
 1702W        W 8918   4.129   4.504   8.359
 1703W        W 8919   1.572   3.956   1.510
 1704W        W 8920   7.874   8.167   0.274
 1705W        W 8921   3.493   9.198   9.306
 1706W        W 8922  11.295   2.851  11.015
 1707W        W 8923  11.463   9.498   1.947
 1708W        W 8924   3.786   8.915  10.249
 1709W        W 8925   4.892   2.785   8.865
 1710W        W 8926   2.027  10.663  10.859
 1711W        W 8927   4.728   8.309   8.474
 1712W        W 8928  10.175  11.910  10.392
 1713W        W 8929   4.499  11.530  10.807
 1714W        W 8930   1.380   6.345  11.066
 1715W        W 8931   9.248   1.117   0.988
 1716W        W 8932   1.461   0.488   3.477
 1717W        W 8933  11.064   1.388  11.535
 1718W        W 8934  13.180   8.373   4.269
 1719W        W 8935   8.615  13.416   2.800
 1720W        W 8936   1.643   4.979  10.076
 1721W        W 8937  13.947   2.963   9.278
 1722W        W 8938   0.362  10.454   2.061
 1723W        W 8939   7.955   7.702   1.264
 1724W        W 8940   7.799   0.619  10.055
 1725W        W 8941   8.977   5.379   0.615
 1726W        W 8942   8.222  13.990   9.906
 1727W        W 8943  10.063   0.012  10.238
 1728W        W 8944   2.619  11.178   9.290
 1729W        W 8945   4.784   9.317   9.612
 1730W        W 8946   9.966   8.983   2.213
 1731W        W 8947  12.980   5.683   0.862
 1732W        W 8948   4.425  12.454   1.089
 1733W        W 8949   5.421  10.452   2.358
 1734W        W 8950  12.420   3.945   7.786
 1735W        W 8951   7.093   2.442   2.849
 1736W        W 8952   5.440   8.099   2.474
 1737W        W 8953   1.813  12.442  11.404
 1738W        W 8954   5.267   4.584   1.878
 1739W        W 8955   2.755  12.514  11.305
 1740W        W 8956   9.503   9.744   9.747
 1741W        W 8957   2.651   1.360  10.465
 1742W        W 8958  10.026  13.361   4.197
 1743W        W 8959   4.503   3.388   2.519
 1744W        W 8960   2.136   5.981   0.911
 1745W        W 8961   0.071   2.781   0.525
 1746W        W 8962   9.417   4.061   0.528
 1747W        W 8963   3.024   5.114   4.264
 1748W        W 8964  13.846  10.393   9.144
 1749W        W 8965   2.771   1.593   7.676
 1750W        W 8966   1.189   2.904  10.244
 1751W        W 8967   7.150   0.120   7.846
 1752W        W 8968  13.098   8.877   3.633
 1753W        W 8969   4.497   2.688   9.269
 1754W        W 8970   0.601   8.249   7.689
 1755W        W 8971   8.269   0.634   8.111
 1756W        W 8972   0.280   4.444   8.450
 1757W        W 8973   8.485  11.377  10.445
 1758W        W 8974   2.606   9.288   2.453
 1759W        W 8975  10.768   1.932   2.809
 1760W        W 8976  10.830   1.123   0.138
 1761W        W 8977  13.227   9.534  11.612
 1762W        W 8978   8.954   8.720  11.630
 1763W        W 8979   3.900   3.355   0.816
 1764W        W 8980   4.642   7.047   9.678
 1765W        W 8981   0.583  10.917   8.655
 1766W        W 8982   8.666   7.407   3.234
 1767W        W 8983  11.926  11.001   1.042
 1768W        W 8984   3.566   9.209   0.951
 1769W        W 8985   7.043   4.760   1.235
 1770W        W 8986   6.446   8.973   0.890
 1771W        W 8987   7.899   3.966   9.282
 1772W        W 8988   6.786   8.377   2.056
 1773W        W 8989   8.944   7.427   1.332
 1774W        W 8990   2.713   4.686   3.682
 1775W        W 8991  12.621  10.747   8.459
 1776W        W 8992   0.350  11.130   0.491
 1777W        W 8993  11.867   5.955   1.382
 1778W        W 8994  12.251   2.286   2.822
 1779W        W 8995  13.406   2.439  10.397
 1780W        W 8996   8.519   2.764   2.344
 1781W        W 8997   0.201   1.743   7.921
 1782W        W 8998   8.726   1.981   0.993
 1783W        W 8999  11.317   5.967   9.390
 1784W        W 9000   4.518   4.944  11.936
 1785W        W 9001   8.922  12.548   9.911
 1786W        W 9002   9.393   4.674   8.410
 1787W        W 9003   0.402   3.122  11.852
 1788W        W 9004   5.081  11.438   8.536
 1789W        W 9005   2.878   6.709   8.660
 1790W        W 9006   5.541  11.240   8.550
 1791W        W 9007   1.649  10.172   0.980
 1792W        W 9008   6.045   6.141   1.829
 1793W        W 9009   5.615  12.517   1.147
 1794W        W 9010   8.758   7.914   0.214
 1795W        W 9011   0.415  13.860   2.778
 1796W        W 9012  13.888   8.618  10.180
 1797W        W 9013   7.755   3.290  10.300
 1798W        W 9014   1.280   8.142   1.506
 1799W        W 9015   3.556  13.841   3.460
 1800W        W 9016   5.723  12.989   3.157
 1801W        W 9017  10.238   4.014  10.610
 1802W        W 9018   1.324   6.535   2.949
 1803W        W 9019   7.803   9.936   8.679
 1804W        W 9020   2.237   7.482   9.613
 1805W        W 9021  12.917  12.836  11.464
 1806W        W 9022  10.606   1.260  11.696
 1807W        W 9023  11.198   2.382   1.768
 1808W        W 9024   2.200   3.792  10.302
 1809W        W 9025   6.376   7.197   9.706
 1810W        W 9026   7.776   9.192  11.071
 1811W        W 9027  10.008   1.473   0.393
 1812W        W 9028   1.575  13.786  11.666
 1813W        W 9029   7.077   5.479   4.320
 1814W        W 9030   6.722  11.811  10.220
 1815W        W 9031   8.146   5.688  11.491
 1816W        W 9032   4.324  10.913   0.441
 1817W        W 9033  12.260   8.576   0.739
 1818W        W 9034  10.979   0.339   2.370
 1819W        W 9035  13.840  11.064  11.387
 1820W        W 9036   1.481  12.687   2.369
 1821W        W 9037   8.158   0.978   3.635
 1822W        W 9038   3.794   1.645   1.502
 1823W        W 9039   0.351   5.676   3.367
 1824W        W 9040   0.238   0.879   1.705
 1825W        W 9041  11.662   5.162   2.545
 1826W        W 9042   0.978   1.919   1.229
 1827W        W 9043   9.647   7.316  11.642
 1828W        W 9044  11.476   1.698  11.558
 1829W        W 9045  10.697  12.293   9.516
 1830W        W 9046   5.957   3.498   0.600
 1831W        W 9047   1.098  10.301   9.154
 1832W        W 9048   7.709   9.438   1.995
 1833W        W 9049   0.167  13.006   8.789
 1834W        W 9050   3.044   2.939   9.621
 1835W        W 9051  11.699   1.751   1.639
 1836W        W 9052  12.256   1.749  10.007
 1837W        W 9053   9.233  12.321   8.164
 1838W        W 9054   9.072   3.159   1.712
 1839W        W 9055  10.499   1.439   0.332
 1840W        W 9056   2.120   8.115   4.335
 1841W        W 9057   3.701   7.748   2.556
 1842W        W 9058  12.126   6.764  10.181
 1843W        W 9059   8.071  11.676   8.382
 1844W        W 9060  12.227  10.297  11.477
 1845W        W 9061  10.830  13.207   0.847
 1846W        W 9062   3.231   7.121  11.650
 1847W        W 9063   4.452   5.141  11.469
 1848W        W 9064   1.840   7.644   9.353
 1849W        W 9065   4.228   7.843   1.226
 1850W        W 9066  11.523  10.546  10.098
 1851W        W 9067   6.563   8.290  10.597
 1852W        W 9068   3.146  10.907  10.569
 1853W        W 9069   1.036  11.379   0.663
 1854W        W 9070  11.327   7.510   3.429
 1855W        W 9071   5.846  13.452   9.017
 1856W        W 9072   5.047  13.765  10.063
 1857W        W 9073   8.802   3.613   8.955
 1858W        W 9074  10.810   9.671   1.380
 1859W        W 9075   3.323   2.880  10.041
 1860W        W 9076   8.323   9.065   0.139
 1861W        W 9077  13.216   3.731   8.984
 1862W        W 9078   3.668  12.737  10.960
 1863W        W 9079  12.025   2.209  11.214
 1864W        W 9080   0.378  10.549  11.802
 1865W        W 9081   9.909   8.206   2.583
 1866W        W 9082   7.514   9.907  11.539
 1867W        W 9083   3.976  11.115   0.731
 1868W        W 9084   2.452   3.900   0.475
 1869W        W 9085   8.530   9.041  11.660
 1870W        W 9086   1.902  12.419   2.554
 1871W        W 9087   8.158  13.507   8.676
 1872W        W 9088   0.434   0.815   3.005
 1873W        W 9089  10.379   2.835   3.525
 1874W        W 9090  13.669   3.593   2.534
 1875W        W 9091  12.950   9.319   0.805
 1876W        W 9092   6.342   3.699   3.095
 1877W        W 9093  12.475   4.510   8.445
 1878W        W 9094   4.048   6.413   9.343
 1879W        W 9095   3.240   8.968   8.560
 1880W        W 9096   2.904   4.921  10.793
 1881W        W 9097   1.798   1.161   1.813
 1882W        W 9098   9.777  10.606   1.137
 1883W        W 9099   1.025   2.484  11.073
 1884W        W 9100  12.168  12.174   1.428
 1885W        W 9101  10.678   4.919  11.699
 1886W        W 9102  12.173   3.353   1.232
 1887W        W 9103   2.892  12.546   2.497
 1888W        W 9104  11.558   1.332   9.263
 1889W        W 9105  11.382   2.091   1.406
 1890W        W 9106   5.512  12.434  11.478
 1891W        W 9107   9.515   5.512   0.671
 1892W        W 9108  12.429   8.514  11.492
 1893W        W 9109   8.252   9.022   8.674
 1894W        W 9110  12.896  12.264  11.468
 1895W        W 9111   2.778   0.201  10.788
 1896W        W 9112   3.824   6.967   2.791
 1897W        W 9113   3.105   7.409   2.817
 1898W        W 9114   3.149   7.922   9.712
 1899W        W 9115   8.002   4.153  11.966
 1900W        W 9116   1.539   8.413   0.857
 1901W        W 9117   7.179   5.975   1.351
 1902W        W 9118   2.517  11.355   2.621
 1903W        W 9119   6.059   1.350   3.898
 1904W        W 9120   2.419   0.276   7.760
 1905W        W 9121   4.400   1.658  10.745
 1906W        W 9122   2.910   5.239   0.761
 1907W        W 9123   0.196   9.633   1.427
 1908W        W 9124  13.704   9.016   0.760
 1909W        W 9125  10.160   7.704   8.959
 1910W        W 9126   6.909   0.646   4.105
 1911W        W 9127   0.647   3.306   4.274
 1912W        W 9128  10.144  11.868   9.885
 1913W        W 9129   8.637   4.612   0.280
 1914W        W 9130   6.048   9.413   8.662
 1915W        W 9131   9.619  13.430   8.931
 1916W        W 9132   8.217   8.373  10.990
 1917W        W 9133   0.061   0.025   9.080
 1918W        W 9134  10.349   5.111   9.940
 1919W        W 9135   0.716   6.305   3.691
 1920W        W 9136  13.920   5.365   0.384
 1921W        W 9137   9.314   0.466   3.183
 1922W        W 9138  13.867  10.644   3.048
 1923W        W 9139   7.555   2.342  10.868
 1924W        W 9140   9.752  12.140  10.238
 1925W        W 9141   2.857  12.435  11.802
 1926W        W 9142  13.184   0.613   3.511
 1927W        W 9143   8.230   2.413   2.574
 1928W        W 9144   5.641   5.524   3.398
 1929W        W 9145   8.939   3.188  10.209
 1930W        W 9146   3.122  10.017   1.009
 1931W        W 9147   9.090  10.640   2.692
 1932W        W 9148   7.640   8.287  10.130
 1933W        W 9149   3.283   5.593  10.040
 1934W        W 9150   5.414   0.020   8.489
 1935W        W 9151  11.689  13.689   3.606
 1936W        W 9152   4.236  11.555   2.757
 1937W        W 9153   6.914   7.476   0.813
 1938W        W 9154  11.308   4.785   8.074
 1939W        W 9155  10.649   3.511   2.511
 1940W        W 9156  13.064   7.792   3.511
 1941W        W 9157   6.113  11.372   0.500
 1942W        W 9158   8.533  10.460   1.300
 1943W        W 9159   2.094  11.443   2.358
 1944W        W 9160   9.072  13.651   0.032
 1945W        W 9161   7.410   3.915  10.042
 1946W        W 9162   9.599   9.321   1.707
 1947W        W 9163   3.212  10.838  11.073
 1948W        W 9164  13.127   1.954  11.104
 1949W        W 9165   4.921   0.621   8.679
 1950W        W 9166   6.875   1.561  10.882
 1951W        W 9167   8.953   7.106   9.172
 1952W        W 9168   5.900   1.753  10.878
 1953W        W 9169   4.419   7.868   9.294
 1954W        W 9170   6.596  12.903   2.116
 1955W        W 9171   7.574   0.697   0.135
 1956W        W 9172   3.538   0.692   1.910
 1957W        W 9173   7.242   0.767  10.211
 1958W        W 9174   3.614   8.601   0.367
 1959W        W 9175   1.211   9.060  11.838
 1960W        W 9176   2.370   0.522  10.741
 1961W        W 9177  11.824  11.194   3.752
 1962W        W 9178   8.930   5.294   9.531
 1963W        W 9179   1.723   0.633   0.552
 1964W        W 9180  13.295   7.403   0.564
 1965W        W 9181  12.228   5.864   1.767
 1966W        W 9182   6.114   3.818   1.598
 1967W        W 9183   5.076  10.067   9.228
 1968W        W 9184  12.213   3.002  10.085
 1969W        W 9185  13.920   9.573   1.835
 1970W        W 9186  10.673   3.116   9.105
 1971W        W 9187   2.378   7.773  11.391
 1972W        W 9188  11.327   4.690  10.638
 1973W        W 9189  10.097  11.744   2.043
 1974W        W 9190   6.441   1.382   9.325
 1975W        W 9191   8.148   0.182   3.125
 1976W        W 9192   9.095   7.177   0.932
 1977W        W 9193   1.218   1.748  10.075
 1978W        W 9194   3.753   5.789  10.019
 1979W        W 9195   6.729   0.433   0.956
 1980W        W 9196   8.243   1.628   1.834
 1981W        W 9197   8.438   7.666   8.938
 1982W        W 9198  11.263   4.407   2.277
 1983W        W 9199   4.413  11.087  10.590
 1984W        W 9200   4.969   4.048   1.404
 1985W        W 9201  12.638   7.851   0.578
 1986W        W 9202   5.016   8.709   8.451
 1987W        W 9203   1.359   1.858   8.386
 1988W        W 9204   6.530   7.186   3.132
 1989W        W 9205   4.331  12.401   9.625
 1990W        W 9206   5.454   7.142   8.611
 1991W        W 9207  13.016  11.317  10.459
 1992W        W 9208   3.927   2.722   2.715
 1993W        W 9209   9.137   2.230  10.142
 1994W        W 9210   8.928   1.762   3.010
 1995W        W 9211  12.283   5.841   7.878
 1996W        W 9212   3.828   5.251   9.293
 1997W        W 9213  13.634   0.011   9.944
 1998W        W 9214   0.367   6.509   9.516
 1999W        W 9215   1.190   3.047  11.932
 2000W        W 9216   6.800   5.041   4.305
 2001W        W 9217   9.655   8.698  10.183
 2002W        W 9218  12.555  12.143   4.243
 2003W        W 9219  11.756   9.269   3.991
 2004W        W 9220   3.761  11.740   2.633
 2005W        W 9221   5.299  12.487   2.766
 2006W        W 9222   7.205   9.040   1.773
 2007W        W 9223  11.542  13.142   9.795
 2008W        W 9224   3.297  13.403   3.392
 2009W        W 9225  10.135   9.934  10.463
 2010W        W 9226   0.379   1.699   2.602
 2011W        W 9227   4.439  10.803   9.538
 2012W        W 9228   8.899  11.706  10.569
 2013W        W 9229   8.161  10.028   9.476
 2014W        W 9230  11.546   1.185  11.591
 2015W        W 9231   1.077   7.382   9.872
 2016W        W 9232  13.379   4.079  11.607
 2017W        W 9233   2.043   2.635   8.345
 2018W        W 9234  13.493   0.215  10.893
 2019W        W 9235   1.601  12.343   0.768
 2020W        W 9236   4.724   2.321   1.799
 2021W        W 9237  12.620  11.226   8.599
 2022W        W 9238  11.325  12.122   1.356
 2023W        W 9239  13.465   5.417  11.528
 2024W        W 9240  12.547  10.268   3.345
 2025W        W 9241   8.251   6.990   2.436
 2026W        W 9242   7.006  13.697   1.267
 2027W        W 9243   3.248   5.827   2.366
 2028W        W 9244  12.270   7.831  10.314
 2029W        W 9245  11.113   3.499   3.418
 2030W        W 9246   5.679   3.974   2.452
 2031W        W 9247  10.505   7.816   0.940
 2032W        W 9248  13.539   6.432   9.642
 2033W        W 9249  13.034   3.709   3.181
 2034W        W 9250   6.478   7.685   9.948
 2035W        W 9251   6.767   9.539   2.280
 2036W        W 9252   9.866   1.565  11.901
 2037W        W 9253   8.536   6.733   2.773
 2038W        W 9254  12.595   3.577   3.470
 2039W        W 9255   6.119  11.115   9.228
 2040W        W 9256   5.091   0.658   3.671
 2041W        W 9257  13.103   6.856  11.321
 2042W        W 9258  12.891  13.101   2.839
 2043W        W 9259   7.393   9.552   9.880
 2044W        W 9260   5.723  11.884  11.153
 2045W        W 9261   8.914   8.337   8.565
 2046W        W 9262  12.708   5.508   3.318
 2047W        W 9263   5.632   0.830   0.152
 2048W        W 9264   1.387   1.497  10.497
 2049W        W 9265  12.260   6.282   9.649
 2050W        W 9266  12.580  12.285   8.790
 2051W        W 9267  13.433  10.340   0.755
 2052W        W 9268   9.365  11.850   0.490
 2053W        W 9269  12.365  11.302   1.059
 2054W        W 9270   2.951   9.745   9.922
 2055W        W 9271   8.232   4.352   0.398
 2056W        W 9272   6.976   2.813   8.432
 2057W        W 9273   2.661   8.994   9.211
 2058W        W 9274   6.936   8.466   7.818
 2059W        W 9275   8.004   6.852  10.890
 2060W        W 9276   8.564  13.491   0.755
 2061W        W 9277   5.082  11.472   9.760
 2062W        W 9278   3.254   3.889   2.521
 2063W        W 9279   6.283   2.617   1.673
 2064W        W 9280   6.056  12.283   0.290
 2065W        W 9281  13.021  10.110   0.464
 2066W        W 9282   2.305   9.170  11.113
 2067W        W 9283   9.793   3.105  11.107
 2068W        W 9284   9.656   0.795   3.370
 2069W        W 9285   8.862   8.909   3.568
 2070W        W 9286   9.055  13.414   2.039
 2071W        W 9287   3.223   2.832   0.804
 2072W        W 9288  11.321   5.871   0.126
 2073W        W 9289  11.741   0.508   1.884
 2074W        W 9290  12.813   0.605   1.234
 2075W        W 9291  12.613   3.683   2.915
 2076W        W 9292   8.559  11.763   8.321
 2077W        W 9293   1.318  10.340   2.359
 2078W        W 9294   4.678   8.058  11.507
 2079W        W 9295   8.901  12.196  10.768
 2080W        W 9296  12.481   9.417  10.997
 2081W        W 9297   5.978   9.453  11.123
 2082W        W 9298   9.760  10.368   9.272
 2083W        W 9299   4.052  10.203   3.908
 2084W        W 9300   8.031   5.398  10.150
 2085W        W 9301   2.928   2.429  10.937
 2086W        W 9302   9.218   2.849   9.467
 2087W        W 9303  11.237  12.192   8.509
 2088W        W 9304  11.414   6.165  10.239
 2089W        W 9305   2.228   2.772   9.656
 2090W        W 9306   9.749  12.454   2.419
 2091W        W 9307   9.914   1.624   8.735
 2092W        W 9308   1.519  11.260  10.542
 2093W        W 9309   5.019   7.265  10.622
 2094W        W 9310   2.058   3.176  11.266
 2095W        W 9311   6.735   2.008   8.878
 2096W        W 9312   5.910   3.025   2.336
 2097W        W 9313   8.117   2.343  10.050
 2098W        W 9314   8.471   6.622   9.734
 2099W        W 9315   4.661   6.896   2.439
 2100W        W 9316  10.478   0.600   4.179
 2101W        W 9317   6.370   4.530  11.733
 2102W        W 9318   0.047  13.568   1.734
 2103W        W 9319   7.908   4.961  11.928
 2104W        W 9320   0.520  11.358  11.694
 2105W        W 9321   5.205   8.410  10.997
 2106W        W 9322  10.030   5.322   8.943
 2107W        W 9323  13.739   4.219  11.950
 2108W        W 9324   2.804  13.607   0.305
 2109W        W 9325   6.860   3.544   3.065
 2110W        W 9326   0.482   3.434  10.153
 2111W        W 9327   8.902   7.349   2.074
 2112W        W 9328   8.031   3.901   1.087
 2113W        W 9329  13.482   5.727   2.349
 2114W        W 9330   2.025   0.818  10.952
 2115W        W 9331   7.562   7.386   8.627
 2116W        W 9332   6.961   2.624  11.857
 2117W        W 9333   5.701  11.720   2.787
 2118W        W 9334   2.591  13.599  11.822
 2119W        W 9335   3.306   1.377  11.395
 2120W        W 9336   8.351  10.552   8.273
 2121W        W 9337  10.139   0.484   2.545
 2122W        W 9338  10.624   9.489   9.242
 2123W        W 9339   9.494   0.702   0.926
 2124W        W 9340   3.908  10.772   2.493
 2125W        W 9341   2.947  10.493   3.447
 2126W        W 9342   4.082   5.421  11.259
 2127W        W 9343  11.943   1.676   3.590
 2128W        W 9344   3.859  13.330   9.532
 2129W        W 9345   2.529   3.331   0.914
 2130W        W 9346   0.670   3.813   3.660
 2131W        W 9347   2.865   2.142   3.107
 2132W        W 9348   8.530   2.965   1.145
 2133W        W 9349  11.130   2.286   2.264
 2134W        W 9350   0.262   9.171  10.216
 2135W        W 9351   5.973   8.383   0.108
 2136W        W 9352   1.693  11.367  11.398
 2137W        W 9353  11.472   0.528   0.005
 2138W        W 9354   8.389   5.494  11.007
 2139W        W 9355   0.243  10.305   3.107
 2140W        W 9356  10.091   7.535   9.438
 2141W        W 9357  13.338   8.313   2.595
 2142W        W 9358   6.116  13.928   2.204
 2143W        W 9359   5.670   9.128   0.734
 2144W        W 9360   0.175   2.636  11.200
 2145W        W 9361   7.026   1.337   1.786
 2146W        W 9362   5.185  11.302   1.340
 2147W        W 9363  11.098   5.519   9.393
 2148W        W 9364   6.899   7.300   9.787
 2149W        W 9365  11.657   8.532   1.722
 2150W        W 9366   0.809  11.111   9.993
 2151W        W 9367  11.791   4.636   8.081
 2152W        W 9368   6.892   8.135   8.746
 2153W        W 9369   7.983   9.691   1.663
 2154W        W 9370   2.633  12.413  10.383
 2155W        W 9371  13.431   4.816  10.600
 2156W        W 9372  13.945  11.933   8.220
 2157W        W 9373   8.450  10.968   7.968
 2158W        W 9374   8.811   6.515  10.790
 2159W        W 9375   5.293   2.055   0.515
 2160W        W 9376   9.286   5.855   0.922
 2161W        W 9377   6.032  12.613   3.301
 2162W        W 9378   0.914   6.617  10.172
 2163W        W 9379   6.794  11.510   3.341
 2164W        W 9380  11.822   0.963   9.017
 2165W        W 9381   3.275  11.383   9.827
 2166W        W 9382   7.647  12.217  10.339
 2167W        W 9383  13.260   9.856  10.705
 2168W        W 9384   4.835   9.961  11.170
 2169W        W 9385   6.984  10.816   2.513
 2170W        W 9386   5.737  10.430  10.266
 2171W        W 9387  12.020   0.351   0.054
 2172W        W 9388   6.673   6.222   9.431
 2173W        W 9389  12.621   0.705  10.048
 2174W        W 9390   3.634   6.169   8.946
 2175W        W 9391   2.171  13.289  11.346
 2176W        W 9392   4.905   5.918   1.364
 2177W        W 9393  11.185  10.969   0.831
 2178W        W 9394   4.152   0.508   9.630
 2179W        W 9395   6.186   1.692   9.639
 2180W        W 9396  11.074   3.602  11.072
 2181W        W 9397  13.136   2.248   0.716
 2182W        W 9398   1.844   4.544   9.364
 2183W        W 9399  13.570   3.988   9.256
 2184W        W 9400   0.511  10.054   3.493
 2185W        W 9401  11.461   1.573   4.301
 2186W        W 9402   1.952   8.560   2.322
 2187W        W 9403   0.685   6.203   9.263
 2188W        W 9404   1.308   6.027   3.073
 2189W        W 9405   4.272   7.197   8.479
 2190W        W 9406   9.093   8.198  10.751
 2191W        W 9407  10.515   4.338  10.874
 2192W        W 9408   9.135   4.285   9.643
 2193W        W 9409   2.463   9.803   9.786
 2194W        W 9410   4.247   0.955   9.213
 2195W        W 9411   0.731  10.741   8.207
 2196W        W 9412   4.814   7.218   2.904
 2197W        W 9413   8.877   1.115  11.592
 2198W        W 9414   2.082   8.351   1.005
 2199W        W 9415   1.683  12.305   3.215
 2200W        W 9416   3.980   9.826  11.723
 2201W        W 9417   0.664   8.817   9.398
 2202W        W 9418   6.411   9.503  11.419
 2203W        W 9419   0.415  11.677  10.565
 2204W        W 9420  10.030   7.177   2.251
 2205W        W 9421   0.109   1.248  11.065
 2206W        W 9422   2.468   1.211   2.364
 2207W        W 9423   9.988  13.120  10.143
 2208W        W 9424   6.867  10.070   3.508
 2209W        W 9425  11.308  10.465   8.718
 2210W        W 9426   4.682  10.084   9.967
 2211W        W 9427  11.390  12.681   0.496
 2212W        W 9428   5.727   2.629   3.159
 2213W        W 9429   1.549   1.996   0.433
 2214W        W 9430  13.869   9.292  11.802
 2215W        W 9431   3.667  12.002   1.617
 2216W        W 9432   5.080   6.712  11.020
 2217W        W 9433   1.156   6.519   9.246
 2218W        W 9434   8.913  10.617   3.194
 2219W        W 9435   3.317   3.871   9.127
 2220W        W 9436   1.988   9.729   9.961
 2221W        W 9437  13.135   6.422   2.499
 2222W        W 9438   5.272   8.923   8.821
 2223W        W 9439   4.938   0.355  11.684
 2224W        W 9440  12.608   8.675   3.708
 2225W        W 9441   3.342   8.041   1.865
 2226W        W 9442   9.209  13.005  11.276
 2227W        W 9443   5.653   3.012   9.735
 2228W        W 9444   9.982   7.219   9.050
 2229W        W 9445   5.699  13.065   8.315
 2230W        W 9446   1.010   5.632   2.853
 2231W        W 9447   6.265  13.374   9.346
 2232W        W 9448   8.050   2.782   8.013
 2233W        W 9449   3.809  13.460   3.204
 2234W        W 9450  11.640  12.465   9.363
 2235W        W 9451   6.811   5.061   2.088
 2236W        W 9452   0.273   7.325  10.881
 2237W        W 9453   0.718   6.635   0.414
 2238W        W 9454  11.081   8.878   0.907
 2239W        W 9455   3.877   0.566  10.446
 2240W        W 9456   9.585  12.711   0.548
 2241W        W 9457  12.465   6.080   9.213
 2242W        W 9458   5.308   3.044   8.938
 2243W        W 9459   5.791   4.563   9.023
 2244W        W 9460  11.375  11.180   3.485
 2245W        W 9461   2.927  12.025   0.116
 2246W        W 9462   2.437   8.161   8.218
 2247W        W 9463   5.259  11.777   0.037
 2248W        W 9464   3.443   9.865  11.035
 2249W        W 9465   4.744  12.969  10.280
 2250W        W 9466  10.609   2.538   0.030
 2251W        W 9467   1.617  11.435   0.538
 2252W        W 9468  11.583  10.832  10.510
 2253W        W 9469   5.747   9.902  10.282
 2254W        W 9470  13.782   9.636   0.169
 2255W        W 9471   2.496   6.305  10.863
 2256W        W 9472   6.260  11.763   2.152
 2257W        W 9473   9.511   0.783  11.137
 2258W        W 9474   1.993  12.431   0.462
 2259W        W 9475  11.071  12.691  11.731
 2260W        W 9476   8.557   4.892  10.844
 2261W        W 9477   2.090   7.381  11.210
 2262W        W 9478   1.518   1.229   9.051
 2263W        W 9479   0.650   9.976   3.004
 2264W        W 9480   4.268   4.987   2.056
 2265W        W 9481   3.076   4.322   0.036
 2266W        W 9482  12.896   0.737   0.293
 2267W        W 9483   3.155   7.413   0.935
 2268W        W 9484   9.292  11.284   8.420
 2269W        W 9485   4.837   4.652   0.281
 2270W        W 9486   7.633   3.214  11.328
 2271W        W 9487   4.873   7.694   9.106
 2272W        W 9488  12.000  12.790  10.728
 2273W        W 9489   7.822   6.733   2.453
 2274W        W 9490   5.349   6.290   7.687
 2275W        W 9491   9.926   3.290  11.629
 2276W        W 9492  13.194  10.724   2.381
 2277W        W 9493  10.963   2.091   1.090
 2278W        W 9494  11.897  11.831   2.112
 2279W        W 9495   2.198  13.812   9.991
 2280W        W 9496  12.549  10.773   0.616
 2281W        W 9497   9.344   2.465   8.677
 2282W        W 9498   9.074   9.726  11.647
 2283W        W 9499   3.493   8.916  10.865
 2284W        W 9500   8.374   3.578   8.674
 2285W        W 9501   5.822   3.626   3.086
 2286W        W 9502   4.003  13.023  11.228
 2287W        W 9503   7.183   2.913  10.132
 2288W        W 9504   2.697   9.205   0.899
 2289W        W 9505   5.011   1.917   2.872
 2290W        W 9506   7.844   7.549  11.140
 2291W        W 9507   0.781   3.800   9.998
 2292W        W 9508   3.924   5.641   3.011
 2293W        W 9509   0.576   7.514   1.817
 2294W        W 9510   1.707   1.710  11.260
 2295W        W 9511   1.757   2.277  11.637
 2296W        W 9512  11.039  11.198   1.477
 2297W        W 9513   9.066  12.618  10.988
 2298W        W 9514   1.188  10.903  10.357
 2299W        W 9515   0.695   5.836   1.068
 2300W        W 9516   3.043   9.097   9.554
 2301W        W 9517  11.119  10.344  11.729
 2302W        W 9518   1.920   2.982   8.692
 2303W        W 9519   8.607   2.024   8.256
 2304W        W 9520   2.332   8.894   2.328
 2305W        W 9521   2.977   0.514   0.792
 2306W        W 9522   7.341   4.533   9.549
 2307W        W 9523   7.158  12.542   8.901
 2308W        W 9524   5.011  13.207   3.335
 2309W        W 9525   9.471  12.313   3.036
 2310W        W 9526   2.147   1.077   8.737
 2311W        W 9527   7.274   2.888   8.870
 2312W        W 9528   5.373   2.488   0.741
 2313W        W 9529   9.522   3.556   2.878
 2314W        W 9530   5.795   6.756   8.692
 2315W        W 9531   6.394  12.407   3.558
 2316W        W 9532   1.136   5.408   2.391
 2317W        W 9533   5.950  11.555  10.826
 2318W        W 9534   8.792  11.413   8.597
 2319W        W 9535   0.986   8.867   8.100
 2320W        W 9536   6.378  13.631   3.425
 2321W        W 9537   9.368   0.349   1.259
 2322W        W 9538   9.403   6.742   3.392
 2323W        W 9539   7.594  11.634   3.510
 2324W        W 9540   2.039   5.446   2.825
 2325W        W 9541  11.928  13.296   2.150
 2326W        W 9542  12.097   9.454   0.906
 2327W        W 9543  10.125   6.071  11.896
 2328W        W 9544   7.825   7.534   9.598
 2329W        W 9545   3.087   0.667  11.455
 2330W        W 9546  11.197   5.943  11.044
 2331W        W 9547   6.981  12.420   8.465
 2332W        W 9548  10.172   5.543   3.800
 2333W        W 9549   5.627   3.362   1.107
 2334W        W 9550   0.888   2.552   9.166
 2335W        W 9551  13.985  10.447  10.618
 2336W        W 9552   2.142   1.858  11.041
 2337W        W 9553   2.881   8.404  11.944
 2338W        W 9554  13.685   3.444   9.150
 2339W        W 9555   4.587   8.068  10.503
 2340W        W 9556   8.666  10.841   8.554
 2341W        W 9557  11.710   8.849   8.004
 2342W        W 9558   2.647   3.952  10.483
 2343W        W 9559   5.586  13.355  11.483
 2344W        W 9560   9.572  11.905   2.164
 2345W        W 9561  13.969  10.868  10.962
 2346W        W 9562  10.148   6.594   9.475
 2347W        W 9563   6.242  11.904   3.528
 2348W        W 9564  12.341  13.920  10.220
 2349W        W 9565   4.031   3.339  11.939
 2350W        W 9566   9.421   2.364   2.651
 2351W        W 9567  13.865   0.178   8.166
 2352W        W 9568   4.681   6.674  11.412
 2353W        W 9569   8.739   0.577   0.112
 2354W        W 9570   0.515   0.780   8.962
 2355W        W 9571   9.043  11.352   3.386
 2356W        W 9572   5.151   2.905  11.010
 2357W        W 9573  10.041   5.542   0.708
 2358W        W 9574  10.725   7.204   0.351
 2359W        W 9575   0.542   1.254  10.733
 2360W        W 9576  10.810   2.894   8.636
 2361W        W 9577  11.628  13.545  10.099
 2362W        W 9578   6.361  13.321   3.833
 2363W        W 9579   0.369  11.880   0.310
 2364W        W 9580   3.124   8.727   0.221
 2365W        W 9581  11.609   2.460   3.942
 2366W        W 9582   8.131   6.771   2.012
 2367W        W 9583   1.601   2.990   9.453
 2368W        W 9584   1.760   4.404   1.795
 2369W        W 9585   9.716   7.156   3.278
 2370W        W 9586  10.562   0.922  10.421
 2371W        W 9587   2.630   0.905   8.792
 2372W        W 9588   6.039   2.955   0.642
 2373W        W 9589   5.890   7.858  11.830
 2374W        W 9590  13.320   0.299   0.263
 2375W        W 9591   7.680  13.509   1.110
 2376W        W 9592   1.388  13.638  11.174
 2377W        W 9593  11.630   3.411   3.449
 2378W        W 9594   0.608   9.753   8.133
 2379W        W 9595   6.723   9.922   0.111
 2380W        W 9596  12.978   3.187   2.005
 2381W        W 9597  12.301   2.326   9.056
 2382W        W 9598   5.254   2.726   1.650
 2383W        W 9599   5.081   3.565   0.575
 2384W        W 9600   3.127  11.553   1.379
 2385W        W 9601  12.089   3.392  11.685
 2386W        W 9602  12.529   2.654  11.251
 2387W        W 9603  13.254   1.840   4.208
 2388W        W 9604   4.802   1.025   9.384
 2389W        W 9605   0.702   5.842   2.525
 2390W        W 9606  13.022  10.442   8.446
 2391W        W 9607   8.133   8.168  10.116
 2392W        W 9608  12.471   7.465   2.138
 2393W        W 9609   2.939   6.600  10.867
 2394W        W 9610   5.127   3.734   1.044
 2395W        W 9611   9.916   0.929   2.559
 2396W        W 9612   7.507  11.187   8.956
 2397W        W 9613  11.903  13.271   0.855
 2398W        W 9614   7.475  10.733   2.514
 2399W        W 9615  10.558  12.902   9.645
 2400W        W 9616   9.052   1.812   0.554
 2401W        W 9617   3.928   4.919   3.782
 2402W        W 9618   7.610   0.571   2.034
 2403W        W 9619  12.498   5.427   9.976
 2404W        W 9620   2.194   1.226  10.614
 2405W        W 9621   0.412   7.976   0.935
 2406W        W 9622   4.334  11.439   8.699
 2407W        W 9623   8.492   9.215   2.333
 2408W        W 9624  11.253  13.861   1.534
 2409W        W 9625   3.514   0.232  10.533
 2410W        W 9626   1.059   9.135   0.814
 2411W        W 9627   6.930  10.386   7.784
 2412W        W 9628  13.686  13.677   1.350
 2413W        W 9629   9.406  13.016   1.105
 2414W        W 9630   1.516   4.447  10.137
 2415W        W 9631  11.635  13.588   9.589
 2416W        W 9632   1.648   5.383  11.550
 2417W        W 9633   5.756   5.099   8.938
 2418W        W 9634   8.932   4.688   0.714
 2419W        W 9635  11.205   0.062  11.812
 2420W        W 9636   7.633  10.274   3.731
 2421W        W 9637  12.703   9.645   1.675
 2422W        W 9638   9.174   0.996  10.778
 2423W        W 9639   2.895  10.447   1.755
 2424W        W 9640   6.869   8.842   3.168
 2425W        W 9641   8.776  10.985  10.627
 2426W        W 9642   0.811  10.795   1.285
 2427W        W 9643   1.770  13.460  10.096
 2428W        W 9644   4.424   7.872   7.954
 2429W        W 9645   8.351   4.631   3.602
 2430W        W 9646  11.222   2.261   3.619
 2431W        W 9647  11.106  10.579   9.396
 2432W        W 9648   4.616   7.891   2.346
 2433W        W 9649   2.249   6.422   1.098
 2434W        W 9650   6.407  13.107   0.292
 2435W        W 9651   6.281  12.063  10.209
 2436W        W 9652   4.776  11.369   8.945
 2437W        W 9653   3.670   2.711   8.368
 2438W        W 9654  13.906   4.619   2.214
 2439W        W 9655   3.716   6.418   8.485
 2440W        W 9656  13.789  11.820   9.517
 2441W        W 9657  12.097  10.756  11.272
 2442W        W 9658   4.070   4.415   9.581
 2443W        W 9659  12.301   3.300   0.663
 2444W        W 9660   3.989   8.678  11.066
 2445W        W 9661  13.858   8.680   3.644
 2446W        W 9662   2.171   4.770  11.305
 2447W        W 9663   0.760   5.447   9.801
 2448W        W 9664  11.099   4.171   9.256
 2449W        W 9665   7.988  11.215   8.715
 2450W        W 9666   0.787   6.453   4.165
 2451W        W 9667  10.810  10.893   1.897
 2452W        W 9668   5.237   6.644   0.844
 2453W        W 9669  13.167  11.806   1.726
 2454W        W 9670   5.761  10.063   0.367
 2455W        W 9671   9.218   6.316   1.984
 2456W        W 9672   2.227   3.009   1.148
 2457W        W 9673   1.143   1.233   4.083
 2458W        W 9674   7.363   9.162   0.445
 2459W        W 9675   3.619   6.544   3.093
 2460W        W 9676  12.549   5.601   9.014
 2461W        W 9677   4.649   5.824   2.531
 2462W        W 9678  13.938  10.320   9.639
 2463W        W 9679   3.318  10.733   1.703
 2464W        W 9680   5.900  10.348   2.529
 2465W        W 9681   4.373  10.320  11.922
 2466W        W 9682   7.258   3.397   9.053
 2467W        W 9683   9.186  10.173   2.438
 2468W        W 9684   8.034   1.413   3.977
 2469W        W 9685   2.259   1.091   7.890
 2470W        W 9686   8.616   6.664   8.887
 2471W        W 9687   0.116   8.778   1.984
 2472W        W 9688   7.885   4.153  11.448
 2473W        W 9689   7.482   1.852   3.139
 2474W        W 9690   7.782  12.322   3.998
 2475W        W 9691   5.844   5.154   9.590
 2476W        W 9692   7.386  13.727   7.570
 2477W        W 9693   9.109   7.368   9.596
 2478W        W 9694   0.785   9.103  11.545
 2479W        W 9695   0.709  10.440   0.234
 2480W        W 9696   3.605  11.503   1.521
 2481W        W 9697  10.200  12.757   3.045
 2482W        W 9698   8.736   1.071   2.199
 2483W        W 9699  13.528  10.662  11.314
 2484W        W 9700   5.012   3.466   2.637
 2485W        W 9701  12.787  12.577  11.881
 2486W        W 9702   6.868   6.642   9.247
 2487W        W 9703  13.538   0.732   1.523
 2488W        W 9704   9.691   5.994   2.833
 2489W        W 9705   6.094   1.497   3.305
 2490W        W 9706   8.102  11.098   3.315
 2491W        W 9707   9.135   1.266   2.544
 2492W        W 9708   4.042  10.011   9.230
 2493W        W 9709   3.992   3.241   2.597
 2494W        W 9710  10.867   7.740   1.486
 2495W        W 9711  12.605   8.731  10.358
 2496W        W 9712   0.785  12.327  11.249
 2497W        W 9713   8.225  12.615   0.039
 2498W        W 9714  10.918  10.282   8.943
 2499W        W 9715   5.351   9.143   1.123
 2500W        W 9716   1.448   6.220   1.362
 2501W        W 9717  10.913   7.710   9.938
 2502W        W 9718  11.970   4.355   3.773
 2503W        W 9719  10.732   1.717  10.336
 2504W        W 9720   3.318  12.072   0.427
 2505W        W 9721   4.601   4.354   9.637
 2506W        W 9722  12.515   1.255   9.182
 2507W        W 9723   8.872   0.231   0.486
 2508W        W 9724  13.539   4.992   0.388
 2509W        W 9725  12.428   8.561   8.229
 2510W        W 9726   8.626   9.944   9.627
 2511W        W 9727  10.917   8.063   1.087
 2512W        W 9728   0.053   2.607   2.647
 2513W        W 9729   7.800   8.247   9.179
 2514W        W 9730   4.149   0.331   2.336
 2515W        W 9731   8.468   0.219   8.312
 2516W        W 9732   8.069  10.529   9.471
 2517W        W 9733   3.225   2.285   2.603
 2518W        W 9734  13.757   4.378   1.698
 2519W        W 9735   9.260  12.263   9.499
 2520W        W 9736   7.322  10.862   0.014
 2521W        W 9737   1.544   9.266   8.363
 2522W        W 9738   6.235   6.644   3.058
 2523W        W 9739   4.076   1.328  10.948
 2524W        W 9740   2.580  13.265  11.046
 2525W        W 9741   7.319   8.190   1.085
 2526W        W 9742   6.494   9.352   8.407
 2527W        W 9743   9.514   2.391   1.618
 2528W        W 9744  13.191   1.060  10.574
 2529W        W 9745   1.420   4.365  11.791
 2530W        W 9746   8.024   6.777   9.912
 2531W        W 9747   2.229  13.247  11.854
 2532W        W 9748   6.031   2.011   8.725
 2533W        W 9749  13.644   7.027   1.167
 2534W        W 9750   9.681  10.421  11.629
 2535W        W 9751  10.490   1.716   1.603
 2536W        W 9752  13.732  11.697   0.947
 2537W        W 9753  12.228  10.355   9.005
 2538W        W 9754  11.160   7.749   4.039
 2539W        W 9755   3.912   5.120   1.490
 2540W        W 9756   0.182  10.816   2.365
 2541W        W 9757   8.264   5.188  11.648
 2542W        W 9758   8.068   1.812   0.897
 2543W        W 9759   8.941  13.840   0.774
 2544W        W 9760   0.028  10.380  11.125
 2545W        W 9761  11.607   5.314   4.261
 2546W        W 9762   5.895   0.018   9.080
 2547W        W 9763  13.943   6.224   9.402
 2548W        W 9764   9.300   5.915   3.171
 2549W        W 9765  11.575   9.230   0.261
 2550W        W 9766   1.785  10.628   3.510
 2551W        W 9767  13.899   5.623   3.155
 2552W        W 9768   6.544   0.736  11.343
 2553W        W 9769   3.567   5.055   9.679
 2554W        W 9770   0.322   0.087   4.147
 2555W        W 9771   6.597   7.775   0.534
 2556W        W 9772  11.253   0.835   9.906
 2557W        W 9773   5.821   6.091   2.556
 2558W        W 9774   5.453   5.883   8.566
 2559W        W 9775   1.747   6.326   0.982
 2560W        W 9776   6.535   4.165   2.304
 2561W        W 9777   6.786   2.226   7.760
 2562W        W 9778  12.573   8.109   1.398
 2563W        W 9779   9.105  10.905   0.573
 2564W        W 9780   4.753  12.405   3.576
 2565W        W 9781   5.196   4.917   2.891
 2566W        W 9782   0.500  12.877   3.286
 2567W        W 9783  13.318   6.891  11.834
 2568W        W 9784   3.483   5.347   1.649
 2569W        W 9785   9.627   5.778   9.791
 2570W        W 9786   6.979  11.315   2.372
 2571W        W 9787   8.705   3.989   8.657
 2572W        W 9788   5.752   7.387  11.740
 2573W        W 9789  10.205   8.244   8.798
 2574W        W 9790   0.018  11.831   1.787
 2575W        W 9791   6.103  10.772   7.934
 2576W        W 9792   8.445   7.446   8.471
 2577W        W 9793  10.714   1.393   9.213
 2578W        W 9794   4.458   2.504  11.178
 2579W        W 9795  12.472   1.512   1.902
 2580W        W 9796   4.580   7.937   8.779
 2581W        W 9797   3.497   9.801   1.910
 2582W        W 9798   0.926   0.487   9.062
 2583W        W 9799   4.561   6.842   1.208
 2584W        W 9800   6.057  11.651   3.133
 2585W        W 9801   7.103   7.013   3.157
 2586W        W 9802   5.383   8.234   3.459
 2587W        W 9803   0.528   5.634   8.459
 2588W        W 9804   9.534   9.932  11.521
 2589W        W 9805  12.686   6.697   2.549
 2590W        W 9806   4.484   6.242   1.401
 2591W        W 9807   0.546   1.411  11.231
 2592W        W 9808  10.050  11.588  10.877
 2593W        W 9809   3.780   0.790   9.926
 2594W        W 9810  12.920  12.788   1.597
 2595W        W 9811   4.347   9.615   0.512
 2596W        W 9812  13.815   5.174   9.972
 2597W        W 9813  13.298   9.703   8.207
 2598W        W 9814   8.895  12.039   9.761
 2599W        W 9815   1.706   1.713   1.239
 2600W        W 9816   6.227   2.799  10.356
 2601W        W 9817  10.911   0.058   9.950
 2602W        W 9818   3.096   0.319  11.852
 2603W        W 9819  11.960   6.280  10.108
 2604W        W 9820  12.575   0.799   2.415
 2605W        W 9821  13.269  13.603  11.176
 2606W        W 9822  10.916   6.627   3.493
 2607W        W 9823  12.112   3.862  11.473
 2608W        W 9824   9.925  13.797   1.886
 2609W        W 9825  11.315  11.003   2.447
 2610W        W 9826   3.284   9.492   2.250
 2611W        W 9827   4.448   1.136  10.671
 2612W        W 9828  12.482   1.605   0.183
 2613W        W 9829   0.179   2.011   1.166
 2614W        W 9830  10.931  13.031   8.841
 2615W        W 9831  13.014  11.725  11.580
 2616W        W 9832  10.238   0.426   1.150
 2617W        W 9833   8.967   8.490   3.928
 2618W        W 9834  11.527   5.757   3.206
 2619W        W 9835   4.350  12.402   9.098
 2620W        W 9836   0.684   5.220   9.327
 2621W        W 9837   4.284  10.008   2.924
 2622W        W 9838  11.956   3.463   8.833
 2623W        W 9839   4.408  11.704   1.425
 2624W        W 9840   3.217   4.109   9.802
 2625W        W 9841   9.110   5.378  11.447
 2626W        W 9842   6.597  11.599   1.159
 2627W        W 9843  11.151  13.132   0.454
 2628W        W 9844   8.535   8.590  11.333
 2629W        W 9845   4.108   3.002   1.181
 2630W        W 9846   0.995   8.634  11.627
 2631W        W 9847  11.978   0.545  10.361
 2632W        W 9848   7.007   4.259   3.874
 2633W        W 9849   5.100   9.036   3.233
 2634W        W 9850  12.082   5.443   2.511
 2635W        W 9851   7.515   8.787  11.505
 2636W        W 9852   3.777   1.097   9.014
 2637W        W 9853   2.290  10.063  10.237
 2638W        W 9854   2.446  12.431   2.789
 2639W        W 9855   2.887   3.080   8.935
 2640W        W 9856   7.613   1.135   8.736
 2641W        W 9857  13.842  11.961  11.560
 2642W        W 9858   4.328  10.251  10.866
 2643W        W 9859  12.839   9.484   9.823
 2644W        W 9860  12.275   4.682   1.456
 2645W        W 9861   1.611   7.104   4.115
 2646W        W 9862   2.629   7.702   3.667
 2647W        W 9863   6.324   4.663  11.240
 2648W        W 9864   7.290  12.706   2.782
 2649W        W 9865   9.898  11.549   1.283
 2650W        W 9866  12.833   2.052  10.666
 2651W        W 9867  12.044   7.317  11.444
 2652W        W 9868   8.354   9.804  10.592
 2653W        W 9869   3.784   9.074   3.405
 2654W        W 9870   1.255  12.220  10.354
 2655W        W 9871   8.552   7.747   2.862
 2656W        W 9872   7.436   1.087   1.694
 2657W        W 9873  12.049   1.436   9.079
 2658W        W 9874   0.026   1.967   0.352
 2659W        W 9875   5.224   1.579   0.364
 2660W        W 9876  10.967   3.176   2.349
 2661W        W 9877   8.295  12.579   9.460
 2662W        W 9878  13.310  12.469   9.453
 2663W        W 9879   1.714  10.025   2.276
 2664W        W 9880   2.169   9.290   9.787
 2665W        W 9881   5.059   1.960   0.070
 2666W        W 9882  11.732   1.483  11.957
 2667W        W 9883   8.818  12.471   2.396
 2668W        W 9884   8.202   4.755   2.085
 2669W        W 9885   9.422   1.572   2.230
 2670W        W 9886   1.915  13.952   1.813
 2671W        W 9887   7.941   7.590   1.754
 2672W        W 9888   2.781   4.375   9.822
 2673W        W 9889   9.098   2.019   2.257
 2674W        W 9890  10.782   3.179  10.063
 2675W        W 9891  12.793   9.923   2.490
 2676W        W 9892   0.377   4.508   0.646
 2677W        W 9893   5.899   4.525  10.557
 2678W        W 9894  10.441   9.835  11.309
 2679W        W 9895   5.006   4.670   3.761
 2680W        W 9896   6.108  13.465  11.550
 2681W        W 9897   4.826   3.537   8.250
 2682W        W 9898  10.099   5.190   1.271
 2683W        W 9899  12.767   6.220   9.730
 2684W        W 9900   8.546   3.455   9.901
 2685W        W 9901   3.979   5.779   3.481
 2686W        W 9902   9.952   2.824   9.377
 2687W        W 9903   0.724   0.733  10.642
 2688W        W 9904   0.144   0.659   0.846
 2689W        W 9905  13.849   1.819   0.800
 2690W        W 9906   3.864   8.702   9.183
 2691W        W 9907  10.361   4.028  11.705
 2692W        W 9908   4.549   9.799  10.798
 2693W        W 9909  13.434   1.169   9.467
 2694W        W 9910  13.194  11.698   2.243
 2695W        W 9911  13.265  13.663   9.415
 2696W        W 9912  12.649   4.052   1.229
 2697W        W 9913   5.741   1.419  11.331
 2698W        W 9914  12.682   0.327   9.231
 2699W        W 9915   6.102  10.721   8.443
 2700W        W 9916   4.419   8.935  10.938
 2701W        W 9917   8.072   1.772   9.418
 2702W        W 9918  12.377   1.357  10.314
 2703W        W 9919   3.074   1.546   3.708
 2704W        W 9920   5.137  13.541   1.166
 2705W        W 9921   1.029   7.380   2.024
 2706W        W 9922   0.768  10.798  11.084
 2707W        W 9923  10.438  12.017  10.814
 2708W        W 9924   5.251   2.694   2.967
 2709W        W 9925   9.960  11.277   8.893
 2710W        W 9926   3.445   6.334   0.681
 2711W        W 9927   3.678   3.513  10.663
 2712W        W 9928   3.035   6.046   4.134
 2713W        W 9929   1.389  13.109   3.679
 2714W        W 9930  13.315   7.894   2.270
 2715W        W 9931   0.466  13.381  11.277
 2716W        W 9932  13.836   5.506   1.242
 2717W        W 9933   7.868   6.919  11.751
 2718W        W 9934  12.915  11.921   8.959
 2719W        W 9935  10.243  11.319  11.505
 2720W        W 9936   8.500  13.353   8.339
 2721W        W 9937   5.266   4.236   3.320
 2722W        W 9938   8.475  12.960   9.153
 2723W        W 9939  13.121  11.036   9.235
 2724W        W 9940   7.039   6.508   0.850
 2725W        W 9941   3.460   7.735   3.397
 2726W        W 9942  12.302  11.364   3.253
 2727W        W 9943  13.210  10.833  10.533
 2728W        W 9944   1.425   4.974   3.813
 2729W        W 9945   3.583  11.398   0.508
 2730W        W 9946   8.829   2.288   0.582
 2731W        W 9947  13.109   1.435   3.945
 2732W        W 9948   9.109   1.645  10.901
 2733W        W 9949  12.697   0.203   9.982
 2734W        W 9950  13.452  10.540   8.006
 2735W        W 9951  11.292   2.623   4.332
 2736W        W 9952   4.669  13.852   0.746
 2737W        W 9953   5.998   0.859   1.738
 2738W        W 9954   3.251   2.347   0.705
 2739W        W 9955   4.864   6.614   9.778
 2740W        W 9956  12.596   8.341   0.429
 2741W        W 9957   5.433   4.815   0.244
 2742W        W 9958   7.603   3.785   4.192
 2743W        W 9959  13.299   7.055   2.910
 2744W        W 9960  11.472   4.521   0.580
 2745W        W 9961   9.380  13.622   2.361
 2746W        W 9962  13.709   1.796   1.290
 2747W        W 9963   4.057   1.205   7.845
 2748W        W 9964   4.617   6.424   8.493
 2749W        W 9965  11.158   6.748   9.199
 2750W        W 9966  10.732   7.635  10.942
 2751W        W 9967   6.641   7.031   2.145
 2752W        W 9968   1.143   1.339   9.346
 2753W        W 9969   8.766  10.397  10.223
 2754W        W 9970  13.175  10.196   2.739
 2755W        W 9971   1.616   1.501   4.096
 2756W        W 9972   6.282   0.579   1.418
 2757W        W 9973   5.211   4.450   0.547
 2758W        W 9974  10.628   9.008   0.215
 2759W        W 9975  13.026  11.278   2.445
 2760W        W 9976   6.683   1.182   2.123
 2761W        W 9977  13.240   6.294   1.397
 2762W        W 9978  10.990   4.594  10.255
 2763W        W 9979   7.702   4.770   8.294
 2764W        W 9980   3.360   3.966  11.336
 2765W        W 9981  10.067  13.935   3.518
 2766W        W 9982   0.397   3.941   9.095
 2767W        W 9983   0.903   1.648  10.491
 2768W        W 9984   4.333   7.872  10.940
 2769W        W 9985   7.732  13.746   8.384
 2770W        W 9986   0.878   8.496  11.142
 2771W        W 9987   6.566   2.479   3.407
 2772W        W 9988   6.573   5.907   3.203
 2773W        W 9989   5.428  13.867   0.905
 2774W        W 9990   5.286   2.476   0.220
 2775W        W 9991   4.523  13.882   8.650
 2776W        W 9992   8.667   9.372   2.782
 2777W        W 9993  13.474   6.065  11.180
 2778W        W 9994   4.030  13.993   8.440
 2779W        W 9995  12.134   8.357   2.623
 2780W        W 9996   8.567   9.021   0.939
 2781W        W 9997  13.046   1.343   3.457
 2782W        W 9998   5.938   8.276   2.365
 2783W        W 9999   9.266   4.020   2.036
 2784W        W10000   7.306   6.573   0.426
 2785W        W10001  11.969  12.039   2.600
 2786W        W10002  12.843   2.438  11.999
 2787W        W10003  10.744   9.425  10.100
 2788W        W10004  10.094   7.998   1.219
 2789W        W10005  13.422   3.566  11.591
 2790W        W10006   5.302   8.944  11.884
 2791W        W10007   8.642   0.736   8.465
 2792W        W10008  12.595   6.626   1.081
 2793W        W10009   1.377   2.999   1.657
 2794W        W10010  13.880   6.652   3.721
 2795W        W10011   9.172  12.751   9.501
 2796W        W10012   5.271   3.416   1.435
 2797W        W10013   5.999  11.157  10.033
 2798W        W10014  12.234  11.112  10.027
 2799W        W10015   4.622   4.396   7.729
 2800W        W10016  11.384   4.458   0.094
 2801W        W10017  12.950  10.461   1.943
 2802W        W10018   4.445  10.862   3.259
 2803W        W10019   5.796   5.903  10.855
 2804W        W10020   6.161   8.599  11.615
 2805W        W10021   3.525  12.488   9.650
 2806W        W10022  11.196   6.446  11.095
 2807W        W10023   2.157   4.132   1.687
 2808W        W10024   9.593  10.326   0.153
 2809W        W10025   0.903   9.623   4.156
 2810W        W10026   6.838  13.205   8.704
 2811W        W10027   4.897   1.420   2.897
 2812W        W10028   1.982   2.712  11.879
 2813W        W10029   6.372   0.661   3.499
 2814W        W10030   9.009   4.939   0.291
 2815W        W10031   8.148   3.693   0.135
 2816W        W10032   5.296   0.121   3.544
 2817W        W10033   8.676   5.666   8.748
 2818W        W10034   4.933   5.420  11.246
 2819W        W10035   3.644  10.197   1.077
 2820W        W10036   7.824   0.807   8.349
 2821W        W10037   6.116   2.879   2.900
 2822W        W10038   8.084   5.930  11.035
 2823W        W10039  10.489  10.070   2.429
 2824W        W10040  12.338   5.122   3.250
 2825W        W10041  12.039   8.835   2.475
 2826W        W10042  12.175   9.915  10.206
 2827W        W10043   0.831   0.304   4.106
 2828W        W10044  13.255   2.999   3.636
 2829W        W10045   1.853   4.944  11.699
 2830W        W10046  11.124   4.411   3.442
 2831W        W10047   0.960  11.562   9.729
 2832W        W10048   6.466   6.785   3.477
 2833W        W10049  11.968   1.604  11.551
 2834W        W10050  12.876  10.946  10.161
 2835W        W10051  13.336   4.378  10.362
 2836W        W10052  10.863  12.983   0.086
 2837W        W10053   4.172  12.270   8.234
 2838W        W10054   0.832  10.126   9.788
 2839W        W10055   8.411   3.160   9.493
 2840W        W10056   2.238   0.942   1.978
 2841W        W10057   5.694  11.975   3.258
 2842W        W10058   0.939   0.939  11.948
 2843W        W10059  10.948  10.196   1.284
 2844W        W10060  12.821   3.984   8.704
 2845W        W10061  10.306  12.595   4.076
 2846W        W10062   7.951  11.270   2.144
 2847W        W10063   3.266  12.140  10.978
 2848W        W10064  12.844  12.676   3.189
 2849W        W10065  10.935   4.768   2.110
 2850W        W10066  13.502   3.829  11.157
 2851W        W10067   6.368  13.143  10.369
 2852W        W10068  11.672  11.512   9.327
 2853W        W10069   6.793   1.440  10.276
 2854W        W10070   8.596   1.992  11.745
 2855W        W10071  12.613  12.858   0.275
 2856W        W10072   0.507  12.500   2.508
 2857W        W10073  10.631  11.565  11.735
 2858W        W10074   3.328  12.247   1.924
 2859W        W10075  13.788  11.782   3.490
 2860W        W10076   1.265   6.019   0.893
 2861W        W10077  12.449  11.697   8.908
 2862W        W10078  12.454  11.868   2.513
 2863W        W10079   8.542  13.208   2.342
 2864W        W10080  12.063  10.824   1.870
 2865W        W10081   5.492   5.234   1.660
 2866W        W10082  12.347  11.592  11.214
 2867W        W10083   5.187  12.296   8.970
 2868W        W10084   1.993   4.577   1.368
 2869W        W10085   0.999   7.907  10.551
 2870W        W10086   7.157   4.137  10.408
 2871W        W10087   3.239   5.780  11.788
 2872W        W10088  12.813  10.440  10.214
 2873W        W10089   1.413   9.438   1.010
 2874W        W10090   1.969   0.469   1.935
 2875W        W10091   8.742   8.277   1.465
 2876W        W10092   4.277   9.131   3.389
 2877W        W10093   6.423  13.212   1.759
 2878W        W10094   0.341   6.464   0.732
 2879W        W10095   9.216   8.960  11.187
 2880W        W10096  13.111   3.184   8.201
 2881W        W10097   3.720  11.044   1.685
 2882W        W10098  11.445   1.341   8.764
 2883W        W10099  13.455   6.939   1.961
 2884W        W10100  11.351   4.008   1.962
 2885W        W10101   9.299  11.476   2.938
 2886W        W10102   6.538  11.548   2.506
 2887W        W10103  13.073  12.227   2.487
 2888W        W10104  11.259   9.668  11.167
 2889W        W10105  10.367  13.371   9.612
 2890W        W10106   7.211   8.507   3.002
 2891W        W10107  10.668  11.498   1.271
 2892W        W10108   8.733   7.406  10.164
 2893W        W10109   7.306   6.943  11.690
 2894W        W10110  10.459  10.142  10.785
 2895W        W10111   7.256   5.526   1.037
 2896W        W10112   2.042   3.693   9.795
 2897W        W10113  12.531   8.550   7.729
 2898W        W10114  11.971   2.094   9.726
 2899W        W10115  12.574  13.852   8.045
 2900W        W10116   2.967   8.464  10.300
 2901W        W10117   4.386  13.021   0.071
 2902W        W10118   6.003   8.991  10.923
 2903W        W10119   3.531  13.281   8.049
 2904W        W10120  10.381  13.536   3.430
 2905W        W10121   4.698   2.001   8.678
 2906W        W10122  12.219   3.473  11.188
 2907W        W10123  12.598  13.686   8.609
 2908W        W10124  12.791   0.848   9.304
 2909W        W10125   5.702   8.497   2.728
 2910W        W10126   1.010   9.347   1.293
 2911W        W10127  11.183   3.418   9.909
 2912W        W10128   6.418   3.773   2.015
 2913W        W10129   8.826  12.154   3.808
 2914W        W10130   6.735   4.344   1.412
 2915W        W10131   6.328   8.573  10.238
 2916W        W10132   9.639  11.164  10.142
 2917W        W10133   2.509   6.847   1.034
 2918W        W10134   9.876  12.752   9.116
 2919W        W10135   8.568   9.684   0.370
 2920W        W10136  10.849   0.962  10.860
 2921W        W10137  10.471   5.997  11.474
 2922W        W10138  11.452  12.383   0.923
 2923W        W10139   1.531   6.159   9.197
 2924W        W10140  12.887   1.477   8.883
 2925W        W10141  13.255   3.811   0.494
 2926W        W10142  12.253   4.438   2.381
 2927W        W10143  13.932  10.803   1.878
 2928W        W10144   9.979   6.136   2.375
 2929W        W10145   2.888   7.347   0.512
 2930W        W10146   9.000   3.149  10.754
 2931W        W10147   3.678  12.739  11.473
 2932W        W10148  13.975   8.229   9.292
 2933W        W10149  12.845  13.994  11.625
 2934W        W10150   6.470  12.334   9.398
 2935W        W10151  11.104   9.840   0.971
 2936W        W10152   6.299   0.504   3.009
 2937W        W10153  10.340   2.337   3.389
 2938W        W10154   9.421  12.939  11.735
 2939W        W10155   7.183   9.802  10.722
 2940W        W10156  10.278   0.352   3.291
 2941W        W10157   3.085   0.724   8.862
 2942W        W10158  11.484   8.109   2.816
 2943W        W10159   1.450   1.271  10.033
 2944W        W10160  10.317   1.177   3.194
 2945W        W10161  13.182  10.039  11.520
 2946W        W10162   0.004   4.198   9.780
 2947W        W10163   8.386   3.156   8.058
 2948W        W10164   8.322   1.652  11.137
 2949W        W10165  11.786   1.961  11.913
 2950W        W10166   2.085   7.688   0.810
 2951W        W10167  12.395   5.499   2.916
 2952W        W10168   0.852  13.324   2.245
 2953W        W10169   7.778   6.364   9.504
 2954W        W10170  10.496   4.037   0.973
 2955W        W10171   9.372  13.426  11.705
 2956W        W10172   8.187   7.313  10.819
 2957W        W10173   0.797   1.022   4.415
 2958W        W10174   5.029   7.144   8.907
 2959W        W10175   8.714   4.245  11.619
 2960W        W10176  12.627   2.323   0.798
 2961W        W10177   2.175   5.621   8.658
 2962W        W10178   2.381  12.700   0.627
 2963W        W10179   5.743   2.239  10.827
 2964W        W10180   4.582   3.932   1.077
 2965W        W10181   1.096   0.640   1.937
 2966W        W10182   2.481   5.652   0.716
 2967W        W10183   1.114   5.954   9.367
 2968W        W10184   5.953   6.796   1.261
 2969W        W10185  13.779   4.850   3.403
 2970W        W10186   0.629   4.949   9.756
 2971W        W10187   8.038   1.165   3.151
 2972W        W10188   0.848   6.530   2.033
 2973W        W10189  13.046   0.404   1.675
 2974W        W10190   3.125   9.586  10.709
 2975W        W10191   3.916  12.542   2.189
 2976W        W10192   8.574   5.463   3.149
 2977W        W10193   2.857   0.553   0.268
 2978W        W10194  11.688   2.579  10.716
 2979W        W10195   6.061   0.550  11.258
 2980W        W10196   0.300   5.738   7.344
 2981W        W10197   4.839   7.252  10.123
 2982W        W10198  10.002   3.924  11.374
 2983W        W10199   0.423   0.409  11.858
 2984W        W10200   8.222  12.730   9.960
 2985W        W10201   5.098  13.611   0.626
 2986W        W10202   0.380   7.491   3.465
 2987W        W10203   5.240  12.356   9.452
 2988W        W10204  13.087  13.938  10.801
 2989W        W10205  11.945   7.141   2.730
 2990W        W10206   9.520  13.474   0.207
 2991W        W10207  13.945  13.904   2.602
 2992W        W10208   2.895   8.351   8.071
 2993W        W10209   1.367   1.520   0.628
 2994W        W10210   4.617  10.397   3.091
 2995W        W10211  10.247   5.664   1.161
 2996W        W10212   9.440   6.228  10.776
 2997W        W10213   0.518   7.589   1.255
 2998W        W10214  11.651   9.396  11.352
 2999W        W10215  12.601   0.393   3.091
 3000W        W10216   7.467   6.799   0.944
 3001W        W10217  11.931   8.184  10.657
 3002W        W10218   2.760   8.200   9.882
 3003W        W10219  10.478  11.689  11.236
 3004W        W10220  13.197   0.093  11.281
 3005W        W10221  13.355  12.070  11.380
 3006W        W10222   4.680  11.154   9.869
 3007W        W10223   3.930   4.327   0.467
 3008W        W10224   2.843   7.088  10.771
 3009W        W10225   8.757   1.052   0.986
 3010W        W10226  10.906   9.766   8.955
 3011W        W10227   6.202   0.069   1.509
 3012W        W10228  11.382  10.983   2.999
 3013W        W10229   6.797  13.882   0.813
 3014W        W10230   6.313  10.275   1.204
 3015W        W10231  10.452   5.236   0.938
 3016W        W10232   9.104   1.401   0.234
 3017W        W10233   1.932  13.388   1.062
 3018W        W10234  13.359   4.562   8.135
 3019W        W10235  10.403   6.021   3.824
 3020W        W10236   5.194   4.469   8.428
 3021W        W10237   3.845  13.896  10.342
 3022W        W10238   5.159   2.806   2.484
 3023W        W10239   4.018   5.913  10.497
 3024W        W10240  10.761  13.327   3.667
 3025W        W10241  10.804   3.306   9.574
 3026W        W10242  13.919   8.183   0.640
 3027W        W10243   5.673   9.435   9.476
 3028W        W10244   0.526   9.316   3.986
 3029W        W10245  10.648  11.903   1.852
 3030W        W10246   7.578   5.467  10.691
 3031W        W10247  12.776   3.077   8.950
 3032W        W10248   4.266   2.521   1.242
 3033W        W10249  13.089   1.217   0.316
 3034W        W10250   6.865   3.938   8.299
 3035W        W10251   2.482   1.367   8.955
 3036W        W10252   9.819  11.665   0.337
 3037W        W10253   3.815  10.593   0.791
 3038W        W10254  10.373  12.331   3.269
 3039W        W10255   8.885  10.362   9.444
 3040W        W10256   0.699   2.961   3.211
 3041W        W10257  10.547   0.001   3.647
 3042W        W10258   0.812   7.959   1.778
 3043W        W10259   7.207   0.533   1.769
 3044W        W10260   3.076   2.751  10.587
 3045W        W10261   1.255  13.148   9.385
 3046W        W10262   2.875   5.598   9.070
 3047W        W10263  13.834   6.728   7.750
 3048W        W10264  11.464   6.174  11.405
 3049W        W10265   0.629  11.708   3.634
 3050W        W10266   6.680   1.059   4.353
 3051W        W10267   6.720   6.717   1.230
 3052W        W10268   8.311  12.363   2.392
 3053W        W10269   2.044   6.358   0.584
 3054W        W10270  10.609   3.586   3.337
 3055W        W10271   5.409   7.456   2.383
 3056W        W10272   5.952   7.215   8.572
 3057W        W10273   1.037   0.959  10.076
 3058W        W10274  12.261   2.066   2.378
 3059W        W10275   2.059  11.035   9.574
 3060W        W10276  11.203   5.481  10.766
 3061W        W10277   6.861   5.092   0.906
 3062W        W10278   0.636   4.878   2.004
 3063W        W10279  13.477  11.564  10.621
 3064W        W10280   2.639   2.029   2.670
 3065W        W10281   2.450   9.750  11.791
 3066W        W10282   3.100   0.658   2.148
 3067W        W10283   0.090   8.637   1.492
 3068W        W10284   7.765   6.143  11.380
 3069W        W10285   8.172   5.664   9.737
 3070W        W10286  10.802   5.044  10.126
 3071W        W10287   9.766   5.018   9.281
 3072W        W10288   6.151  13.936  11.720
 3073W        W10289  11.572   8.375   9.802
 3074W        W10290  12.894   8.661  11.540
 3075W        W10291  12.783   1.465   9.853
 3076W        W10292   4.312   5.903   8.187
 3077W        W10293   1.120   3.762   7.769
 3078W        W10294  11.089  11.676  10.040
 3079W        W10295  13.057   0.891   1.590
 3080W        W10296  10.475   7.759   1.814
 3081W        W10297  12.914   2.681   3.341
 3082W        W10298   8.310   9.813   8.860
 3083W        W10299  10.377   8.834   1.076
 3084W        W10300   3.656  12.225   2.779
 3085W        W10301   5.781   2.698  11.456
 3086W        W10302   7.966  11.967   8.991
 3087W        W10303   7.100   5.156   3.411
 3088W        W10304   5.552   5.759   0.092
 3089W        W10305  12.800   2.334   9.785
 3090W        W10306   6.651   9.495   2.778
 3091W        W10307   2.953   1.232   9.045
 3092W        W10308   4.215   2.408   2.423
 3093W        W10309  11.924  12.969   8.499
 3094W        W10310   0.396   0.861  10.255
 3095W        W10311   8.097   9.832   0.301
 3096W        W10312   5.356   8.728  11.394
 3097W        W10313   4.075  12.094   0.887
 3098W        W10314   1.969   0.959   2.782
 3099W        W10315   2.632   2.886   2.435
 3100W        W10316  10.864   9.938   9.945
 3101W        W10317   7.580   5.275   1.751
 3102W        W10318  13.660   7.658  11.746
 3103W        W10319  13.174   1.061   9.000
 3104W        W10320   6.864   2.205   1.099
 3105W        W10321   6.111   9.747   3.488
 3106W        W10322   0.098   1.261   2.504
 3107W        W10323   4.802   1.731   3.283
 3108W        W10324   9.463  11.103  11.330
 3109W        W10325  13.933  12.466   0.845
 3110W        W10326   1.087   9.128   2.241
 3111W        W10327   5.646   4.053  10.629
 3112W        W10328   6.689   1.336   1.367
 3113W        W10329   2.275  11.853   3.726
 3114W        W10330   3.633  10.796  10.727
 3115W        W10331  11.399   3.147   1.457
 3116W        W10332   4.138  10.515   8.334
 3117W        W10333   0.791   3.662   1.958
 3118W        W10334   3.982   1.719  11.762
 3119W        W10335   1.815   7.184  11.607
 3120W        W10336   2.481   3.623   0.050
 3121W        W10337   4.988   1.094   8.534
 3122W        W10338  12.498   9.434   0.569
 3123W        W10339  11.501   9.156   8.338
 3124W        W10340   1.977   7.211   0.107
 3125W        W10341   0.073  10.973   8.606
 3126W        W10342   1.594   8.208   2.308
 3127W        W10343  11.174   7.091   1.002
 3128W        W10344   9.990   5.337  10.240
 3129W        W10345   6.278   3.619   9.377
 3130W        W10346  13.835   3.881   1.581
 3131W        W10347  12.396   1.091   0.900
 3132W        W10348  11.699   9.775  10.391
 3133W        W10349   4.545   8.271   0.536
 3134W        W10350   3.975   8.200  10.952
 3135W        W10351  11.411   2.119   2.656
 3136W        W10352   4.375   3.947   3.102
 3137W        W10353  12.613   2.275   3.149
 3138W        W10354   0.165  12.650  11.126
 3139W        W10355   5.071   1.750   7.838
 3140W        W10356   9.580   8.594  11.207
 3141W        W10357  10.119   8.650   3.449
 3142W        W10358   6.409   6.651  10.828
 3143W        W10359   4.895   4.161   1.938
 3144W        W10360   1.690   5.482  10.048
 3145W        W10361  11.603   0.455   3.112
 3146W        W10362   0.862   1.090   1.229
 3147W        W10363  11.940   1.612  10.447
 3148W        W10364   5.784   0.430   2.783
 3149W        W10365   5.289   5.899   9.075
 3150W        W10366   9.634  13.065   3.282
 3151W        W10367   7.743   2.000   3.534
 3152W        W10368   0.903  12.587   3.434
 3153W        W10369   5.010  11.814   8.970
 3154W        W10370  11.871  11.164   0.183
 3155W        W10371   5.959   1.929   7.747
 3156W        W10372   6.907   2.328   8.539
 3157W        W10373   1.826   9.047   2.236
 3158W        W10374   6.861   1.674   7.773
 3159W        W10375   7.116   2.828   3.818
 3160W        W10376  10.447   4.990   2.147
 3161W        W10377   9.870   6.846   2.852
 3162W        W10378   6.599   6.861   0.778
 3163W        W10379   2.409   6.946   0.003
 3164W        W10380   2.501  13.117   3.669
 3165W        W10381   9.971   1.069   8.550
 3166W        W10382   1.427   9.035  10.876
 3167W        W10383  10.261   6.577   8.518
 3168W        W10384  13.759   4.753  11.981
 3169W        W10385   6.740  11.865   0.767
 3170W        W10386  10.149  13.170  11.533
 3171W        W10387   4.262   1.228   3.634
 3172W        W10388   8.125   7.317   9.230
 3173W        W10389   8.391   4.017   1.920
 3174W        W10390  10.411   4.031   3.199
 3175W        W10391  12.283   4.722  11.979
 3176W        W10392   7.070   0.902   0.033
 3177W        W10393  10.337   2.981  10.022
 3178W        W10394   7.960  10.574   2.494
 3179W        W10395   7.346   0.721   8.526
 3180W        W10396   6.984   4.894  10.192
 3181W        W10397   0.514   4.015   8.605
 3182W        W10398  11.657  12.949   1.752
 3183W        W10399   5.554   6.905   0.582
 3184W        W10400  11.640  13.054  10.301
 3185W        W10401   3.265   7.277   3.299
 3186W        W10402   3.932   6.240  11.184
 3187W        W10403  12.594  13.312   0.962
 3188W        W10404  10.095   7.463  10.410
 3189W        W10405  10.623  10.289   9.670
 3190W        W10406   7.424   4.850   9.946
 3191W        W10407   4.614  12.467  10.973
 3192W        W10408  13.552  10.754   0.461
 3193W        W10409   0.393  10.741   3.354
 3194W        W10410  12.715  11.197   9.504
 3195W        W10411   9.775  12.745   1.945
 3196W        W10412  11.727   8.152   2.364
 3197W        W10413  11.317   5.396   3.473
 3198W        W10414   7.155   5.773   8.924
 3199W        W10415   4.517   4.235   9.149
 3200W        W10416  12.411   0.114   0.653
 3201W        W10417   9.909   7.693   2.592
 3202W        W10418  10.891   6.093   0.346
 3203W        W10419   0.454   5.378   8.900
 3204W        W10420  10.846   8.676   2.754
 3205W        W10421   1.555  12.269   0.265
 3206W        W10422  11.228   8.756   1.510
 3207W        W10423   9.723   8.884  10.829
 3208W        W10424   7.016   0.908   1.490
 3209W        W10425  10.284   1.232   0.756
 3210W        W10426   5.577   6.375   1.772
 3211W        W10427   8.723  11.905   8.788
 3212W        W10428  10.760   5.595   2.615
 3213W        W10429   0.512   6.366   9.993
 3214W        W10430   7.160   9.302   1.358
 3215W        W10431  13.566   4.268   0.404
 3216W        W10432  11.506   2.187  10.454
 3217W        W10433  12.076   1.867   1.928
 3218W        W10434   2.162   7.760   1.849
 3219W        W10435   4.129   3.856   0.785
 3220W        W10436   5.933  13.247  10.120
 3221W        W10437  12.210   2.364   0.541
 3222W        W10438   9.040   9.772   1.163
 3223W        W10439   4.734   1.448   0.765
 3224W        W10440  13.369   0.826   2.868
 3225W        W10441   0.285   2.258   9.779
 3226W        W10442  11.845   6.849   0.034
 3227W        W10443  11.329   7.766   1.255
 3228W        W10444  11.515   1.272   2.913
 3229W        W10445   3.495   7.464   9.277
 3230W        W10446   6.198  10.407  10.459
 3231W        W10447  12.811   9.529   2.178
 3232W        W10448  13.204   1.819   1.770
 3233W        W10449  10.533   4.756   9.621
 3234W        W10450  11.865   3.319  10.276
 3235W        W10451   9.924   2.627   3.390
 3236W        W10452   0.044   5.336   3.604
 3237W        W10453   8.223  13.741  11.402
 3238W        W10454   5.974   3.729   1.119
 3239W        W10455   6.682   3.603   0.154
 3240W        W10456   0.185   2.190  11.492
 3241W        W10457   3.436  10.224   2.789
 3242W        W10458   3.956  12.098  10.302
 3243W        W10459   5.317   8.906   0.416
 3244W        W10460   9.935   4.677   1.800
 3245W        W10461   3.073   9.414   1.799
 3246W        W10462   7.757   1.658   0.000
 3247W        W10463  11.234   3.727   8.259
 3248W        W10464   3.872  12.945   3.348
 3249W        W10465  10.722  12.146   7.676
 3250W        W10466   7.713   3.493   9.298
 3251W        W10467   2.234   7.340   9.087
 3252W        W10468  12.088   9.319   2.632
 3253W        W10469   0.593   8.328   9.460
 3254W        W10470   8.543   8.710   0.505
 3255W        W10471   5.808   0.835  10.905
 3256W        W10472  13.148   4.212   9.061
 3257W        W10473   4.064   0.662   3.702
 3258W        W10474  10.325   4.952   1.659
 3259W        W10475   3.713  12.361   0.667
 3260W        W10476   2.987   4.056   4.210
 3261W        W10477  13.879   0.322   9.640
 3262W        W10478   3.137   2.966   2.152
 3263W        W10479   8.357   1.011   0.703
 3264W        W10480   4.886  11.063   3.438
 3265W        W10481   1.971  10.206   8.588
 3266W        W10482   0.473  11.987   2.894
 3267W        W10483   6.801   0.996   3.377
 3268W        W10484  11.307  12.797   9.131
 3269W        W10485  12.400  12.239  11.834
 3270W        W10486   5.818  10.409   2.004
 3271W        W10487   1.981   3.636   0.052
 3272W        W10488  10.074   0.887   9.723
 3273W        W10489  13.447   4.658   0.754
 3274W        W10490  11.467   0.561  11.011
 3275W        W10491   9.799   9.171   2.660
 3276W        W10492   9.539   4.736   8.905
 3277W        W10493   3.694   9.201   0.230
 3278W        W10494   7.191  13.508  10.458
 3279W        W10495  12.044   7.620   3.559
 3280W        W10496  11.925  13.288  11.264
 3281W        W10497   8.169   3.357   1.703
 3282W        W10498   6.644   0.990   9.569
 3283W        W10499   8.632   0.482   9.814
 3284W        W10500   3.663   5.168   8.002
 3285W        W10501   0.996   4.666  11.925
 3286W        W10502  12.378   8.970   9.512
 3287W        W10503  12.852   7.366   9.191
 3288W        W10504  11.878   2.487   9.389
 3289W        W10505   2.137   4.700   8.962
 3290W        W10506   2.456   1.053   2.851
 3291W        W10507   5.725  13.792   1.624
 3292W        W10508   7.233   2.688   1.664
 3293W        W10509  12.734   2.102   0.360
 3294W        W10510  10.225   1.621  10.430
 3295W        W10511   8.033   3.349   3.577
 3296W        W10512  13.586  13.116   3.457
 3297W        W10513  12.660  11.846   8.478
 3298W        W10514   1.360   7.944   9.254
 3299W        W10515   9.070   5.498   3.003
 3300W        W10516  11.139   7.884   8.593
 3301W        W10517   1.206   1.747   4.229
 3302W        W10518   0.839  10.495   2.259
 3303W        W10519  12.793  13.115  11.873
 3304W        W10520   4.259  13.685   3.038
 3305W        W10521   8.688   7.881   8.522
 3306W        W10522  13.836   0.489   7.772
 3307W        W10523   9.041  13.952   2.055
 3308W        W10524   7.995  12.182   1.174
 3309W        W10525  13.851   2.710   0.980
 3310W        W10526   3.574   4.188   0.796
 3311W        W10527   3.732  11.217   9.447
 3312W        W10528   1.093   7.085   3.797
 3313W        W10529  10.153   3.466  11.209
 3314W        W10530   2.292   1.523   7.492
 3315W        W10531   0.915   0.859   2.769
 3316W        W10532  13.978   7.819   8.957
 3317W        W10533   9.783  10.563   2.580
 3318W        W10534   2.557   4.157   2.578
 3319W        W10535   5.589   0.502   3.686
 3320W        W10536   4.839   1.623   9.951
 3321W        W10537   7.299   2.448   1.188
 3322W        W10538  13.455  13.828   0.048
 3323W        W10539   3.244   4.798   9.388
 3324W        W10540   5.928   0.534  10.515
 3325W        W10541   5.725   4.436   2.064
 3326W        W10542   2.142   9.561   0.367
 3327W        W10543   6.637   6.594  10.346
 3328W        W10544  13.937   0.658   0.145
 3329W        W10545  10.786   6.626   0.290
 3330W        W10546  10.782  13.605   2.863
 3331W        W10547   0.782  13.499   8.719
 3332W        W10548   1.124   6.111  10.183
 3333W        W10549   8.951   8.722   0.796
 3334W        W10550   0.837   3.308   0.153
 3335W        W10551   5.960  10.855  10.435
 3336W        W10552   3.328   1.831  11.996
 3337W        W10553   0.825   6.211   0.721
 3338W        W10554   6.225  13.031  11.286
 3339W        W10555  10.182   0.517   1.653
 3340W        W10556  13.273   1.572  10.704
 3341W        W10557   6.545  13.336   2.924
 3342W        W10558   8.068   5.137   1.784
 3343W        W10559   0.570   7.649  11.487
 3344W        W10560   5.632   8.670   9.041
 3345W        W10561   5.325   7.190   1.963
 3346W        W10562   6.319   3.240  10.117
 3347W        W10563  11.069   1.014  10.372
 3348W        W10564  12.720   8.527  11.070
 3349W        W10565   6.554   0.325  10.100
 3350W        W10566   2.240   9.562   4.121
 3351W        W10567   6.367   3.026   1.401
 3352W        W10568  11.304   4.999  10.239
 3353W        W10569   3.122  10.858   8.782
 3354W        W10570   9.372   3.377   1.359
 3355W        W10571   0.915   7.903   2.709
 3356W        W10572   0.021   3.836   9.404
 3357W        W10573   7.838  13.009   7.824
 3358W        W10574   0.115   0.086  11.579
 3359W        W10575  11.814   3.721   1.341
 3360W        W10576   0.071   2.322  11.983
 3361W        W10577  11.198   4.910   1.656
 3362W        W10578   6.940   3.234   8.698
 3363W        W10579  11.724   2.019   2.253
 3364W        W10580  11.841   5.282   9.281
 3365W        W10581  12.913   7.297   3.456
 3366W        W10582   1.061  13.042  11.928
 3367W        W10583   1.545  11.075  11.018
 3368W        W10584  11.097  10.386   9.862
 3369W        W10585  13.006   9.596   0.331
 3370W        W10586  11.647   1.330   0.889
 3371W        W10587   6.454   7.715   3.433
 3372W        W10588  12.533  12.480  10.193
 3373W        W10589   7.875  11.166   1.280
 3374W        W10590   4.481  11.787   1.925
 3375W        W10591   8.990   2.561   2.409
 3376W        W10592  10.746   9.151  11.688
 3377W        W10593  13.389  12.455  10.222
 3378W        W10594   9.670  13.733   4.084
 3379W        W10595   3.042  13.742  10.219
 3380W        W10596   5.721  12.956   8.791
 3381W        W10597   1.310   4.977  11.554
 3382W        W10598   9.168   4.794   9.681
 3383W        W10599   6.497   2.025   0.315
 3384W        W10600  10.878   0.553   9.719
 3385W        W10601  10.184   5.642  10.607
 3386W        W10602   6.135   7.833   9.544
 3387W        W10603   6.797   0.498   3.308
 3388W        W10604   8.466   3.016  10.193
 3389W        W10605   7.088   8.644  11.853
 3390W        W10606  10.934   8.183   2.820
 3391W        W10607   7.032   4.712   3.640
 3392W        W10608   1.933   9.332   1.676
 3393W        W10609   7.844   4.419   9.560
 3394W        W10610   4.026   1.709  10.224
 3395W        W10611   0.297  13.227   0.569
 3396W        W10612  10.419   0.660   9.986
 3397W        W10613  13.623   6.731  11.458
 3398W        W10614   4.289   0.419   0.388
 3399W        W10615   0.874   8.868   1.288
 3400W        W10616  12.461   7.410  10.641
 3401W        W10617   5.093   7.843   1.478
 3402W        W10618   1.309   3.612   1.975
 3403W        W10619   9.713   2.785  10.688
 3404W        W10620  13.741   2.174   8.640
 3405W        W10621   2.623   6.100  10.211
 3406W        W10622   5.591  13.414   7.957
 3407W        W10623   0.653  11.106   0.919
 3408W        W10624   9.701   7.616   9.133
 3409W        W10625  10.074   8.474   0.815
 3410W        W10626   6.324  12.662  10.207
 3411W        W10627  10.214  12.830  11.939
 3412W        W10628   0.541   0.201   9.200
 3413W        W10629   7.063  13.358   2.746
 3414W        W10630   2.039   9.985   9.536
 3415W        W10631  10.812   9.043   9.784
 3416W        W10632   7.172  13.005  10.723
 3417W        W10633   3.665  13.086   2.894
 3418W        W10634  13.315   1.761  11.608
 3419W        W10635   1.826   9.387  11.107
 3420W        W10636   4.985  11.656  10.662
 3421W        W10637   5.186   9.835  10.842
 3422W        W10638  11.617   5.322  10.035
 3423W        W10639   3.258   1.674   1.771
 3424W        W10640   9.559   8.019   0.085
 3425W        W10641   8.222   1.382   0.397
 3426W        W10642   4.178  10.852   1.588
 3427W        W10643   4.849  11.392   0.011
 3428W        W10644  13.558   8.514   2.174
 3429W        W10645   9.694   1.098   1.200
 3430W        W10646   9.863   8.641  11.635
 3431W        W10647  13.304   5.147   9.836
 3432W        W10648   4.744   7.069   0.798
 3433W        W10649  11.191  10.683  10.801
 3434W        W10650   4.406  12.052   2.824
 3435W        W10651  12.663   6.923   9.003
 3436W        W10652  11.459  11.087   1.222
 3437W        W10653   7.730  11.365   3.042
 3438W        W10654   9.494   8.334   9.384
 3439W        W10655   6.480   1.321  11.273
 3440W        W10656   8.265  12.106   8.101
 3441W        W10657   6.149   9.055  11.394
 3442W        W10658  13.291  13.574   2.194
 3443W        W10659   7.431  12.618  10.555
 3444W        W10660   1.325   8.675   8.435
 3445W        W10661   6.339  10.743   0.933
 3446W        W10662   9.125   0.559  10.044
 3447W        W10663   1.583   8.958   9.366
 3448W        W10664   3.013   0.183   9.832
 3449W        W10665  12.352   3.456  10.291
 3450W        W10666  13.114   7.584  10.063
 3451W        W10667  11.470   0.363   1.473
 3452W        W10668  13.785   3.786   1.087
 3453W        W10669  11.259   3.689  11.542
 3454W        W10670   7.764  13.732   9.851
 3455W        W10671  13.013  13.946   3.010
 3456W        W10672   2.004   4.789   8.452
 3457W        W10673   1.113   7.240  11.040
 3458W        W10674   0.122   7.540   1.597
 3459W        W10675   0.512   8.472   1.227
 3460W        W10676   6.518   2.293  10.280
 3461W        W10677  11.753   6.175   3.693
 3462W        W10678  12.787  10.441   1.362
 3463W        W10679   8.096   4.936   9.114
 3464W        W10680  11.352  12.892   2.565
 3465W        W10681  11.380   8.868  10.594
 3466W        W10682   6.514  11.765   2.994
 3467W        W10683   9.437   2.080   9.196
 3468W        W10684   5.132   3.240   0.980
 3469W        W10685  13.019  10.201   0.984
 3470W        W10686   0.556   2.124   0.376
 3471W        W10687  12.317   5.958  10.484
 3472W        W10688   2.296  12.293  11.192
 3473W        W10689  12.977   1.351   9.371
 3474W        W10690  12.973   4.424   3.410
 3475W        W10691  11.053   0.586   3.000
 3476W        W10692   8.364   4.614  10.490
 3477W        W10693   3.507   5.026   1.196
 3478W        W10694  10.416   6.598   3.352
 3479W        W10695  13.625  10.259  10.052
 3480W        W10696   0.674   6.147  11.454
 3481W        W10697   0.960   2.101  10.744
 3482W        W10698  13.071   7.731  11.802
 3483W        W10699   6.742   2.920   1.826
 3484W        W10700   8.295   6.164   1.551
 3485W        W10701   9.488   7.140  10.812
 3486W        W10702   5.523   3.850   1.355
 3487W        W10703   9.857   3.856   8.935
 3488W        W10704   8.190   0.525   8.600
 3489W        W10705   3.584   3.529   2.701
 3490W        W10706   8.370   5.810   1.909
 3491W        W10707   5.490  11.754   8.400
 3492W        W10708   8.430  10.363   9.818
 3493W        W10709   4.056   4.990  10.960
 3494W        W10710   6.547   9.828   1.102
 3495W        W10711   9.570   5.596  11.392
 3496W        W10712   4.948   5.763   8.676
 3497W        W10713  13.890   8.659   3.123
 3498W        W10714  10.448   6.353   2.495
 3499W        W10715   1.809  13.511   2.041
 3500W        W10716   7.356  12.145  10.765
 3501W        W10717   7.027   3.882  10.834
 3502W        W10718   2.520   5.500   3.021
 3503W        W10719   0.963   5.486   8.962
 3504W        W10720   6.958   6.513   2.641
 3505W        W10721   3.217   1.108   8.211
 3506W        W10722   9.491  10.140   8.937
 3507W        W10723   2.840   1.660   8.224
 3508W        W10724  13.167   7.759   9.055
 3509W        W10725   4.077  11.199   3.739
 3510W        W10726   2.938   3.835   9.490
 3511W        W10727   1.307  13.758   9.387
 3512W        W10728   4.072   2.576  11.508
 3513W        W10729   5.031   6.272  11.282
 3514W        W10730   6.732   4.486  10.950
 3515W        W10731   8.640   9.052   1.671
 3516W        W10732   0.700   9.485  10.205
 3517W        W10733   3.411   4.729   2.336
 3518W        W10734  11.724   8.562   3.746
 3519W        W10735   0.293   5.491   9.560
 3520W        W10736   5.191   1.708   0.867
 3521W        W10737  12.414   2.222   7.989
 3522W        W10738   5.941   1.317   9.373
 3523W        W10739  10.520   6.954  11.984
 3524W        W10740  11.168  12.603   1.345
 3525W        W10741   5.853   1.747   3.657
 3526W        W10742   6.220  12.645   8.942
 3527W        W10743   8.137   3.122  10.602
 3528W        W10744   1.983   1.931   9.553
 3529W        W10745   4.443   4.374   1.307
 3530W        W10746   5.762   6.634  10.266
 3531W        W10747   8.205   1.794   9.918
 3532W        W10748   5.099   0.149   0.624
 3533W        W10749  11.164   2.942   9.658
 3534W        W10750   6.237   5.724   8.850
 3535W        W10751   1.487   2.681  11.764
 3536W        W10752   9.276  11.915  10.042
 3537W        W10753  12.838   5.424  11.106
 3538W        W10754   2.097   0.996   0.612
 3539W        W10755   3.576   3.393   1.806
 3540W        W10756  10.294   4.160  10.075
 3541W        W10757   4.846   4.367   8.783
 3542W        W10758  12.984   6.767   3.433
 3543W        W10759  12.783   5.537   2.211
 3544W        W10760  13.331   7.192   1.572
 3545W        W10761  10.068   8.215  10.933
 3546W        W10762   5.365   4.362   1.423
 3547W        W10763   2.080   4.438   8.102
 3548W        W10764  10.875   1.856   9.863
 3549W        W10765   7.030   7.067  10.214
 3550W        W10766   6.724  10.225  11.165
 3551W        W10767   6.076   1.023  11.382
 3552W        W10768  12.512   9.096   0.212
 3553W        W10769   0.151  11.815   8.689
 3554W        W10770   9.913  10.016  11.826
 3555W        W10771  13.007   3.774  11.796
 3556W        W10772   5.090   7.843   3.627
 3557W        W10773   7.539   1.313   3.899
 3558W        W10774  13.233  11.049   0.707
 3559W        W10775   6.719  12.760   9.025
 3560W        W10776   9.519   0.403   8.204
 3561W        W10777  12.096   8.442   2.113
 3562W        W10778   5.977  10.829   1.349
 3563W        W10779   2.969   1.099   2.893
 3564W        W10780   3.892   9.571   2.167
 3565W        W10781   1.878   3.402   2.196
 3566W        W10782   6.004   9.169   2.233
 3567W        W10783   8.669  10.284   0.849
 3568W        W10784   8.609  12.997   7.641
 3569W        W10785  13.067   2.705  10.798
 3570W        W10786   0.489   4.893   8.262
 3571W        W10787   8.569   7.729   8.043
 3572W        W10788   7.000  12.893  11.181
 3573W        W10789   5.839   0.834   9.653
 3574W        W10790   7.573  13.138   0.756
 3575W        W10791   9.642   5.970  11.755
 3576W        W10792   7.115   3.893   2.796
 3577W        W10793  11.239   1.595   1.545
 3578W        W10794   2.094   8.868   1.870
 3579W        W10795  13.750   6.572   8.245
 3580W        W10796   0.507   3.273   3.563
 3581W        W10797   4.495   1.488   1.577
 3582W        W10798   2.567   2.147   1.386
 3583W        W10799   4.623   7.327   0.046
 3584W        W10800  13.108   4.967   9.393
 3585W        W10801   7.034  11.488   1.395
 3586W        W10802   8.683   6.482  11.276
 3587W        W10803   0.106   2.975   1.370
 3588W        W10804   0.099   1.661   1.574
 3589W        W10805   7.295   7.346   2.814
 3590W        W10806  10.399  11.011   8.933
 3591W        W10807   9.120  12.878   0.521
 3592W        W10808   4.696  12.909  10.760
 3593W        W10809   0.657  11.507   9.326
 3594W        W10810   0.327  13.422  10.384
 3595W        W10811   1.757   0.933   3.537
 3596W        W10812   4.308   8.348  11.714
 3597W        W10813  13.737   5.687   1.734
 3598W        W10814   2.281   6.995  11.481
 3599W        W10815   5.040  10.503   1.998
 3600W        W10816   7.891   8.614   9.835
 3601W        W10817  11.926   7.601   9.954
 3602W        W10818  11.307   4.181   0.929
 3603W        W10819   7.360   7.406  11.530
 3604W        W10820  10.440   4.366   9.308
 3605W        W10821   5.313   9.284   2.332
 3606W        W10822   8.516  13.916   2.834
 3607W        W10823   1.663   6.200  10.546
 3608W        W10824   0.695   2.497   2.306
 3609W        W10825   8.435   0.437  10.633
 3610W        W10826   4.115   9.657   8.883
 3611W        W10827  10.341   3.866   8.640
 3612W        W10828  12.562   5.963   3.568
 3613W        W10829   8.811   5.323  10.745
 3614W        W10830   6.459   1.104   2.578
 3615W        W10831  13.412  10.499   8.876
 3616W        W10832   9.367  10.563   9.665
 3617W        W10833  13.469   2.876   1.892
 3618W        W10834   1.609   2.717  10.428
 3619W        W10835  13.310   3.556   9.461
 3620W        W10836   5.798   4.203   1.121
 3621W        W10837   0.562   8.730   2.209
 3622W        W10838  13.565   2.875   0.263
 3623W        W10839  12.271   4.606   0.567
 3624W        W10840   8.436   0.032   2.244
 3625W        W10841   3.015   0.043   2.713
 3626W        W10842  11.082   0.321   0.235
 3627W        W10843   1.504   1.287  11.517
 3628W        W10844   5.549   0.025   0.443
 3629W        W10845  13.654  11.709   8.544
 3630W        W10846   2.118   5.080   4.144
 3631W        W10847   7.995   7.705   0.012
 3632W        W10848   6.893   3.601   1.881
 3633W        W10849  11.137   3.817   8.849
 3634W        W10850  10.502   7.011  11.487
 3635W        W10851   4.601   7.280   9.192
 3636W        W10852   4.930   0.218   9.411
 3637W        W10853  11.237   6.963  10.395
 3638W        W10854   9.418   0.898   2.394
 3639W        W10855  12.129  12.460   3.652
 3640W        W10856   7.024   6.190   8.640
 3641W        W10857  13.253  12.216   7.785
 3642W        W10858   0.126   6.703  11.525
 3643W        W10859  10.275  13.618   1.562
 3644W        W10860   8.525   0.556   0.616
 3645W        W10861  13.381  12.045   8.807
 3646W        W10862   1.354   8.251  10.406
 3647W        W10863  13.713  11.204   0.690
 3648W        W10864  11.750   6.441   1.310
 3649W        W10865   3.404   4.062   0.323
 3650W        W10866  13.404  10.974   2.749
 3651W        W10867   9.663   2.603  11.150
 3652W        W10868   2.296   9.285  11.968
 3653W        W10869   6.708  12.933  11.584
 3654W        W10870   8.413   1.666  10.376
 3655W        W10871  12.420  13.475  11.122
 3656W        W10872   5.972   6.945   9.521
 3657W        W10873   2.442   9.040  10.181
 3658W        W10874   0.786   4.700   2.747
 3659W        W10875  10.958   6.853   9.649
 3660W        W10876   2.267   1.331   0.276
 3661W        W10877   1.998   3.399   0.925
 3662W        W10878   9.701   6.951   0.956
 3663W        W10879  11.736   6.990  10.451
 3664W        W10880   7.330   2.601  10.501
 3665W        W10881   3.112   4.367   0.743
 3666W        W10882  13.249  13.481   1.542
 3667W        W10883   1.733  10.841   9.200
 3668W        W10884  10.645  12.522  11.975
 3669W        W10885   6.458  12.156  11.316
 3670W        W10886   2.158  10.136  11.668
 3671W        W10887  11.360   6.679   8.737
 3672W        W10888  11.862   7.831   9.167
 3673W        W10889   9.975   6.508   1.090
 3674W        W10890   4.945   1.543   8.736
 3675W        W10891  12.904   9.021   2.794
 3676W        W10892   4.332   3.171   2.950
 3677W        W10893  10.149   9.735   1.113
 3678W        W10894   7.933   9.962  10.363
 3679W        W10895   3.406   7.597  11.965
 3680W        W10896  13.066   5.742  11.519
 3681W        W10897   1.841   0.900   2.282
 3682W        W10898   3.782   3.953   9.288
 3683W        W10899   3.033   0.250  10.341
 3684W        W10900  11.874  12.413   3.155
 3685W        W10901  12.199  11.089   9.513
 3686W        W10902   7.640   4.373  10.040
 3687W        W10903   3.901   1.691   0.648
 3688W        W10904   4.746   3.498   7.714
 3689W        W10905   4.134   1.483   8.946
 3690W        W10906   3.805   7.924   1.561
 3691W        W10907   6.152  12.889   8.480
 3692W        W10908   2.406  10.544  11.204
 3693W        W10909   2.621   2.249   3.582
 3694W        W10910   1.232   0.302   1.602
 3695W        W10911   1.782   8.126   9.504
 3696W        W10912  11.305   8.920   2.498
 3697W        W10913   7.378   0.258   3.291
 3698W        W10914   7.148   5.273   9.900
 3699W        W10915   4.853  13.663  10.548
 3700W        W10916   0.031  12.671   2.411
 3701W        W10917   1.722   8.040   1.749
 3702W        W10918  12.558   9.443   1.092
 3703W        W10919   0.868   3.401   9.651
 3704W        W10920   5.052   5.865   7.766
 3705W        W10921   3.829   3.793   0.004
 3706W        W10922   5.717   5.155  11.305
 3707W        W10923  10.194   4.527   3.194
 3708W        W10924   0.596   9.962   0.814
 3709W        W10925   3.181   0.701   3.160
 3710W        W10926   9.859  10.476   9.739
 3711W        W10927   8.423   6.931   9.338
 3712W        W10928   1.615  11.836   2.968
 3713W        W10929   6.505  11.051   2.548
 3714W        W10930   5.304   1.676   4.150
 3715W        W10931  12.892  12.174   9.413
 3716W        W10932   0.034   0.766   2.689
 3717W        W10933   4.564   7.688   1.566
 3718W        W10934   6.446  10.571   2.705
 3719W        W10935   4.519  10.156   8.374
 3720W        W10936   4.879   9.514  10.544
 3721W        W10937  10.534   1.864   9.457
 3722W        W10938   8.847   3.514   1.132
 3723W        W10939   1.399   0.379   0.241
 3724W        W10940   6.918   3.196   0.477
 3725W        W10941   8.726  11.645   0.875
 3726W        W10942  13.485   2.228  11.412
 3727W        W10943  10.344   5.668  11.100
 3728W        W10944  10.263  12.519  10.894
 3729W        W10945   7.662   9.629   2.470
 3730W        W10946  10.467  11.530  10.630
 3731W        W10947   3.693  10.006   2.335
 3732W        W10948   9.897  12.856   4.265
 3733W        W10949  13.514   1.922   3.006
 3734W        W10950  13.299   7.415   2.083
 3735W        W10951  12.680   9.174   1.497
 3736W        W10952   1.329   9.136  11.348
 3737W        W10953  11.918   3.904  10.996
 3738W        W10954   9.045  11.822   4.184
 3739W        W10955   8.750   8.634  10.867
 3740W        W10956   8.048   8.863   1.982
 3741W        W10957  11.005   9.696   1.888
 3742W        W10958   5.152   4.414   2.810
 3743W        W10959   5.103   4.788  11.853
 3744W        W10960   8.760   0.763   2.586
 3745W        W10961   3.743  12.555   8.349
 3746W        W10962   1.659  10.676   1.625
 3747W        W10963   1.484   0.985   8.580
 3748W        W10964  12.009   2.953   0.912
 3749W        W10965  10.297   2.956  11.846
 3750W        W10966  12.433  12.608   1.963
 3751W        W10967   8.150   0.858   7.456
 3752W        W10968  13.269  13.258   9.738
 3753W        W10969   7.303   4.421   2.875
 3754W        W10970  10.813  12.054   0.160
 3755W        W10971  13.105   1.817   8.585
 3756W        W10972  12.648   0.638   3.540
 3757W        W10973  13.888  12.451   0.313
 3758W        W10974   4.610   1.211   8.953
 3759W        W10975  12.569   5.630   3.953
 3760W        W10976  11.876  13.799  11.412
 3761W        W10977  11.474   9.037   1.173
 3762W        W10978   7.141  11.057   3.256
 3763W        W10979   6.480  11.931   9.731
 3764W        W10980   7.960   5.905  10.167
 3765W        W10981   0.287  13.420   8.505
 3766W        W10982   0.377  11.372   8.793
 3767W        W10983   8.286   4.577  11.917
 3768W        W10984  10.342  12.180  11.278
 3769W        W10985   4.857   4.518   1.574
 3770W        W10986   7.022   8.233   0.526
 3771W        W10987   8.332   9.343   9.068
 3772W        W10988  12.084   2.966  10.580
 3773W        W10989   1.552  10.676   0.102
 3774W        W10990  12.478   6.361   0.677
 3775W        W10991   2.148  11.508   8.377
 3776W        W10992  10.852   3.370   2.964
 3777W        W10993   0.888   1.773   0.684
 3778W        W10994   7.549   2.954  11.757
 3779W        W10995   2.857  10.769  11.437
 3780W        W10996   2.402  10.977   1.654
 3781W        W10997   9.043   7.708   3.060
 3782W        W10998  12.423  11.785   1.220
 3783W        W10999   4.284  13.478   0.501
 3784W        W11000   2.411  13.557   0.871
 3785W        W11001   7.218   1.961  10.961
 3786W        W11002  12.339   3.567   4.001
 3787W        W11003   4.384  13.801   1.625
 3788W        W11004   3.075   1.378  11.852
 3789W        W11005   8.557   8.785   2.090
 3790W        W11006  13.118   0.840   8.500
 3791W        W11007  13.861   0.076   3.419
 3792W        W11008   0.392  11.284  10.260
 3793W        W11009  11.801   1.317  10.846
 3794W        W11010   8.120   0.495   9.663
 3795W        W11011   0.935   4.425   8.991
 3796W        W11012   6.330   9.772  11.834
 3797W        W11013   5.378  12.534   8.560
 3798W        W11014   0.100   7.147   0.044
 3799W        W11015   0.196   1.840  11.903
 3800W        W11016   9.009   4.711   3.059
 3801W        W11017   3.709   3.600   3.448
 3802W        W11018   4.020   2.513   9.154
 3803W        W11019   3.937   3.745   7.815
 3804W        W11020   5.690  13.529   1.185
 3805W        W11021   6.975   5.354   2.514
 3806W        W11022   3.249  13.990  11.490
 3807W        W11023   0.665   8.742  10.758
 3808W        W11024  11.269   9.790   2.329
 3809W        W11025  12.524  13.096   1.422
 3810W        W11026   3.286   9.591   9.557
 3811W        W11027   9.170   7.206  11.756
 3812W        W11028   2.437  12.832   3.228
 3813W        W11029   1.196   1.801   2.292
 3814W        W11030  10.444   8.372   2.662
 3815W        W11031  13.130   9.358   3.797
 3816W        W11032  10.752   2.533   1.977
 3817W        W11033   8.152  12.140  11.081
 3818W        W11034   8.870  11.212  10.184
 3819W        W11035  12.174   8.612   9.225
 3820W        W11036   2.728   2.110   9.461
 3821W        W11037   8.527   3.418   0.724
 3822W        W11038  11.783  13.495   2.995
 3823W        W11039  10.420   3.481  11.718
 3824W        W11040  10.568   3.990   1.971
 3825W        W11041  10.969  10.664   3.932
 3826W        W11042   4.841   5.206   8.070
 3827W        W11043   1.041  10.021  11.566
 3828W        W11044   8.229   3.177   3.153
 3829W        W11045   8.347   5.249  10.542
 3830W        W11046   8.174  12.160  11.856
 3831W        W11047   4.362   6.529   9.724
 3832W        W11048   8.639   9.139   8.197
 3833W        W11049   4.959   6.454   3.243
 3834W        W11050   7.259  13.377   8.341
 3835W        W11051  10.533   4.816  10.592
 3836W        W11052  11.010  11.520   3.595
 3837W        W11053   1.061  11.141  10.854
 3838W        W11054   3.072   9.949   2.975
 3839W        W11055   5.371   8.180   2.965
 3840W        W11056   1.374   5.874   2.572
 3841W        W11057   3.471   9.723  10.023
 3842W        W11058  13.602   3.621  10.240
 3843W        W11059  12.495   8.749   2.687
 3844W        W11060   9.946   3.226   9.737
 3845W        W11061   9.023   1.826   1.389
 3846W        W11062   0.168   3.746   9.901
 3847W        W11063   8.230   9.933   3.257
 3848W        W11064   3.380   3.123   8.150
 3849W        W11065  13.401   2.112   8.254
 3850W        W11066   9.954  11.803   8.981
 3851W        W11067   6.906   1.646   4.350
 3852W        W11068  13.380   9.333   0.547
 3853W        W11069   2.246  13.016   1.185
 3854W        W11070   4.008   4.720  11.995
 3855W        W11071   5.424   9.492   1.873
 3856W        W11072   4.896   6.790  10.545
 3857W        W11073   7.150  12.524  10.152
 3858W        W11074   8.363   2.284   8.596
 3859W        W11075   9.665   7.275   2.707
 3860W        W11076  10.687   6.308  10.494
 3861W        W11077  12.315   7.833   8.910
 3862W        W11078   0.820   9.360   0.029
 3863W        W11079  12.507   6.272  11.105
 3864W        W11080   4.767   1.737   8.264
 3865W        W11081  12.493  13.448  10.292
 3866W        W11082   8.665  13.672  11.722
 3867W        W11083  11.670  11.353  10.532
 3868W        W11084  12.845   9.337  11.905
 3869W        W11085   5.992   0.712   1.027
 3870W        W11086   4.834  12.278   2.689
 3871W        W11087  10.088   9.800  10.946
 3872W        W11088   1.094   1.463  11.817
 3873W        W11089  13.893   2.203   2.150
 3874W        W11090   0.868   3.497   3.305
 3875W        W11091   7.227   4.281   9.117
 3876W        W11092   0.102  11.109   3.196
 3877W        W11093  12.407  11.470   8.212
 3878W        W11094  13.597   3.981   8.737
 3879W        W11095   8.681  13.851   8.040
 3880W        W11096   6.179   8.377   2.862
 3881W        W11097   4.823   3.035   2.837
 3882W        W11098   0.497  12.664  11.498
 3883W        W11099   3.881   1.735   9.742
 3884W        W11100   4.286   2.130   2.003
 3885W        W11101   1.977  11.071   1.979
 3886W        W11102  13.414   3.499   0.862
 3887W        W11103   1.182  10.929  11.350
 3888W        W11104  11.702   5.328   0.853
 3889W        W11105  11.774   4.155   1.106
 3890W        W11106  10.683  12.725   8.481
 3891W        W11107  13.307   9.687   7.706
 3892W        W11108  11.816   6.585   3.386
 3893W        W11109   0.478  13.493   1.969
 3894W        W11110   0.020   1.374   8.750
 3895W        W11111   6.847   0.943  10.506
 3896W        W11112   0.715   0.607   9.920
 3897W        W11113  11.123   1.598   2.929
 3898W        W11114   1.042   2.260   0.579
 3899W        W11115   3.794   8.351   1.863
 3900W        W11116   0.194   0.700   9.788
 3901W        W11117  13.464   3.794   0.033
 3902W        W11118   6.945   7.829   9.746
 3903W        W11119   3.583   7.638   3.880
 3904W        W11120   8.278  11.639  11.180
 3905W        W11121  12.562  12.240   3.370
 3906W        W11122   2.861  12.164   8.420
 3907W        W11123  12.972   3.363   2.805
 3908W        W11124  12.342   0.750   1.263
 3909W        W11125   6.281   8.868   9.788
 3910W        W11126   3.966  12.533  10.546
 3911W        W11127  13.608   9.266   1.557
 3912W        W11128   1.181   7.297   3.359
 3913W        W11129   4.025  11.630   0.642
 3914W        W11130   9.542  10.255  11.075
 3915W        W11131   3.339   2.331   2.085
 3916W        W11132   0.399  10.093   1.613
 3917W        W11133   9.402   3.646   9.095
 3918W        W11134   7.083  10.570  11.149
 3919W        W11135   8.372   8.604  10.000
 3920W        W11136  10.806   3.292   1.503
 3921W        W11137  11.372  13.404   8.089
 3922W        W11138   1.155   1.633  11.340
 3923W        W11139  12.673   4.598   9.929
 3924W        W11140   9.423   2.872   1.465
 3925W        W11141   9.830  13.559  10.364
 3926W        W11142  11.930   8.017   1.900
 3927W        W11143  10.924   5.957   1.379
 3928W        W11144   0.292  10.807  11.335
 3929W        W11145   5.483   5.397   9.265
 3930W        W11146   6.222  13.022   3.120
 3931W        W11147   3.432   7.187   1.302
 3932W        W11148   0.760   0.431   3.137
 3933W        W11149  10.196   1.047   1.276
 3934W        W11150   7.302   9.929   8.607
 3935W        W11151   9.376   5.773  10.975
 3936W        W11152  10.848   1.631  11.995
 3937W        W11153   7.949  12.975  11.798
 3938W        W11154   8.806  11.540   2.748
 3939W        W11155   5.393   6.074   1.411
 3940W        W11156  11.398   5.081   1.223
 3941W        W11157   5.461   4.058   1.823
 3942W        W11158   9.637   3.564  11.307
 3943W        W11159   7.717  10.135   2.423
 3944W        W11160   5.268   2.265  10.699
 3945W        W11161   1.664   8.592  10.174
 3946W        W11162   3.879   3.085  11.527
 3947W        W11163   6.737   0.556  10.893
 3948W        W11164   9.582  10.578   2.065
 3949W        W11165   8.787   1.361  10.654
 3950W        W11166  11.090  12.952   3.578
 3951W        W11167  10.480   4.533   1.922
 3952W        W11168  12.226   0.057  11.122
 3953W        W11169   7.418   3.460  11.723
 3954W        W11170  13.310  12.858   8.806
 3955W        W11171   7.652   5.374   0.680
 3956W        W11172  12.613   7.527  10.140
 3957W        W11173   2.895  10.589   9.159
 3958W        W11174   7.364   1.676   3.615
 3959W        W11175  13.884   3.922   3.271
 3960W        W11176   1.952  12.858  11.710
 3961W        W11177   1.361   4.376   0.302
 3962W        W11178   9.802   4.279   1.470
 3963W        W11179   6.356  10.100   2.524
 3964W        W11180   8.166   5.165   9.688
 3965W        W11181   1.907   7.041  10.836
 3966W        W11182   0.619   7.511  10.525
 3967W        W11183  13.005  13.157   1.230
 3968W        W11184   9.037   3.322   9.298
 3969W        W11185   8.054   6.627   3.383
 3970W        W11186   0.430  10.416   9.803
 3971W        W11187   7.634   2.022  11.678
 3972W        W11188  13.327  10.310  10.478
 3973W        W11189   2.176   1.572   4.204
 3974W        W11190   4.187   3.858   9.002
 3975W        W11191  13.842   0.882  11.272
 3976W        W11192   9.421   2.810   2.365
 3977W        W11193  12.145   9.443   3.683
 3978W        W11194   1.602  13.694   2.455
 3979W        W11195  13.520   4.572   1.248
 3980W        W11196  10.412  13.012   4.329
 3981W        W11197   3.897  11.279   2.473
 3982W        W11198  12.228   3.916  10.585
 3983W        W11199   6.715   2.126  11.826
 3984W        W11200  12.993   0.572   8.919
 3985W        W11201  12.268   0.313   3.544
 3986W        W11202   1.219   8.237  11.424
 3987W        W11203  12.547  10.805   9.808
 3988W        W11204   9.429   3.239   4.249
 3989W        W11205  10.340   3.214   0.625
 3990W        W11206  13.413   7.273   3.344
 3991W        W11207   3.632   5.507  11.581
 3992W        W11208   5.822   7.552   0.254
 3993W        W11209  10.392   3.789   0.149
 3994W        W11210   7.938   0.480   7.758
 3995W        W11211   6.224   8.736   7.877
 3996W        W11212   7.634   1.597   1.060
 3997W        W11213  13.669   2.377   3.141
 3998W        W11214   6.633  12.028   2.591
 3999W        W11215   3.005   8.008   1.485
 4000W        W11216  12.398   9.876  10.783
 4001W        W11217  13.347   0.012   3.383
 4002W        W11218  11.796   3.905   3.893
 4003W        W11219  11.521   0.795  10.330
 4004W        W11220   1.048  12.760  11.138
 4005W        W11221   4.068  11.309   1.407
 4006W        W11222   3.892  11.652   8.641
 4007W        W11223  10.329   9.194   8.947
 4008W        W11224   6.138   9.598  10.111
 4009W        W11225   5.571  13.438   2.982
 4010W        W11226  13.999   3.709   8.887
 4011W        W11227   5.224   9.107   1.600
 4012W        W11228   1.206  11.853   8.491
 4013W        W11229   6.524   3.934   9.688
 4014W        W11230   9.366   5.286   0.262
 4015W        W11231   3.988   2.637   1.617
 4016W        W11232   9.378   8.523   9.820
 4017W        W11233  12.180   0.252   1.850
 4018W        W11234   8.696  11.171   0.749
 4019W        W11235   9.862   3.745  10.425
 4020W        W11236   6.320   0.859  10.921
 4021W        W11237   5.105   0.250   9.917
 4022W        W11238   0.555   1.415   0.447
 4023W        W11239   5.335   5.741  10.162
 4024W        W11240  10.641   3.384  11.010
 4025W        W11241  13.635   2.014  10.128
 4026W        W11242   2.711   9.008   0.076
 4027W        W11243  12.278  13.909   1.482
 4028W        W11244   9.417   1.457   0.659
 4029W        W11245   3.794   8.513   3.703
 4030W        W11246  10.025  10.100   2.602
 4031W        W11247   2.495   9.043  10.668
 4032W        W11248   6.778   0.237   9.611
 4033W        W11249   5.070  12.158   0.349
 4034W        W11250   5.267  12.975   2.972
 4035W        W11251   5.995   9.967   2.201
 4036W        W11252  12.054   4.842   8.458
 4037W        W11253   4.702   9.745   2.151
 4038W        W11254  13.335   2.628  11.781
 4039W        W11255   6.461   4.882  10.244
 4040W        W11256   6.981   3.051   3.080
 4041W        W11257   6.990   9.072   0.122
 4042W        W11258   8.659   3.577  11.371
 4043W        W11259   4.342  12.526  11.955
 4044W        W11260  11.788  10.503   8.820
 4045W        W11261  10.798  12.578   9.915
 4046W        W11262  11.929  13.497   0.274
 4047W        W11263   7.312   2.632   9.736
 4048W        W11264   2.907   0.598   3.593
 4049W        W11265   8.097  12.768   3.931
 4050W        W11266   4.366  10.850  10.158
 4051W        W11267  12.557   4.991  10.220
 4052W        W11268   1.565   5.613   8.108
 4053W        W11269   2.572   4.459   8.859
 4054W        W11270   5.736   3.552  10.693
 4055W        W11271   5.834   9.939  11.172
 4056W        W11272  13.724   9.662   1.214
 4057W        W11273   5.724   6.068   3.439
 4058W        W11274   6.886   8.427   1.215
 4059W        W11275   5.222   5.332  10.438
 4060W        W11276   7.839   0.935   4.022
 4061W        W11277   6.982  11.936   2.934
 4062W        W11278  13.815  13.553   2.210
 4063W        W11279   1.589  12.755   0.387
 4064W        W11280   7.083   3.306   0.955
 4065W        W11281   8.224   2.643   9.269
 4066W        W11282   9.396   2.663  10.219
 4067W        W11283   8.934   8.624   1.795
 4068W        W11284   0.980   5.291   7.719
 4069W        W11285  11.761   9.202   8.755
 4070W        W11286   1.411   5.209   9.122
 4071W        W11287   8.460   6.759   4.240
 4072W        W11288   7.070   7.809   0.261
 4073W        W11289  10.524   9.756   2.040
 4074W        W11290   1.278  10.734   9.370
 4075W        W11291  10.718   3.868  10.693
 4076W        W11292   6.461  10.312   9.690
 4077W        W11293  12.593   7.487   3.102
 4078W        W11294   3.692   5.725  11.120
 4079W        W11295   8.558   5.016   2.405
 4080W        W11296   0.400   1.265   1.409
 4081W        W11297   6.264   1.853   2.057
 4082W        W11298   0.652   1.189   9.290
 4083W        W11299   4.689   5.227   0.863
 4084W        W11300   2.184  10.818   2.386
 4085W        W11301   6.349   4.246   1.813
 4086W        W11302   9.968   5.860  10.164
 4087W        W11303   4.968   5.812  11.571
 4088W        W11304   3.205   5.298  10.537
 4089W        W11305  13.623   5.249  10.787
 4090W        W11306   6.004  11.267   0.017
 4091W        W11307   1.981  10.072   0.611
 4092W        W11308   7.009   7.001   2.514
 4093W        W11309   3.374   5.571   7.847
 4094W        W11310   1.798   0.316   4.282
 4095W        W11311   2.793   6.397   0.099
 4096W        W11312   9.415   9.323   7.893
 4097W        W11313   3.730   9.593  11.360
 4098W        W11314   2.810   4.897   9.725
 4099W        W11315  10.386  11.512   9.050
 4100W        W11316   3.563   4.359   9.541
 4101W        W11317   6.822   2.879  11.089
 4102W        W11318   4.556   8.411   2.447
 4103W        W11319  13.299   7.396   7.894
 4104W        W11320   9.099  11.345   9.353
 4105W        W11321   8.291   9.535   9.533
 4106W        W11322  12.400   6.477  10.641
 4107W        W11323   2.547   4.189  11.294
 4108W        W11324   1.793   4.496  11.487
 4109W        W11325  12.002   7.911   8.503
 4110W        W11326   8.653   7.924   3.321
 4111W        W11327  13.656   8.804   8.458
 4112W        W11328   0.963   0.417  11.926
 4113W        W11329   5.219   5.364   0.547
 4114W        W11330   6.853   4.752   9.422
 4115W        W11331  12.524   3.902  11.043
 4116W        W11332  10.283   5.615  11.754
 4117W        W11333   4.768  13.501   7.901
 4118W        W11334  10.987   2.377   2.791
 4119W        W11335  10.121   1.959  10.823
 4120W        W11336   3.201   4.649   3.570
 4121W        W11337   2.357   5.633  11.072
 4122W        W11338  12.092   5.592  10.819
 4123W        W11339   1.069   5.538   0.888
 4124W        W11340   6.006  12.947   0.593
 4125W        W11341   5.100   0.634   9.216
 4126W        W11342   8.894  10.354   8.513
 4127W        W11343  13.415   9.285   1.070
 4128W        W11344  11.399   8.985   1.929
 4129W        W11345  12.190   2.021  11.660
 4130W        W11346   1.617   6.662   0.587
 4131W        W11347   0.574  10.960   0.037
 4132W        W11348   0.575  11.545   1.205
 4133W        W11349   6.923   0.455  10.429
 4134W        W11350   5.410   8.301   0.627
 4135W        W11351   5.183  10.726   7.862
 4136W        W11352   1.074  12.584   2.661
 4137W        W11353  10.868   7.232  11.770
 4138W        W11354   5.211   9.826   0.860
 4139W        W11355   9.622  11.484   2.507
 4140W        W11356  13.322   2.477   3.590
 4141W        W11357   4.513   3.941   1.618
 4142W        W11358  12.036   2.886   0.411
 4143W        W11359   0.817  12.077   1.320
 4144W        W11360  12.603   0.217  10.832
 4145W        W11361   3.076   1.802   2.679
 4146W        W11362   0.987   4.965   8.973
 4147W        W11363   1.188  12.235   1.031
 4148W        W11364   3.240   2.486   1.211
 4149W        W11365   6.267   5.534  11.564
 4150W        W11366   3.241  11.598  10.737
 4151W        W11367   0.603  11.771  11.387
 4152W        W11368  11.197   3.546   1.215
 4153W        W11369   3.109  13.216   0.367
 4154W        W11370   8.105   5.603   8.905
 4155W        W11371   1.805   6.568   9.181
 4156W        W11372   8.138   4.633  10.947
 4157W        W11373  13.992   3.018  11.496
 4158W        W11374  12.021   8.243   8.888
 4159W        W11375   8.032   5.396   2.570
 4160W        W11376   2.351   2.361  11.453
 4161W        W11377   6.604   0.338   3.836
 4162W        W11378   6.990   3.822   9.812
 4163W        W11379   3.793   8.155   4.058
 4164W        W11380   7.088  11.162  10.587
 4165W        W11381   0.720   7.587   9.218
 4166W        W11382   3.012   4.188   8.878
 4167W        W11383   6.675   4.103  11.613
 4168W        W11384   3.576  13.558  10.088
 4169W        W11385   8.318   3.409  10.989
 4170W        W11386   4.609  10.768   1.839
 4171W        W11387   7.732   0.348   1.117
 4172W        W11388   5.751   7.827   2.199
 4173W        W11389   4.006   4.929  10.293
 4174W        W11390  11.224  11.230   1.965
 4175W        W11391   9.402   3.049   0.464
 4176W        W11392   1.193  12.358   3.102
 4177W        W11393   5.026   0.606   1.798
 4178W        W11394   9.576  12.437   4.355
 4179W        W11395  11.051   2.398  11.134
 4180W        W11396   3.514   8.495  10.205
 4181W        W11397   8.222  12.970  11.353
 4182W        W11398  10.073   6.459   3.741
 4183W        W11399  12.636  11.851   1.682
 4184W        W11400  12.935   1.273  11.551
 4185W        W11401  11.059   1.496   0.435
 4186W        W11402   0.053   8.266   1.141
 4187W        W11403   6.287   0.863   2.147
 4188W        W11404   8.868  12.141  10.258
 4189W        W11405   1.103   2.017   3.071
 4190W        W11406   7.933   8.136   2.505
 4191W        W11407   5.763   7.412   3.073
 4192W        W11408   1.853  13.515   0.047
 4193W        W11409   0.592   4.051  10.951
 4194W        W11410   6.415  11.257   3.052
 4195W        W11411   3.539   8.747   1.187
 4196W        W11412   9.067  11.719   8.246
 4197W        W11413   1.903   8.510  11.815
 4198W        W11414   4.280  13.778  10.601
 4199W        W11415   4.684   7.437   8.686
 4200W        W11416   3.246  11.453   0.893
 4201W        W11417   8.486   5.520   0.469
 4202W        W11418  10.268   3.534  10.705
 4203W        W11419   5.276   0.900   2.139
 4204W        W11420   9.318   5.020   0.699
 4205W        W11421  11.119  11.997   9.621
 4206W        W11422   1.268   1.431   8.666
 4207W        W11423  13.486   8.561   9.879
 4208W        W11424   0.290   7.915   1.966
 4209W        W11425  12.892   0.166   0.951
 4210W        W11426   4.934  13.110   8.655
 4211W        W11427   6.637   7.537   2.105
 4212W        W11428   8.270   1.943   3.462
 4213W        W11429  12.247   5.102   0.728
 4214W        W11430   3.568   1.270   7.647
 4215W        W11431   7.727  12.945   2.652
 4216W        W11432  13.849   9.143   0.289
 4217W        W11433   2.085   4.620   7.620
 4218W        W11434   8.261   6.338   3.024
 4219W        W11435  10.961   8.571  10.753
 4220W        W11436  11.298   9.847  11.659
 4221W        W11437  11.293   2.498   9.333
 4222W        W11438   1.072  10.815   0.020
 4223W        W11439   2.925   6.148  10.626
 4224W        W11440   2.833   7.757  11.181
 4225W        W11441   9.407   7.167   1.336
 4226W        W11442  12.717   0.991   8.801
 4227W        W11443  13.668   5.768   0.151
 4228W        W11444  11.297   9.633   9.253
 4229W        W11445  10.120   7.296   3.577
 4230W        W11446   3.703   0.111   8.876
 4231W        W11447   8.597   9.763   2.341
 4232W        W11448   7.491  11.493   1.102
 4233W        W11449  12.429   4.234  10.197
 4234W        W11450   2.269  13.787   9.480
 4235W        W11451   6.066   9.886   8.850
 4236W        W11452   1.078   3.598   0.930
 4237W        W11453   1.127  12.590   9.999
 4238W        W11454   3.128   6.185   1.037
 4239W        W11455   0.389  10.595  10.851
 4240W        W11456   5.972   7.059   0.327
 4241W        W11457   7.559   8.968   2.113
 4242W        W11458  12.626   6.007  11.513
 4243W        W11459   2.342   1.417   1.800
 4244W        W11460   4.469  11.395   0.456
 4245W        W11461   6.634   6.291   3.566
 4246W        W11462   8.490  12.941  11.755
 4247W        W11463   9.275   1.356   8.146
 4248W        W11464  12.804  12.535  11.045
 4249W        W11465   4.640   2.176   0.272
 4250W        W11466   4.205   1.682   1.196
 4251W        W11467   4.552   9.624   2.697
 4252W        W11468   1.534   5.343   0.881
 4253W        W11469   4.136   3.726   2.477
 4254W        W11470   7.755   4.542   2.284
 4255W        W11471  10.686   1.362   8.340
 4256W        W11472  13.174   8.995   1.449
 4257W        W11473   3.694  13.936  11.758
 4258W        W11474   5.502   8.970   1.987
 4259W        W11475   7.279   8.724   3.436
 4260W        W11476  12.106   0.911   2.577
 4261W        W11477   0.335   7.547   0.267
 4262W        W11478   3.218   5.460   1.224
 4263W        W11479  13.797   8.155  10.011
 4264W        W11480   2.955  10.000   3.477
 4265W        W11481   0.703   2.539   9.624
 4266W        W11482   2.894  10.405  11.074
 4267W        W11483   2.491   4.712  10.087
 4268W        W11484   8.363   1.401   3.489
 4269W        W11485   9.653  12.577   9.562
 4270W        W11486  10.952  13.906   1.073
 4271W        W11487   3.872  10.290  11.889
 4272W        W11488   8.731   7.864   1.201
 4273W        W11489   8.307   5.666   3.535
 4274W        W11490   2.703  13.746   9.829
 4275W        W11491   2.394   5.432   9.071
 4276W        W11492   3.415   1.410   9.150
 4277W        W11493   4.479   0.358   8.474
 4278W        W11494   6.624   7.553  10.577
 4279W        W11495  11.814   3.027   8.628
 4280W        W11496   7.720   1.437   0.521
 4281W        W11497  11.867   4.196   0.590
 4282W        W11498   3.880   8.326   8.820
 4283W        W11499   7.408   4.340   0.401
 4284W        W11500  13.697   4.135   2.818
 4285W        W11501   8.550  13.351  11.350
 4286W        W11502   9.434  12.556  11.358
 4287W        W11503   2.716  12.028   9.497
 4288W        W11504   2.248  11.751  10.836
 4289W        W11505  11.866   4.600   0.243
 4290W        W11506   0.934  13.612   9.908
 4291W        W11507  13.945   1.429   8.232
 4292W        W11508   5.185   9.798   8.794
 4293W        W11509   4.436  13.525   2.394
 4294W        W11510   5.371   5.780   9.606
 4295W        W11511   3.752  13.742   9.232
 4296W        W11512  13.026   9.503   1.305
 4297W        W11513   5.234  13.285   8.295
 4298W        W11514   2.931   8.527   3.490
 4299W        W11515   2.965   4.214   3.706
 4300W        W11516   4.286   5.308   1.175
 4301W        W11517   8.263  12.554   8.362
 4302W        W11518   5.578   5.653   2.547
 4303W        W11519  13.247   8.468   0.004
 4304W        W11520   4.130   2.844  11.928
 4305W        W11521  10.898  13.755   3.391
 4306W        W11522   2.403  10.504  10.470
 4307W        W11523   5.123  12.065   8.528
 4308W        W11524   5.609   1.351   3.202
 4309W        W11525   6.639   2.188   9.782
 4310W        W11526   1.887   1.001  10.016
 4311W        W11527   1.025   6.866   8.876
 4312W        W11528   5.138   2.961   9.677
 4313W        W11529  10.863   5.921   9.631
 4314W        W11530   7.599   2.767   2.023
 4315W        W11531   0.742   1.688   9.434
 4316W        W11532   3.461  12.171  10.089
 4317W        W11533   4.261   8.300   0.967
 4318W        W11534   5.342   4.677   1.021
 4319W        W11535  13.286   2.345   9.923
 4320W        W11536  13.716  11.471  11.979
 4321W        W11537  13.220   8.889   0.809
 4322W        W11538  10.157  13.183   1.288
 4323W        W11539   9.702  11.593   1.745
 4324W        W11540   0.756  13.948   3.484
 4325W        W11541   3.346   0.339   3.482
 4326W        W11542   4.586  10.502   0.336
 4327W        W11543   1.861   9.239   8.957
 4328W        W11544  10.210   9.026  10.771
 4329W        W11545   4.302   2.340  11.945
 4330W        W11546   8.344   7.858   1.558
 4331W        W11547   5.286   4.239   2.253
 4332W        W11548   6.253   5.477  10.369
 4333W        W11549  12.339  10.681   2.659
 4334W        W11550  11.686   1.776   8.503
 4335W        W11551   1.178   1.326   2.474
 4336W        W11552  12.762   3.936   0.527
 4337W        W11553  11.984  10.581  10.286
 4338W        W11554   2.510  11.130   3.072
 4339W        W11555   2.368   2.539   1.104
 4340W        W11556  12.380   7.360   9.049
 4341W        W11557  12.505  11.265  10.458
 4342W        W11558   5.902  11.594   8.635
 4343W        W11559   9.782   1.564   9.320
 4344W        W11560   5.152  12.926   1.613
 4345W        W11561   2.486   5.116  11.051
 4346W        W11562   5.005   7.711  11.287
 4347W        W11563  11.315   5.971   0.608
 4348W        W11564   8.634   4.233  10.274
 4349W        W11565   1.843   2.458   9.531
 4350W        W11566   2.756   5.471  11.820
 4351W        W11567   4.470   2.109   3.204
 4352W        W11568   3.771  11.270   9.954
 4353W        W11569   2.238   6.793   9.179
 4354W        W11570   0.374  11.099   1.383
 4355W        W11571   8.004   8.586   8.866
 4356W        W11572  12.438   8.386   3.040
 4357W        W11573   2.902  11.697  11.717
 4358W        W11574   4.293   2.129   8.968
 4359W        W11575  10.118  13.609   7.777
 4360W        W11576  10.031   4.742   8.932
 4361W        W11577   1.363   3.408   3.532
 4362W        W11578   2.719  12.145  10.951
 4363W        W11579  10.748  10.529   3.341
 4364W        W11580   6.795  13.353  10.184
 4365W        W11581   6.861   0.668   9.870
 4366W        W11582  12.306  12.962  11.172
 4367W        W11583   8.727  12.874   2.700
 4368W        W11584   8.975   1.333   3.698
 4369W        W11585  10.805   9.784  10.956
 4370W        W11586   0.855   2.027  11.229
 4371W        W11587   7.825   4.376   1.225
 4372W        W11588   5.346   6.674   0.086
 4373W        W11589   1.167   6.949   1.233
 4374W        W11590  10.074   5.435   8.403
 4375W        W11591   6.191   4.305   3.748
 4376W        W11592   2.797   6.893   0.326
 4377W        W11593   2.775   2.540   7.695
 4378W        W11594   3.175  10.449   8.494
 4379W        W11595  13.504   1.229   8.099
 4380W        W11596  12.236   9.394   9.279
 4381W        W11597   2.388   8.202   0.624
 4382W        W11598   6.403   7.611   1.503
 4383W        W11599   6.560   8.058   1.318
 4384W        W11600  11.181   2.565   3.215
 4385W        W11601   7.022   4.767   2.573
 4386W        W11602  11.279   8.808   9.738
 4387W        W11603   2.558   4.940   0.407
 4388W        W11604   1.235   0.795  11.550
 4389W        W11605   4.375   7.371   1.016
 4390W        W11606  13.962   9.233   1.150
 4391W        W11607  11.684   8.596  10.256
 4392W        W11608   8.822   4.887   8.932
 4393W        W11609  13.888   7.052   3.231
 4394W        W11610   6.078   1.424   0.552
 4395W        W11611   3.152   5.071  10.080
 4396W        W11612   6.168   0.082   8.074
 4397W        W11613   5.957   4.129  11.870
 4398W        W11614   4.790   3.543  11.571
 4399W        W11615   1.901   7.034   8.419
 4400W        W11616   9.082   7.067  10.085
 4401W        W11617  10.297  12.552   9.328
 4402W        W11618   0.129  10.916  10.503
 4403W        W11619   7.149   1.373   8.615
 4404W        W11620   9.057   4.845  11.432
 4405W        W11621   4.624   3.088   1.103
 4406W        W11622   6.108   7.286   1.203
 4407W        W11623   0.554  12.495  10.826
 4408W        W11624   5.060   8.259  10.539
 4409W        W11625   8.227  10.290   3.618
 4410W        W11626  11.116   6.071   3.119
 4411W        W11627  11.198   8.233   1.483
 4412W        W11628   4.514   4.829  11.055
 4413W        W11629   6.985   6.615   3.458
 4414W        W11630   5.546   2.916   0.916
 4415W        W11631  13.746   4.772   2.660
 4416W        W11632   3.594   9.307   1.856
 4417W        W11633  10.927   6.140   0.884
 4418W        W11634  12.111   2.933  11.906
 4419W        W11635  10.821   1.623   1.259
 4420W        W11636  13.837   5.713   9.476
 4421W        W11637   2.001  10.935  11.971
 4422W        W11638   2.794   7.045   2.682
 4423W        W11639   4.632  12.654   0.345
 4424W        W11640  11.320   4.901   3.384
 4425W        W11641  11.389  10.487   2.257
 4426W        W11642   5.500   7.765   3.311
 4427W        W11643   8.605  12.402  11.155
 4428W        W11644  10.021   6.365   2.809
 4429W        W11645   8.147   2.996   8.908
 4430W        W11646  13.082  10.519   7.615
 4431W        W11647   5.245   7.914  10.849
 4432W        W11648   5.365  11.727   1.125
 4433W        W11649   7.714   7.936   2.094
 4434W        W11650   7.858   3.487   1.351
 4435W        W11651   0.197   3.502   2.662
 4436W        W11652  11.296   1.381   3.356
 4437W        W11653   5.011  13.700   8.741
 4438W        W11654  11.312   1.060   4.178
 4439W        W11655  13.050  10.498   9.235
 4440W        W11656  10.089   9.884   8.405
 4441W        W11657   9.127  10.134  11.337
 4442W        W11658  12.674   7.155   0.388
 4443W        W11659  10.123  13.657   1.061
 4444W        W11660   9.456  11.114   8.867
 4445W        W11661   9.569  11.911   2.763
 4446W        W11662  10.350   4.500   0.583
 4447W        W11663  12.744   6.199   2.740
 4448W        W11664   2.836   7.110   3.506
 4449W        W11665   7.294   1.954   1.082
 4450W        W11666   5.149   5.093   2.000
 4451W        W11667   5.120   5.605   8.242
 4452W        W11668  10.291   5.361   2.491
 4453W        W11669   1.002   3.231   2.091
 4454W        W11670   1.132   3.234   8.697
 4455W        W11671   2.037   3.568   2.934
 4456W        W11672   0.684   6.837   8.526
 4457W        W11673   3.194   3.557   2.116
 4458W        W11674  10.783  12.200   2.996
 4459W        W11675  11.534  13.635   8.978
 4460W        W11676   1.422   5.702   9.007
 4461W        W11677  11.495   3.932   2.453
 4462W        W11678  10.521  10.196  10.215
 4463W        W11679  11.851   3.095  11.081
 4464W        W11680   3.633   6.572  11.496
 4465W        W11681   7.581  10.143  10.694
 4466W        W11682   0.703   9.406   8.511
 4467W        W11683   6.702  11.242  10.203
 4468W        W11684   4.061   6.477   1.178
 4469W        W11685   4.703  10.108  11.621
 4470W        W11686   3.992   6.400  10.678
 4471W        W11687  11.181   0.360   1.079
 4472W        W11688  13.768   4.652   7.834
 4473W        W11689  13.528   7.736   9.815
 4474W        W11690  11.769   2.531   0.720
 4475W        W11691  10.251   9.929   3.319
 4476W        W11692  12.579   5.520  11.555
 4477W        W11693   2.779   1.040   1.993
 4478W        W11694  11.755   2.149   0.373
 4479W        W11695   9.897  11.992   3.203
 4480W        W11696   2.611   9.859   3.137
 4481W        W11697  11.973   9.430   1.937
 4482W        W11698   2.297   9.328   2.021
 4483W        W11699   6.938  10.986   8.323
 4484W        W11700   3.882   9.477   0.609
 4485W        W11701   9.909   9.135  11.578
 4486W        W11702   2.306   5.358  10.650
 4487W        W11703   9.788  12.192   9.282
 4488W        W11704  11.345   6.776   3.204
 4489W        W11705   7.480   6.663   3.580
 4490W        W11706   5.228   9.335  10.865
 4491W        W11707  12.004   7.538   8.147
 4492W        W11708  11.433  10.281   9.174
 4493W        W11709   8.487   5.712   1.437
 4494W        W11710   7.877  10.235   1.089
 4495W        W11711  12.297  12.120   1.945
 4496W        W11712   8.426   6.526   0.146
 4497W        W11713   8.111  10.832   2.892
 4498W        W11714   4.284   0.022   1.065
 4499W        W11715   8.860   2.329   8.625
 4500W        W11716   7.414   6.246   2.638
 4501W        W11717   4.829  10.994   0.343
 4502W        W11718   7.444   9.340  10.706
 4503W        W11719   0.335   0.636   7.985
 4504W        W11720   4.553   2.295   9.980
 4505W        W11721   3.907   9.407   1.246
 4506W        W11722  12.173   7.552   9.469
 4507W        W11723  12.422   2.219   1.525
 4508W        W11724   0.875   3.643  10.859
 4509W        W11725   2.681   4.383   1.651
 4510W        W11726  10.589   0.083   4.163
 4511W        W11727  13.798   9.062  10.422
 4512W        W11728   0.867   1.527   8.957
 4513W        W11729  12.221   4.942   2.299
 4514W        W11730  11.676   3.218   0.114
 4515W        W11731   8.577   2.681   8.861
 4516W        W11732   0.570   3.166   1.313
 4517W        W11733  12.612   1.705   2.336
 4518W        W11734  13.572  13.145   8.046
 4519W        W11735  13.489  13.181   0.556
 4520W        W11736   8.915   5.799   1.218
 4521W        W11737   9.391  12.149   0.974
 4522W        W11738   9.044   1.292   1.428
 4523W        W11739   0.088  13.001  10.283
 4524W        W11740   9.889   2.109   3.263
 4525W        W11741   7.524   9.242  10.226
 4526W        W11742  10.792   7.742   2.219
 4527W        W11743   0.026   6.069  11.880
 4528W        W11744   3.416  13.703  11.115
 4529W        W11745   7.178  11.367   3.644
 4530W        W11746   0.976   9.832   0.009
 4531W        W11747   1.118   9.790   2.855
 4532W        W11748   0.205   9.554   9.344
 4533W        W11749  12.234  10.793   0.215
 4534W        W11750   1.136  10.181   8.593
 4535W        W11751   2.116  10.991   3.369
 4536W        W11752   1.399  13.099  10.930
 4537W        W11753   2.602  10.089  10.807
 4538W        W11754   7.407  13.170   2.352
 4539W        W11755   6.398   5.326   0.013
 4540W        W11756   0.616   3.948  11.442
 4541W        W11757   0.634   0.926  11.115
 4542W        W11758   0.112  12.629  10.621
 4543W        W11759   7.021   3.083   9.686
 4544W        W11760   7.574  11.737  10.519
 4545W        W11761   9.042   9.020   2.722
 4546W        W11762   6.563   6.356  11.256
 4547W        W11763   6.049   6.726   2.619
 4548W        W11764  11.952   8.164  10.121
 4549W        W11765   7.927  13.060   1.128
 4550W        W11766  12.136  13.841   3.475
 4551W        W11767  11.979  12.078   0.114
 4552W        W11768   9.766  11.106   8.469
 4553W        W11769  12.240   8.362   3.893
 4554W        W11770   4.501   7.395   1.999
 4555W        W11771   0.233   6.619   8.470
 4556W        W11772  10.923   5.671   1.798
 4557W        W11773   5.881   7.472   3.555
 4558W        W11774   1.440  13.863   1.663
 4559W        W11775  10.062   7.513   3.070
 4560W        W11776   3.842   6.624   8.929
 4561W        W11777   6.768  11.678   8.924
 4562W        W11778   4.046   7.175  10.498
 4563W        W11779   8.974   6.463   9.788
 4564W        W11780   6.296  13.645   2.574
 4565W        W11781  12.414  11.634   2.075
 4566W        W11782   7.103   9.101  11.644
 4567W        W11783   3.318   3.643  10.970
 4568W        W11784  12.430  13.231   2.693
 4569W        W11785   2.851  12.717   0.777
 4570W        W11786  10.595   8.450   1.956
 4571W        W11787   9.400   5.438   3.377
 4572W        W11788   6.675   7.912   2.658
 4573W        W11789   4.070   8.812   1.086
 4574W        W11790  13.790   9.152   4.261
 4575W        W11791  10.418   0.060   1.764
 4576W        W11792   6.930   0.983  11.551
 4577W        W11793  10.088   2.485  11.975
 4578W        W11794   5.096  13.460  11.264
 4579W        W11795   5.229  12.258   7.658
 4580W        W11796  12.757   5.522   8.544
 4581W        W11797  10.949   7.548   8.926
 4582W        W11798   6.554  10.981   0.384
 4583W        W11799   1.834   0.788   1.018
 4584W        W11800   4.362   6.843   9.304
 4585W        W11801  10.360   4.879   2.634
 4586W        W11802   9.872   7.911  10.547
 4587W        W11803   7.521  11.686  11.582
 4588W        W11804   3.568   1.313  10.940
 4589W        W11805   0.487   7.970   2.942
 4590W        W11806   7.536   0.057   3.768
 4591W        W11807  13.879   7.413   9.949
 4592W        W11808   3.779   9.932   3.048
 4593W        W11809   7.172   8.625   0.823
 4594W        W11810   4.281  10.519   3.592
 4595W        W11811  12.987   8.440   3.404
 4596W        W11812   4.434   3.207  11.677
 4597W        W11813   7.016   4.189  11.248
 4598W        W11814   7.881  12.358   9.313
 4599W        W11815   0.139   4.711   4.344
 4600W        W11816   5.519  11.959  11.604
 4601W        W11817  11.362   2.634   2.567
 4602W        W11818   9.269  10.970  10.419
 4603W        W11819   4.370   1.373  10.156
 4604W        W11820   8.712   3.406   2.940
 4605W        W11821   1.903  10.561  11.655
 4606W        W11822   9.174  13.602   4.156
 4607W        W11823  11.933   5.470   1.660
 4608W        W11824   7.183  10.521   0.799
 4609W        W11825   2.858   3.712   8.979
 4610W        W11826   5.818  10.601   0.929
 4611W        W11827  11.043   5.085   9.141
 4612W        W11828   8.414   0.124   9.482
 4613W        W11829   3.915  11.668   9.520
 4614W        W11830   9.907   4.329  11.688
 4615W        W11831  10.628  10.539   1.021
 4616W        W11832   8.995   3.952   0.261
 4617W        W11833  11.279   9.828   1.461
 4618W        W11834   7.839   7.396  11.635
 4619W        W11835  13.229   0.955   1.119
 4620W        W11836   9.341   3.094   9.892
 4621W        W11837   4.922   5.673   9.911
 4622W        W11838   2.275   2.261   9.785
 4623W        W11839  10.890   0.121  11.375
 4624W        W11840   9.221  12.194  11.738
 4625W        W11841   7.922   0.052   9.486
 4626W        W11842  13.190   6.504   0.167
 4627W        W11843   5.443   7.513  10.552
 4628W        W11844   1.686   4.963  11.224
 4629W        W11845   9.669   5.220  10.606
 4630W        W11846  13.462   7.348   8.399
 4631W        W11847   5.915  12.921   1.092
 4632W        W11848   9.214   9.306   9.720
 4633W        W11849  11.557   1.232   9.811
 4634W        W11850   1.071   1.379   1.967
 4635W        W11851  13.122   4.196   2.236
 4636W        W11852   8.585   7.126   1.519
 4637W        W11853   1.565   2.090   9.297
 4638W        W11854   5.096   4.932   9.534
 4639W        W11855   4.294   3.118   9.398
 4640W        W11856   2.128   4.229   0.690
 4641W        W11857   3.435  13.632   0.985
 4642W        W11858   4.782  10.576   3.558
 4643W        W11859   2.972   1.366   1.053
 4644W        W11860  10.592   3.019   7.946
 4645W        W11861  12.294   7.788   4.445
 4646W        W11862   0.403  13.913  11.178
 4647W        W11863   9.379  12.401  10.007
 4648W        W11864  11.366  11.880   0.903
 4649W        W11865  12.426   5.410   8.138
 4650W        W11866   8.224  11.438   0.915
 4651W        W11867   2.316   0.874   9.183
 4652W        W11868  10.447   3.721  10.256
 4653W        W11869  12.353   0.432   2.651
 4654W        W11870   8.036   5.594   1.610
 4655W        W11871  10.869   0.252   1.460
 4656W        W11872   2.507   5.070  11.570
 4657W        W11873   5.894   6.463  11.658
 4658W        W11874   1.160   8.744  10.189
 4659W        W11875   0.685   6.387   8.753
 4660W        W11876   1.907   6.417  10.068
 4661W        W11877   0.453   3.047   0.349
 4662W        W11878   3.360   9.235   1.411
 4663W        W11879   3.277  12.969  10.715
 4664W        W11880  13.079   5.271   3.628
 4665W        W11881   3.677   7.034  11.249
 4666W        W11882  12.804   0.111   8.778
 4667W        W11883   7.410   4.770   3.275
 4668W        W11884   6.574  13.927   4.377
 4669W        W11885   8.735   3.732  10.272
 4670W        W11886  10.810   6.954   3.065
 4671W        W11887   1.282   3.447   9.359
 4672W        W11888   2.184   5.813   9.396
 4673W        W11889   0.153   7.535   2.271
 4674W        W11890   6.516  13.579   7.982
 4675W        W11891   9.749   4.274   2.508
 4676W        W11892   4.087   6.690   0.340
 4677W        W11893   3.871  12.664   2.690
 4678W        W11894   9.696   4.418   3.182
 4679W        W11895  10.533  10.047   9.156
 4680W        W11896   4.368   4.499   0.261
 4681W        W11897   4.115   6.020   9.031
 4682W        W11898  13.414   5.811   3.359
 4683W        W11899  11.771   4.084   1.688
 4684W        W11900   0.676   3.236   8.477
 4685W        W11901   4.380   3.852  10.379
 4686W        W11902   9.247   1.702  11.355
 4687W        W11903   7.041  12.713  11.919
 4688W        W11904  11.082  13.456   2.445
 4689W        W11905   4.906   3.995   8.429
 4690W        W11906   2.289  13.510   8.471
 4691W        W11907   5.212   1.161  11.589
 4692W        W11908   0.666   3.162  10.870
 4693W        W11909   5.022   1.356   2.010
 4694W        W11910   1.627   6.321   2.558
 4695W        W11911   2.014   2.858   3.051
 4696W        W11912   2.619   1.115   7.532
 4697W        W11913   5.148   3.938   2.620
 4698W        W11914   0.594   4.033   0.247
 4699W        W11915   4.260   2.080  11.504
 4700W        W11916   4.389   0.710   1.590
 4701W        W11917  13.555   4.920  11.553
 4702W        W11918  10.027  12.286   0.201
 4703W        W11919  13.375   0.615   2.003
 4704W        W11920   8.743   5.200   8.499
 4705W        W11921   2.100   5.045   1.227
 4706W        W11922   6.676   4.576   9.887
 4707W        W11923   5.737   6.444   0.871
 4708W        W11924  11.786   3.890   3.378
 4709W        W11925   1.647   1.895  10.310
 4710W        W11926  11.040   9.268   2.169
 4711W        W11927   0.100   0.162  10.100
 4712W        W11928   5.753   8.910   1.312
 4713W        W11929  12.276   3.718   9.096
 4714W        W11930  12.215  11.999   8.600
 4715W        W11931   6.031   5.033  10.492
 4716W        W11932   7.873   1.299   1.790
 4717W        W11933   4.904  13.363   1.643
 4718W        W11934   9.466   2.156   3.546
 4719W        W11935   5.512   7.176   0.163
 4720W        W11936  11.547   4.659   9.942
 4721W        W11937   8.881  13.690   1.639
 4722W        W11938  13.082  11.483   0.525
 4723W        W11939  11.787   1.165   4.445
 4724W        W11940   5.631   2.790   0.429
 4725W        W11941  10.280   4.317   8.837
 4726W        W11942   2.461   7.428   0.219
 4727W        W11943   1.583   3.221   8.978
 4728W        W11944  13.748   0.839  10.661
 4729W        W11945  10.349  11.838   3.368
 4730W        W11946  13.447  12.350   0.852
 4731W        W11947   0.721  10.875  11.578
 4732W        W11948   7.569  13.296  10.728
 4733W        W11949   4.946   3.321  10.796
 4734W        W11950  13.234   8.161   3.082
 4735W        W11951   4.193   1.817   9.360
 4736W        W11952   3.880   0.236   0.150
 4737W        W11953  12.416  12.970  10.250
 4738W        W11954   5.136   0.671  10.241
 4739W        W11955   9.492   9.394  11.441
 4740W        W11956  12.074  11.519   2.458
 4741W        W11957   0.819  10.931   0.473
 4742W        W11958   2.223   7.315  10.550
 4743W        W11959   4.909   5.574  10.769
 4744W        W11960  10.796   0.299   3.327
 4745W        W11961   2.386   5.906   4.089
 4746W        W11962   0.378   4.071   8.075
 4747W        W11963   6.713   5.330  10.265
 4748W        W11964  12.077   9.608  11.194
 4749W        W11965  10.776  13.855   2.390
 4750W        W11966  11.607   2.753  11.967
 4751W        W11967   8.616   0.130   3.316
 4752W        W11968   4.293  10.967   1.094
 4753W        W11969   8.778   3.084   0.203
 4754W        W11970   1.140   7.428   1.032
 4755W        W11971  10.542   5.325  11.455
 4756W        W11972  13.306   7.948   3.947
 4757W        W11973  12.623  12.243   7.813
 4758W        W11974   1.515   8.744  11.607
 4759W        W11975   9.674   0.308   0.051
 4760W        W11976   6.253   7.568   8.369
 4761W        W11977  12.683  11.007   1.341
 4762W        W11978   5.662   9.548   3.653
 4763W        W11979  13.785   9.982   0.837
 4764W        W11980   7.616  13.676   9.367
 4765W        W11981   0.461   9.521   8.924
 4766W        W11982   9.543   6.514   0.780
 4767W        W11983   2.151   7.298   1.591
 4768W        W11984   8.990  12.838   9.034
 4769W        W11985   7.432  13.074  10.292
 4770W        W11986   2.802  10.762   0.602
 4771W        W11987   3.087   3.331  11.820
 4772W        W11988   5.788  10.830   0.071
 4773W        W11989   9.760   0.202   3.867
 4774W        W11990  11.742  13.972   3.179
 4775W        W11991  11.178  13.236  10.144
 4776W        W11992   6.327   6.529   0.513
 4777W        W11993   8.466   0.578   1.622
 4778W        W11994  12.382   2.230  10.063
 4779W        W11995   1.413   1.097  11.973
 4780W        W11996  12.328  13.289   0.059
 4781W        W11997  12.037   1.322   9.931
 4782W        W11998   3.407  11.747   8.474
 4783W        W11999   3.663   5.952   0.427
 4784W        W12000   0.960   1.421  10.935
 4785W        W12001   8.220   6.390   8.732
 4786W        W12002   8.930   3.023   2.190
 4787W        W12003   1.320  13.653  10.235
 4788W        W12004   1.632   8.989   3.076
 4789W        W12005   9.843   2.612   8.537
 4790W        W12006   5.762  12.624  10.066
 4791W        W12007   6.004   1.288   2.845
 4792W        W12008   9.291   0.033   0.280
 4793W        W12009   9.348  10.114   9.440
 4794W        W12010   5.828  10.306   1.362
 4795W        W12011  11.703  10.726   2.606
 4796W        W12012   2.651  11.681   9.129
 4797W        W12013   8.680  13.279   3.448
 4798W        W12014   2.012   0.190   9.696
 4799W        W12015   9.599   8.514   3.147
 4800W        W12016  12.182   4.213   1.924
 4801W        W12017   2.935   0.105   0.484
 4802W        W12018  10.894  11.497  10.898
 4803W        W12019   8.426  13.989   0.721
 4804W        W12020   2.142   9.421  11.510
 4805W        W12021   9.548   4.003  11.581
 4806W        W12022   9.938   6.027   1.856
 4807W        W12023   8.013   3.894   1.615
 4808W        W12024   1.839   4.960   1.667
 4809W        W12025   7.404   9.534   3.064
 4810W        W12026  11.231   1.829  10.237
 4811W        W12027   6.623   0.011   1.781
 4812W        W12028   9.317   5.090   2.796
 4813W        W12029   9.386   7.702   2.642
 4814W        W12030  12.886   8.220  11.765
 4815W        W12031   8.939   6.239   2.389
 4816W        W12032  11.629   2.931   9.403
 4817W        W12033   8.284   6.980   1.153
 4818W        W12034   5.916  10.563  11.668
 4819W        W12035   8.347   8.840   9.157
 4820W        W12036   3.918   3.029   0.358
 4821W        W12037   1.765   3.108   1.324
 4822W        W12038   1.302  13.053   7.673
 4823W        W12039   3.839  10.245  10.638
 4824W        W12040   1.465   5.216   0.388
 4825W        W12041   6.418  10.827  10.244
 4826W        W12042  10.797   3.769   8.467
 4827W        W12043  12.334   3.829   2.220
 4828W        W12044   1.443   4.294   3.265
 4829W        W12045   6.160  12.738   2.346
 4830W        W12046   7.908   6.026   1.840
 4831W        W12047   0.033  12.738   3.408
 4832W        W12048   4.287   4.789   1.577
 4833W        W12049   0.265   3.409   9.230
 4834W        W12050   4.569   4.364  11.282
 4835W        W12051   8.360   2.646  11.313
 4836W        W12052  10.053   2.927   1.513
 4837W        W12053   7.345   4.758   0.116
 4838W        W12054   6.808   7.453   9.005
 4839W        W12055  11.400  11.296   8.969
 4840W        W12056  12.915   6.394  11.405
 4841W        W12057  13.035   0.524   8.123
 4842W        W12058  10.373  12.328   1.748
 4843W        W12059   0.518   2.183   9.329
 4844W        W12060  11.098   7.085   3.500
 4845W        W12061   7.940   3.959   8.410
 4846W        W12062  10.722  12.926  11.179
 4847W        W12063   2.536   4.784   1.340
 4848W        W12064   0.012   3.373   8.507
 4849W        W12065   1.127   6.885   9.750
 4850W        W12066  12.825  13.204   8.633
 4851W        W12067  13.502   1.993   0.412
 4852W        W12068   8.090   5.663   1.118
 4853W        W12069   2.270  13.579   1.873
 4854W        W12070   5.419   1.396   1.206
 4855W        W12071   3.741  10.868   0.359
 4856W        W12072  12.607   4.929   9.263
 4857W        W12073   7.932   3.043   9.407
 4858W        W12074   1.110   6.075   1.741
 4859W        W12075   8.084   0.026   8.662
 4860W        W12076  12.806  10.500   2.961
 4861W        W12077  10.984   1.091   2.942
 4862W        W12078   6.437   0.739   8.758
 4863W        W12079   5.822   4.235   4.117
 4864W        W12080   4.367   5.380   3.312
 4865W        W12081  10.215   6.527   1.534
 4866W        W12082   4.770   2.313   9.089
 4867W        W12083   1.774   5.238   8.387
 4868W        W12084   1.762  13.741   9.662
 4869W        W12085   9.475  13.978   3.085
 4870W        W12086   7.829   3.084   2.865
 4871W        W12087   3.197   0.278  11.072
 4872W        W12088   1.682   2.343   4.214
 4873W        W12089  12.500   0.120  11.972
 4874W        W12090   7.589   3.923   1.345
 4875W        W12091   9.465   2.963   8.632
 4876W        W12092   3.272   2.092   9.431
 4877W        W12093   7.230   4.766  11.633
 4878W        W12094   0.995   4.243   9.913
 4879W        W12095  12.765   3.139   1.541
 4880W        W12096  13.258   9.749   2.400
 4881W        W12097  10.461  11.464  10.087
 4882W        W12098   5.430   4.685   3.515
 4883W        W12099   0.151   3.499   1.364
 4884W        W12100   6.392   6.734  11.571
 4885W        W12101   6.139   1.760   1.557
 4886W        W12102   7.421   1.146   8.253
 4887W        W12103   1.231   0.131  10.337
 4888W        W12104   3.842   2.207   9.512
 4889W        W12105  13.397   5.177   9.049
 4890W        W12106  10.950   9.550   2.907
 4891W        W12107   6.361   0.555   9.676
 4892W        W12108   1.271   6.538   0.941
 4893W        W12109   8.510   6.883  11.030
 4894W        W12110   8.078   7.204   3.256
 4895W        W12111   2.475   1.730   0.515
 4896W        W12112  12.880   3.469  10.335
 4897W        W12113   4.624   1.908  11.827
 4898W        W12114  11.774   4.785  10.905
 4899W        W12115   9.861  10.779  10.673
 4900W        W12116   1.250   4.927  10.362
 4901W        W12117  12.523   9.589   3.326
 4902W        W12118  11.888   6.508  10.573
 4903W        W12119   2.784   2.840   8.490
 4904W        W12120   2.845   9.412  11.772
 4905W        W12121  11.214   8.397   0.834
 4906W        W12122   5.629   6.810   2.080
 4907W        W12123   2.661   7.351   0.984
 4908W        W12124   1.366   1.700   2.749
 4909W        W12125   6.165  11.211   2.204
 4910W        W12126   3.516  12.015   8.894
 4911W        W12127   0.783  12.986   1.318
 4912W        W12128   4.220  11.120  11.464
 4913W        W12129   2.233  12.916   9.568
 4914W        W12130  10.553   6.495  11.436
 4915W        W12131   4.846   6.716  11.902
 4916W        W12132   9.882   3.326   9.256
 4917W        W12133  10.669  11.390   0.754
 4918W        W12134  13.574   5.327   3.433
 4919W        W12135   0.260  11.693   2.229
 4920W        W12136   4.587   8.638   9.335
 4921W        W12137   7.039  13.599   7.940
 4922W        W12138   4.981  12.878   0.041
 4923W        W12139  12.069   5.893   2.806
 4924W        W12140   7.678  10.607   0.821
 4925W        W12141  10.806   8.051   9.533
 4926W        W12142   6.436  13.921   9.835
 4927W        W12143   7.509   5.191  11.661
 4928W        W12144  10.253   1.878   2.806
 4929W        W12145  10.771   7.659   0.544
 4930W        W12146  10.089   2.278   0.927
 4931W        W12147   0.167   8.410   2.305
 4932W        W12148   7.842   6.024   8.838
 4933W        W12149   8.636   6.198   9.490
 4934W        W12150   8.076  11.591   3.432
 4935W        W12151   6.401  10.664   3.207
 4936W        W12152   4.876   9.467   1.557
 4937W        W12153   6.035   1.133   0.125
 4938W        W12154   4.286   6.717   0.801
 4939W        W12155   2.354   4.346  10.423
 4940W        W12156   2.697   6.213   2.911
 4941W        W12157   7.508   7.765  11.853
 4942W        W12158   3.850  11.105  11.793
 4943W        W12159  10.493   1.737   8.705
 4944W        W12160   0.778   2.772  11.808
 4945W        W12161  10.400   2.081  10.423
 4946W        W12162   2.835   8.235   3.884
 4947W        W12163   0.270   4.184   1.555
 4948W        W12164   2.540   8.162   3.479
 4949W        W12165   9.516  13.881  11.856
 4950W        W12166   9.797   0.036   0.478
 4951W        W12167  11.274   3.200  11.805
 4952W        W12168   2.169   1.716   8.775
 4953W        W12169   7.832  12.844   8.316
 4954W        W12170  12.811   4.430   2.554
 4955W        W12171  12.658   7.549   2.596
 4956W        W12172   3.038   7.988   8.377
 4957W        W12173   6.328  13.430   9.847
 4958W        W12174   0.551   3.537   0.970
 4959W        W12175   5.905   2.870   1.262
 4960W        W12176   7.962   0.248   8.222
 4961W        W12177   6.355   4.805   3.622
 4962W        W12178   4.065  11.020   2.064
 4963W        W12179   5.423   1.526   2.265
 4964W        W12180   1.314  11.055   0.397
 4965W        W12181  11.497   5.252   3.028
 4966W        W12182  13.355   7.369   0.035
 4967W        W12183  10.406   5.987   9.925
 4968W        W12184   4.451   2.926   1.562
 4969W        W12185   9.285  12.330   3.956
 4970W        W12186   9.933  10.605   7.849
 4971W        W12187  13.946   5.598  11.778
 4972W        W12188   2.599   7.054  10.334
 4973W        W12189   0.682   6.789   3.716
 4974W        W12190  11.162  11.099   9.373
 4975W        W12191   7.742   0.155   9.021
 4976W        W12192   6.891   5.899   3.891
 4977W        W12193   6.894   2.465   2.018
 4978W        W12194  13.828   5.214  11.239
 4979W        W12195   7.690  13.558  10.319
 4980W        W12196   4.108  10.745   0.009
 4981W        W12197   4.163   4.884   3.324
 4982W        W12198   4.614   0.375   9.774
 4983W        W12199   4.590   3.162   3.369
 4984W        W12200  13.040   2.519   2.512
 4985W        W12201  12.290   3.064   1.631
 4986W        W12202   9.729  10.636  10.189
 4987W        W12203   9.077   2.146  11.029
 4988W        W12204   1.937   1.468   7.880
 4989W        W12205   2.754   7.983   3.023
 4990W        W12206   7.262  10.202   3.208
 4991W        W12207   0.361   9.182  11.829
 4992W        W12208   0.604  10.380   2.693
 4993W        W12209   8.567   6.469   3.412
 4994W        W12210   2.913  13.351   2.143
 4995W        W12211  11.499  12.398   8.878
 4996W        W12212   5.571  13.378   0.721
 4997W        W12213  11.963   6.338   2.103
 4998W        W12214   6.128   0.627   0.166
 4999W        W12215   7.216   0.400  10.847
 5000W        W12216   3.321  12.442   8.669
 5001W        W12217   8.216   1.964   2.205
 5002W        W12218   1.167   9.611   8.511
 5003W        W12219   7.966   2.829   2.362
 5004W        W12220   1.809   2.213  11.143
 5005W        W12221   8.033  10.283   9.014
 5006W        W12222  10.610  12.302   9.002
 5007W        W12223  12.153   1.850   8.771
 5008W        W12224   7.274   5.679   0.462
 5009W        W12225   0.064   9.878   3.306
 5010W        W12226   8.980   9.682   3.623
 5011W        W12227   9.283   6.464   9.349
 5012W        W12228  13.671   2.053   9.625
 5013W        W12229   0.195   1.424   3.825
 5014W        W12230   8.867  10.563  11.551
 5015W        W12231   6.776   2.654   9.671
 5016W        W12232  12.450  10.767  10.345
 5017W        W12233   6.309   5.044   4.073
 5018W        W12234   7.081   7.656   1.834
 5019W        W12235   1.935   5.040   0.741
 5020W        W12236   5.092   4.193  10.041
 5021W        W12237   7.981  12.845   1.658
 5022W        W12238  10.391   7.935  11.242
 5023W        W12239   2.082  11.143   2.778
 5024W        W12240   3.509   9.042   7.835
 5025W        W12241   4.099   4.490  11.118
 5026W        W12242   5.940   3.884  11.085
 5027W        W12243   6.706   7.098   9.349
 5028W        W12244   6.683   2.885  10.122
 5029W        W12245  12.839  13.308   2.367
 5030W        W12246   8.959   3.923   3.976
 5031W        W12247  11.063  11.671   2.185
 5032W        W12248  13.048   8.218   8.868
 5033W        W12249  13.879  10.374   0.524
 5034W        W12250   8.176  13.590   9.584
 5035W        W12251  11.219  12.627   2.172
 5036W        W12252   1.024   7.387   2.527
 5037W        W12253   8.003  10.959   9.172
 5038W        W12254   6.420  10.294  11.840
 5039W        W12255  13.293   8.935   2.057
 5040W        W12256  12.933   3.776   2.048
 5041W        W12257   4.618   2.904  10.307
 5042W        W12258   9.811   1.220   3.124
 5043W        W12259   9.851  10.641  11.184
 5044W        W12260   6.174  11.469   1.756
 5045W        W12261   9.391   3.945  11.055
 5046W        W12262   0.336  12.331   0.552
 5047W        W12263   0.630  12.750   8.862
 5048W        W12264   7.735  12.079   1.650
 5049W        W12265   1.601  10.315   9.326
 5050W        W12266   7.449   5.923   8.542
 5051W        W12267  13.411   2.392   2.182
 5052W        W12268   7.257  12.301  11.614
 5053W        W12269   0.270  10.551   8.296
 5054W        W12270  12.572   6.950   3.195
 5055W        W12271   1.698   0.279   8.326
 5056W        W12272  11.792   0.991   2.002
 5057W        W12273  13.624   2.821   1.418
 5058W        W12274  11.358   1.811   0.146
 5059W        W12275  10.853  10.053   2.776
 5060W        W12276   2.393  13.566   3.899
 5061W        W12277   5.674   1.210   1.965
 5062W        W12278   0.290  13.924   3.662
 5063W        W12279   8.177  12.986   8.685
 5064W        W12280   6.341  12.350   8.553
 5065W        W12281   4.403   6.665  10.565
 5066W        W12282  10.646   6.020   2.146
 5067W        W12283   3.651   9.079   8.316
 5068W        W12284   1.081   6.777   3.357
 5069W        W12285   7.410   3.325   3.056
 5070W        W12286   2.211   8.705  10.931
 5071W        W12287   8.678  13.325   0.093
 5072W        W12288  11.693  10.552  10.937
 5073W        W12289   4.813   0.634   1.312
 5074W        W12290   2.162  13.113   1.684
 5075W        W12291  12.117   6.609  11.068
 5076W        W12292   5.189  12.354   2.295
 5077W        W12293   3.243   0.296   1.786
 5078W        W12294  10.803   8.820   8.595
 5079W        W12295  11.491  13.967   1.117
 5080W        W12296   3.568  12.009   9.403
 5081W        W12297   1.508  10.011  10.261
 5082W        W12298  11.205   1.208   1.225
 5083W        W12299  12.204  12.547   0.180
 5084W        W12300   1.504  12.607  11.815
 5085W        W12301   9.651   6.015   0.640
 5086W        W12302   8.233  10.103   2.497
 5087W        W12303   4.196   7.971  10.138
 5088W        W12304   3.701   7.089   8.542
 5089W        W12305  12.813   9.207   9.378
 5090W        W12306   4.134  12.561  11.017
 5091W        W12307  12.408  12.830   8.856
 5092W        W12308   2.754   5.842   2.130
 5093W        W12309   6.641   5.887   1.518
 5094W        W12310  12.993   6.637   2.946
 5095W        W12311  13.230   5.517  11.964
 5096W        W12312   4.173  12.954   2.384
 5097W        W12313   5.281   6.131   0.921
 5098W        W12314   3.557  11.594   3.093
 5099W        W12315   5.412   7.188   4.169
 5100W        W12316   3.031  13.089   9.446
 5101W        W12317   5.112   8.639   1.807
 5102W        W12318   3.774  10.433   3.544
 5103W        W12319   8.756  11.831  11.096
 5104W        W12320   4.262  11.015   2.748
 5105W        W12321   6.195   2.556   2.545
 5106W        W12322   1.868  12.255   3.685
 5107W        W12323   3.553   1.423   2.439
 5108W        W12324  13.764  10.486   1.522
 5109W        W12325   5.812   7.337   2.077
 5110W        W12326   3.724   7.316   9.687
 5111W        W12327  12.280   4.669   8.881
 5112W        W12328  12.670   4.055   9.194
 5113W        W12329   2.919   7.698   1.886
 5114W        W12330   7.792   9.649   8.268
 5115W        W12331   0.899   1.633   3.345
 5116W        W12332   4.634   6.010   1.843
 5117W        W12333   7.739   2.628   1.366
 5118W        W12334  13.871   9.497  10.183
 5119W        W12335   7.906   0.613   2.449
 5120W        W12336   8.668   2.131   3.796
 5121W        W12337   8.838   5.363   1.500
 5122W        W12338   3.084   4.312   9.361
 5123W        W12339  12.550   2.764   9.260
 5124W        W12340  13.283  12.581  11.765
 5125W        W12341   6.852   8.240   0.031
 5126W        W12342   5.854  11.073  10.885
 5127W        W12343   1.188  11.504   0.189
 5128W        W12344   2.777   0.027   0.970
 5129W        W12345  13.342  11.129  11.373
 5130W        W12346   1.245  11.464  11.219
 5131W        W12347  13.208  13.295   3.766
 5132W        W12348   9.033  10.560  10.611
 5133W        W12349   2.369   1.784   9.235
 5134W        W12350  10.588   1.935   0.328
 5135W        W12351  12.777   9.801   0.777
 5136W        W12352  11.573   2.396   8.579
 5137W        W12353   5.734   3.170  11.708
 5138W        W12354   6.614   6.945  11.175
 5139W        W12355   4.827   9.081   9.144
 5140W        W12356   8.603   4.366   8.342
 5141W        W12357   9.074   2.429   3.757
 5142W        W12358  12.167   0.496  10.862
 5143W        W12359   5.035   8.843   2.264
 5144W        W12360   1.598  12.218   2.170
 5145W        W12361   7.865   8.218   8.535
 5146W        W12362  10.246   5.822   3.385
 5147W        W12363   1.140  13.100   2.592
 5148W        W12364   9.477   9.295  10.929
 5149W        W12365  11.450   8.808   0.591
 5150W        W12366  12.114  11.959   3.340
 5151W        W12367   6.269   0.328  10.858
 5152W        W12368  13.937   1.748   2.378
 5153W        W12369   5.829   8.905   8.645
 5154W        W12370  10.710   3.474   2.001
 5155W        W12371   7.906  12.902   3.112
 5156W        W12372  10.082  12.363   9.735
 5157W        W12373   6.294  13.550   0.041
 5158W        W12374  11.786  13.231  10.764
 5159W        W12375   5.923   3.070  10.710
 5160W        W12376  13.094   1.925   9.069
 5161W        W12377   0.035   8.988  11.432
 5162W        W12378   9.161   7.256   3.273
 5163W        W12379   3.251   3.421   8.869
 5164W        W12380   1.522   5.988  11.562
 5165W        W12381   4.197   0.205   8.891
 5166W        W12382   2.037  10.254   1.375
 5167W        W12383   2.243   1.733  10.549
 5168W        W12384   3.837   2.984   9.247
 5169W        W12385   5.338  10.347   8.559
 5170W        W12386   2.011  13.242   3.621
 5171W        W12387   4.233   6.202   3.574
 5172W        W12388  11.169   9.301   1.563
 5173W        W12389   6.384   0.204   0.115
 5174W        W12390  12.004  13.748   9.308
 5175W        W12391  11.871   5.282   0.368
 5176W        W12392  13.864   7.021   8.539
 5177W        W12393   2.400   6.861  10.812
 5178W        W12394  12.883  11.441   1.953
 5179W        W12395   4.656   6.444   2.142
 5180W        W12396   3.888   1.880   2.285
 5181W        W12397   5.799   7.166   9.043
 5182W        W12398   3.529   0.900  11.237
 5183W        W12399   9.695  10.605   8.310
 5184W        W12400  13.418   1.017   3.328
 5185W        W12401   6.954   8.578  10.408
 5186W        W12402   4.174  10.194   8.752
 5187W        W12403   5.664   5.849   2.994
 5188W        W12404   1.310  10.924   4.168
 5189W        W12405   8.298   2.815   3.478
 5190W        W12406  12.481   2.988   2.108
 5191W        W12407   6.733   9.445  11.863
 5192W        W12408   9.146   6.016   8.479
 5193W        W12409  11.741   6.708   2.893
 5194W        W12410   5.018   6.938   3.281
 5195W        W12411  10.236   1.208   2.269
 5196W        W12412   2.728  13.762   1.911
 5197W        W12413  13.354   0.207   9.542
 5198W        W12414   2.090   2.631  10.503
 5199W        W12415   2.580  12.984   9.200
 5200W        W12416  11.329   6.342   3.485
 5201W        W12417   1.061   4.745   9.927
 5202W        W12418  10.586   0.392   0.172
 5203W        W12419   1.910  13.932   2.762
 5204W        W12420   5.069  12.563   3.226
 5205W        W12421   9.885  10.964  11.590
 5206W        W12422  13.426   4.479   9.398
 5207W        W12423  10.669   0.528   1.839
 5208W        W12424  11.442  11.508   3.065
 5209W        W12425  10.059  12.902   9.653
 5210W        W12426   9.052   1.017  10.299
 5211W        W12427  13.556   2.632   8.569
 5212W        W12428  10.906   7.685   2.706
 5213W        W12429   0.269  11.905   3.375
 5214W        W12430   3.997   6.182   3.125
 5215W        W12431  12.084  13.775   1.972
 5216W        W12432   9.838   8.223  10.164
 5217W        W12433   0.950   9.000  11.063
 5218W        W12434   7.341   1.110  11.242
 5219W        W12435   2.915  10.370   4.307
 5220W        W12436   0.811   7.163  11.449
 5221W        W12437   3.498   0.478   9.151
 5222W        W12438   2.039   4.095  11.258
 5223W        W12439   9.581   6.059   9.350
 5224W        W12440   4.429   6.085   9.417
 5225W        W12441  10.703   4.585   8.791
 5226W        W12442  10.254   5.394   1.841
 5227W        W12443  11.008   8.678   0.356
 5228W        W12444   1.941  12.415  11.963
 5229W        W12445   3.790   3.968   9.795
 5230W        W12446   7.120   6.236   9.131
 5231W        W12447  10.361  12.731   8.847
 5232W        W12448   9.953   7.744   1.636
 5233W        W12449   3.705   7.881  11.220
 5234W        W12450   3.122   5.278   9.614
 5235W        W12451  11.404   5.550   8.454
 5236W        W12452   5.147   2.679   9.272
 5237W        W12453   8.524   7.172   8.910
 5238W        W12454   5.310   9.600   1.362
 5239W        W12455   2.737   3.068  10.801
 5240W        W12456   5.450   3.813  11.038
 5241W        W12457   0.818  13.683  11.451
 5242W        W12458   3.955  12.971   1.904
 5243W        W12459   8.515  10.787  11.251
 5244W        W12460   6.044   4.552   2.823
 5245W        W12461   5.675   4.270   3.633
 5246W        W12462  12.081  13.591   2.594
 5247W        W12463  12.641   4.336   0.800
 5248W        W12464   8.615   3.161   9.031
 5249W        W12465   6.873   1.681   0.984
 5250W        W12466  11.006  11.558  11.381
 5251W        W12467  12.697   1.340   3.070
 5252W        W12468  12.469   3.111  11.481
 5253W        W12469  11.623  13.042  11.631
 5254W        W12470   9.471  10.983   9.357
 5255W        W12471   0.255   3.797   0.561
 5256W        W12472   9.899   5.345   3.377
 5257W        W12473   7.136   1.064   2.997
 5258W        W12474   4.411   3.111   2.073
 5259W        W12475   7.540   6.732   9.792
 5260W        W12476   4.098  10.054   3.420
 5261W        W12477   0.142   6.080   3.171
 5262W        W12478   9.971   6.592  10.387
 5263W        W12479   7.903  10.706   0.391
 5264W        W12480   5.257  10.017   0.371
 5265W        W12481  10.783   2.606   9.430
 5266W        W12482   9.801   4.978   8.519
 5267W        W12483   7.126   2.155   2.421
 5268W        W12484   0.406  13.032   2.438
 5269W        W12485   7.907   5.964  11.849
 5270W        W12486   9.973  11.983   2.481
 5271W        W12487  11.860   1.474   8.082
 5272W        W12488  13.805  12.902   9.128
 5273W        W12489   9.025   3.051   1.190
 5274W        W12490  10.002   9.739   9.703
 5275W        W12491  11.995   5.925   3.322
 5276W        W12492   4.833  12.599   9.147
 5277W        W12493   6.976   4.743   8.566
 5278W        W12494  10.804   3.104   3.404
 5279W        W12495  10.006   8.576  10.561
 5280W        W12496   8.523   3.902   1.000
 5281W        W12497   2.055   6.642   9.619
 5282W        W12498  10.348  11.905   2.851
 5283W        W12499   0.555  10.513   3.771
 5284W        W12500  10.201   9.285   8.138
 5285W        W12501   3.644   2.268   3.001
 5286W        W12502  13.026   1.075   8.029
 5287W        W12503   9.883  13.230   9.299
 5288W        W12504  13.308   3.024   1.054
 5289W        W12505  10.889   0.458  11.747
 5290W        W12506   9.805   7.696   3.481
 5291W        W12507   2.117   9.562   3.635
 5292W        W12508   0.428   5.183  11.314
 5293W        W12509  12.011   5.546  10.327
 5294W        W12510  13.040   2.907   0.097
 5295W        W12511  12.817   2.992   2.463
 5296W        W12512  13.217   7.769   8.552
 5297W        W12513   7.140   7.505   9.394
 5298W        W12514   2.094   8.307   8.553
 5299W        W12515   6.845   9.990   2.037
 5300W        W12516  10.499  13.155  10.085
 5301W        W12517  13.014   1.020   9.744
 5302W        W12518   9.941  11.130  11.087
 5303W        W12519   3.271   0.093   0.874
 5304W        W12520  10.302   3.802   3.670
 5305W        W12521   3.866   8.957   0.646
 5306W        W12522   4.355  12.136   3.450
 5307W        W12523   5.763  13.723   3.354
 5308W        W12524   6.488   7.653   1.012
 5309W        W12525   4.558   4.981   3.008
 5310W        W12526   3.156   0.602   7.987
 5311W        W12527   9.431   0.977   9.964
 5312W        W12528   9.275   4.019   7.789
 5313W        W12529   5.187   6.380   9.176
 5314W        W12530   8.164   7.098  11.330
 5315W        W12531   5.292   4.548   8.984
 5316W        W12532  12.513   9.161  10.065
 5317W        W12533   0.156   0.508   9.258
 5318W        W12534   1.465   0.850   9.751
 5319W        W12535   4.007   9.106   2.417
 5320W        W12536   9.659   3.216   2.542
 5321W        W12537   1.335   1.826  10.890
 5322W        W12538   7.347  11.666   2.686
 5323W        W12539  10.033   0.248   2.074
 5324W        W12540   7.485   4.040  10.982
 5325W        W12541  10.119  13.118   3.372
 5326W        W12542  10.150   2.131   2.381
 5327W        W12543   7.031   8.701  11.320
 5328W        W12544   6.274   9.541   8.003
 5329W        W12545  12.088   9.827   1.236
 5330W        W12546   9.369   8.901   9.031
 5331W        W12547   3.698   6.707   1.457
 5332W        W12548   9.825  12.989   3.770
 5333W        W12549  13.798   2.441   9.934
 5334W        W12550  13.609   1.269  10.413
 5335W        W12551   9.852   8.126   2.092
 5336W        W12552   6.876   5.492   3.054
 5337W        W12553   0.070   4.166   2.041
 5338W        W12554   8.251  13.924  11.902
 5339W        W12555   0.844   0.120   9.996
 5340W        W12556   7.939   9.046  11.780
 5341W        W12557   0.370  13.200   1.086
 5342W        W12558   0.890   1.202   3.639
 5343W        W12559   5.829  12.418   1.780
 5344W        W12560   8.458   2.061   4.239
 5345W        W12561   1.755   3.906   9.125
 5346W        W12562  13.374   8.962  10.174
 5347W        W12563   3.340   1.438   2.893
 5348W        W12564   1.586   7.531   2.602
 5349W        W12565  13.410   0.783   7.849
 5350W        W12566   1.356   3.838  11.779
 5351W        W12567   8.169   9.354  10.776
 5352W        W12568   9.200   2.895   7.791
 5353W        W12569   8.528   2.389   3.398
 5354W        W12570  10.210   9.636   2.431
 5355W        W12571   4.733   6.002   0.193
 5356W        W12572  13.810   5.500  10.383
 5357W        W12573   9.356   1.339  11.748
 5358W        W12574  11.216   7.309   0.093
 5359W        W12575   3.157   1.888   0.973
 5360W        W12576   1.525  10.233   0.465
 5361W        W12577   8.875   3.378   3.947
 5362W        W12578   0.443   6.916  11.150
 5363W        W12579   3.994   4.582   1.991
 5364W        W12580  11.032   5.291  11.628
 5365W        W12581  13.377   1.687   9.431
 5366W        W12582  13.295   6.086   8.859
 5367W        W12583   7.367   7.536   9.847
 5368W        W12584  11.541   1.777   0.626
 5369W        W12585   5.981   4.771   8.606
 5370W        W12586   2.888   3.449   3.355
 5371W        W12587  13.810   4.553   7.326
 5372W        W12588  11.119   1.136   9.086
 5373W        W12589   0.257   3.753   1.821
 5374W        W12590  11.541   8.637   8.448
 5375W        W12591   2.010  10.148   3.467
 5376W        W12592   4.537   5.056   0.420
 5377W        W12593   6.902   7.920   9.218
 5378W        W12594  13.821   9.523   3.028
 5379W        W12595  12.081   2.574   1.550
 5380W        W12596   6.761  11.864   2.141
 5381W        W12597   8.200  13.485   1.101
 5382W        W12598   3.282  11.648   0.112
 5383W        W12599   3.402   5.328   0.782
 5384W        W12600   8.688   5.741   9.691
 5385W        W12601  13.401   0.791   0.235
 5386W        W12602   9.316   1.983  10.594
 5387W        W12603   3.916   0.633   8.907
 5388W        W12604   9.358  13.491   3.247
 5389W        W12605   9.164   0.207   9.178
 5390W        W12606   2.352  13.668   2.840
 5391W        W12607  10.486  13.689   8.547
 5392W        W12608   7.227   1.298   1.233
 5393W        W12609  12.537   8.227   3.510
 5394W        W12610   4.163   3.472   0.412
 5395W        W12611  11.326   2.866   8.604
 5396W        W12612   7.358  10.296   1.217
 5397W        W12613   5.262   9.360   9.077
 5398W        W12614  13.410   6.944   0.732
 5399W        W12615  10.418   0.967   1.774
 5400W        W12616   3.520   3.030   2.767
 5401W        W12617   3.451   3.912   3.000
 5402W        W12618   6.685   6.216   8.120
 5403W        W12619  10.191  11.407   0.009
 5404W        W12620  10.668  11.470   2.728
 5405W        W12621  10.608   8.999   9.312
 5406W        W12622  11.418   7.596   9.071
 5407W        W12623   6.508   2.626   8.475
 5408W        W12624  10.551   1.344  10.687
 5409W        W12625   5.829  10.152  10.717
 5410W        W12626   0.632   8.396   2.661
 5411W        W12627  11.392   1.427  11.128
 5412W        W12628   4.426   5.648  10.630
 5413W        W12629   5.906   6.573   3.556
 5414W        W12630   1.886   5.494  10.890
 5415W        W12631   1.220  13.235   8.530
 5416W        W12632   4.728   1.692   0.332
 5417W        W12633   9.050   9.724   9.502
 5418W        W12634  13.402   9.324   0.044
 5419W        W12635   0.645  12.463   9.282
 5420W        W12636  10.387   8.774   9.690
 5421W        W12637   0.725  13.811   3.973
 5422W        W12638   9.052  13.921   8.753
 5423W        W12639   1.105   4.325   1.523
 5424W        W12640   8.654   0.946   3.512
 5425W        W12641   2.309  13.456   0.321
 5426W        W12642   5.725  11.398  11.264
 5427W        W12643   3.213   5.755  10.790
 5428W        W12644   0.247   4.555   7.961
 5429W        W12645  11.205   2.746   3.837
 5430W        W12646   4.071   6.166   0.202
 5431W        W12647   1.564  11.895   1.055
 5432W        W12648   3.703   5.688   9.093
 5433W        W12649   0.926   4.077   2.245
 5434W        W12650  12.913  12.099  10.256
 5435W        W12651   5.418   3.213   2.378
 5436W        W12652  11.294  13.972   3.664
 5437W        W12653  11.129  11.450   8.558
 5438W        W12654   1.459  11.359   8.192
 5439W        W12655   8.230  11.002  10.640
 5440W        W12656   7.760  13.273   9.621
 5441W        W12657   9.406  13.872   1.643
 5442W        W12658   7.805   8.956   1.154
 5443W        W12659  10.039   9.748   0.242
 5444W        W12660   5.069   3.680   4.138
 5445W        W12661   1.274  11.290  10.043
 5446W        W12662  13.080   6.726   1.185
 5447W        W12663   1.440   1.351  11.003
 5448W        W12664   5.539  13.205  10.477
 5449W        W12665  11.220   4.579   2.986
 5450W        W12666  12.777   9.810  11.736
 5451W        W12667   2.877  10.153   8.929
 5452W        W12668  13.679   6.064   3.002
 5453W        W12669  10.378  13.070   2.118
 5454W        W12670   7.140  10.890   9.175
 5455W        W12671   4.394   5.490   2.819
 5456W        W12672   0.296   9.111   4.386
 5457W        W12673   4.778  11.883   3.608
 5458W        W12674   5.193   2.241   1.614
 5459W        W12675  13.675   8.159   4.187
 5460W        W12676   5.081   4.983   7.641
 5461W        W12677   9.021   8.133   1.900
 5462W        W12678   2.295   9.469   0.830
 5463W        W12679   3.487   3.989  10.578
 5464W        W12680   0.325  12.714   1.979
 5465W        W12681   3.094   8.474   8.539
 5466W        W12682  13.545   5.911  11.677
 5467W        W12683   5.573  12.486   3.174
 5468W        W12684  12.368   6.675   2.148
 5469W        W12685   5.947   0.867   0.562
 5470W        W12686  11.736  11.015  10.059
 5471W        W12687   0.298  11.862  11.794
 5472W        W12688   2.938   9.182  11.310
 5473W        W12689   8.033   5.714   0.621
 5474W        W12690   2.872   0.770   8.363
 5475W        W12691   5.287   5.810  11.167
 5476W        W12692   9.522  10.850   0.291
 5477W        W12693   3.192  12.045   1.461
 5478W        W12694   4.988  12.944  11.169
 5479W        W12695   1.703   9.438   9.588
 5480W        W12696   3.745   0.975   8.516
 5481W        W12697   5.089  11.182   2.990
 5482W        W12698  13.355   4.859   7.612
 5483W        W12699  13.110  12.411   0.224
 5484W        W12700   9.078  11.458  11.263
 5485W        W12701   8.830   3.513   3.419
 5486W        W12702  10.736  10.548   2.827
 5487W        W12703  13.059   8.331   2.149
 5488W        W12704   7.400   2.578   2.454
 5489W        W12705   0.314  11.293  11.209
 5490W        W12706   5.408   8.398  10.170
 5491W        W12707   5.385   0.633  11.760
 5492W        W12708   7.189  12.032  10.289
 5493W        W12709  12.857  13.492  10.824
 5494W        W12710  10.336   8.126   0.579
 5495W        W12711   0.635   3.736   2.711
 5496W        W12712   5.448  10.455   3.343
 5497W        W12713   1.786   1.666  10.741
 5498W        W12714   1.074   5.919  10.713
 5499W        W12715  12.636   3.996   0.040
 5500W        W12716   0.760   0.249   8.616
 5501W        W12717   2.739   2.866   0.961
 5502W        W12718   1.429   8.714   2.325
 5503W        W12719   5.007  10.010   8.355
 5504W        W12720   0.423   0.233   9.699
 5505W        W12721   5.364  13.315   8.803
 5506W        W12722   3.001   8.424   1.774
 5507W        W12723   8.532  12.891   3.725
 5508W        W12724   0.112   8.852   8.185
 5509W        W12725   0.700  13.134   0.286
 5510W        W12726   4.643   2.894  10.847
 5511W        W12727   0.704  13.082   8.469
 5512W        W12728  11.187  13.740  10.243
 5513W        W12729   2.447   6.542  11.667
 5514W        W12730  13.346   7.690   1.674
 5515W        W12731   4.989   0.520   2.841
 5516W        W12732   2.026  12.638   2.993
 5517W        W12733  10.366   7.120   9.361
 5518W        W12734   4.392  12.940   1.161
 5519W        W12735   2.358   5.653  11.577
 5520W        W12736   2.881   2.918  11.547
 5521W        W12737  10.890  11.200   9.916
 5522W        W12738   4.936   1.485   9.267
 5523W        W12739   6.227   9.480   3.061
 5524W        W12740   0.134   5.056   7.911
 5525W        W12741  10.689   6.042   8.592
 5526W        W12742  13.639   1.555   1.798
 5527W        W12743  10.474   5.289  10.400
 5528W        W12744   2.963   3.072   3.004
 5529W        W12745  13.014  11.335   9.886
 5530W        W12746   6.813   2.292   9.292
 5531W        W12747  11.519  10.098   1.078
 5532W        W12748   1.890   4.684   3.876
 5533W        W12749   4.219   3.954   0.296
 5534W        W12750  11.662   0.998   0.042
 5535W        W12751   9.698  12.745   2.841
 5536W        W12752   9.321   5.715   2.638
 5537W        W12753  11.714   8.364   9.288
 5538W        W12754   3.412   7.586  10.025
 5539W        W12755   7.448   1.424   2.072
 5540W        W12756   3.160   2.532   8.810
 5541W        W12757   7.962   1.718   3.118
 5542W        W12758   1.327   5.101   3.255
 5543W        W12759  13.767  12.375  11.277
 5544W        W12760   0.422  12.433   4.185
 5545W        W12761   4.367   5.926  11.863
 5546W        W12762   2.349   0.441  11.269
 5547W        W12763   6.913   1.313   8.154
 5548W        W12764   6.509   9.053   0.225
 5549W        W12765  11.847   0.697  11.690
 5550W        W12766   1.861   5.937   7.823
 5551W        W12767  10.314   5.195  10.891
 5552W        W12768   8.300  12.103   8.614
 5553W        W12769   2.313   0.030  10.775
 5554W        W12770  10.490  11.078   0.349
 5555W        W12771  12.551  12.354   8.300
 5556W        W12772   5.628  12.587   0.314
 5557W        W12773  10.727   1.237   2.419
 5558W        W12774   9.907   5.621   1.546
 5559W        W12775   7.542  11.873   0.335
 5560W        W12776   4.255   7.573   8.905
 5561W        W12777   2.831  11.492   1.826
 5562W        W12778   6.073   8.545  11.138
 5563W        W12779   4.529   0.050   3.295
 5564W        W12780  13.514   4.160   0.885
 5565W        W12781   4.585  13.913  10.200
 5566W        W12782  11.572   2.071   9.400
 5567W        W12783   9.687   5.723  10.552
 5568W        W12784   6.071  10.873   2.828
 5569W        W12785   5.929  10.902   1.877
 5570W        W12786  12.529   9.585  10.355
 5571W        W12787   6.613   7.581   9.469
 5572W        W12788   9.520  12.223   0.131
 5573W        W12789  11.385   5.089   9.515
 5574W        W12790  10.151   0.165   0.123
 5575W        W12791   9.164   5.367   1.071
 5576W        W12792   0.771   6.733   1.452
 5577W        W12793   0.533   0.294   1.377
 5578W        W12794   0.464   1.148   2.162
 5579W        W12795   4.777   3.122  11.274
 5580W        W12796  11.902  12.856   3.464
 5581W        W12797   5.706  11.352   1.877
 5582W        W12798  13.330   9.853  11.993
 5583W        W12799   1.039   4.150   3.535
 5584W        W12800  10.564  13.672   0.773
 5585W        W12801   1.328   5.093   2.011
 5586W        W12802   7.385   8.191   0.133
 5587W        W12803  13.316   5.023   2.826
 5588W        W12804  13.950  10.888   1.262
 5589W        W12805   6.695  11.515  10.631
 5590W        W12806  12.634   4.041   3.287
 5591W        W12807  13.802  12.415  11.791
 5592W        W12808   3.600   3.422   9.216
 5593W        W12809   0.350   4.490   1.152
 5594W        W12810   5.475   3.950  11.885
 5595W        W12811   1.133   2.267   2.111
 5596W        W12812   3.813  13.741  10.825
 5597W        W12813   8.140   1.236  11.369
 5598W        W12814  11.012  12.909  10.778
 5599W        W12815  13.395   1.531   8.969
 5600W        W12816   1.177  11.364   1.877
 5601W        W12817   3.706   1.797   9.248
 5602W        W12818   6.919  10.977   1.674
 5603W        W12819  12.520  10.900   3.099
 5604W        W12820   1.926   9.803  10.448
 5605W        W12821  10.972   0.544   8.677
 5606W        W12822  11.058   2.015  10.672
 5607W        W12823   5.654   7.145  11.295
 5608W        W12824   5.631   1.958   1.556
 5609W        W12825   4.849  12.516   1.359
 5610W        W12826   5.936   3.953   2.028
 5611W        W12827   2.183   2.269  11.925
 5612W        W12828   3.964   1.322   3.174
 5613W        W12829   1.274  13.454   1.442
 5614W        W12830   0.364  12.708   8.422
 5615W        W12831   9.649  10.109   2.279
 5616W        W12832   7.775   2.180   7.818
 5617W        W12833   3.192   6.722  11.309
 5618W        W12834   1.348   4.542  11.253
 5619W        W12835   9.879  13.552   3.222
 5620W        W12836  11.327   3.571   0.281
 5621W        W12837   8.029   8.535   3.752
 5622W        W12838   1.237   8.183  10.914
 5623W        W12839   2.666   8.781   1.201
 5624W        W12840   9.150  13.147   0.104
 5625W        W12841   0.071  13.087  11.357
 5626W        W12842   3.512   5.868   4.133
 5627W        W12843   2.173   1.611   0.931
 5628W        W12844  13.582   2.212   9.122
 5629W        W12845  12.925   9.145  11.425
 5630W        W12846   2.333   3.060   8.379
 5631W        W12847   8.768   2.315   9.607
 5632W        W12848   3.362   6.099   9.847
 5633W        W12849  12.811   8.547   1.491
 5634W        W12850   8.698  13.777   0.336
 5635W        W12851   6.032  12.170   8.974
 5636W        W12852  11.602  12.428   2.629
 5637W        W12853   0.227   7.162   1.936
 5638W        W12854   0.414  13.708   9.301
 5639W        W12855   5.471  11.634   8.902
 5640W        W12856   5.716   7.076   2.511
 5641W        W12857   3.254   8.110   0.988
 5642W        W12858   2.740   4.856   1.839
 5643W        W12859   8.228   7.212   9.708
 5644W        W12860   3.895   7.656  10.765
 5645W        W12861   3.109   4.700   2.885
 5646W        W12862   0.293   4.003  11.838
 5647W        W12863   7.265   6.327   9.608
 5648W        W12864   6.633  10.343  10.217
 5649W        W12865   6.944   1.276   0.369
 5650W        W12866   9.174   2.704   1.877
 5651W        W12867   1.929   0.168  11.696
 5652W        W12868  11.639   2.535   2.156
 5653W        W12869   4.703   9.247   0.660
 5654W        W12870   2.371   5.674   0.111
 5655W        W12871   1.637   9.820   9.248
 5656W        W12872   0.524   4.392   2.179
 5657W        W12873   5.943  10.296   9.525
 5658W        W12874  12.282   7.854  10.807
 5659W        W12875   3.181   9.309  10.002
 5660W        W12876   1.848   2.020   0.859
 5661W        W12877   7.899  10.656   3.474
 5662W        W12878   6.862   1.093   3.868
 5663W        W12879   3.964  13.399  10.471
 5664W        W12880   9.518   2.471   3.142
 5665W        W12881   0.472  10.331  10.400
 5666W        W12882   9.114   5.785   2.191
 5667W        W12883   1.641  13.506   8.631
 5668W        W12884  12.429   3.263   9.321
 5669W        W12885  10.104   3.359  10.232
 5670W        W12886   6.683   8.492   2.874
 5671W        W12887   6.766   5.501  11.721
 5672W        W12888   7.411  13.118   3.053
 5673W        W12889   1.782   7.260  10.317
 5674W        W12890   3.323   4.417  11.596
 5675W        W12891   2.180   0.664  11.725
 5676W        W12892   5.546   2.063   9.884
 5677W        W12893   3.885   1.282   9.987
 5678W        W12894   3.774  12.083   8.452
 5679W        W12895   0.980  13.547   1.032
 5680W        W12896  11.567  10.523   9.596
 5681W        W12897   7.503  10.402   4.203
 5682W        W12898  13.898  11.259   1.654
 5683W        W12899   7.037   1.721   1.456
 5684W        W12900   3.138  11.920   0.984
 5685W        W12901   6.895   5.285   9.408
 5686W        W12902   2.891   1.782  10.607
 5687W        W12903   7.556   1.336   3.129
 5688W        W12904  13.954   7.518   8.500
 5689W        W12905   2.705   2.054   7.939
 5690W        W12906   3.172   5.285  11.051
 5691W        W12907  12.601   4.992   7.604
 5692W        W12908   5.956   8.832   3.019
 5693W        W12909   4.652  13.085   2.474
 5694W        W12910   1.230   1.601   3.735
 5695W        W12911   2.155   9.441  10.689
 5696W        W12912   6.253   5.194   8.800
 5697W        W12913  12.997  10.249  11.956
 5698W        W12914   1.521   7.291   2.132
 5699W        W12915   4.269   0.636  10.084
 5700W        W12916   0.304  12.222   8.452
 5701W        W12917  12.449   7.858   1.815
 5702W        W12918   2.928   9.501   3.418
 5703W        W12919   2.611   0.879  11.451
 5704W        W12920   4.831   6.407  10.235
 5705W        W12921   4.705   9.801   3.143
 5706W        W12922   6.625  11.372   2.016
 5707W        W12923  11.224   5.649   0.967
 5708W        W12924   2.279  12.314   3.976
 5709W        W12925  11.786   0.712   3.513
 5710W        W12926   0.301   2.601   8.072
 5711W        W12927   0.081   3.516   3.496
 5712W        W12928   9.557   0.282  10.123
 5713W        W12929   2.390  11.713  11.758
 5714W        W12930   1.724   3.937  10.120
 5715W        W12931   0.583   1.768  10.872
 5716W        W12932   6.608   7.219  11.887
 5717W        W12933   0.327   5.248  10.020
 5718W        W12934   5.933  13.546  11.097
 5719W        W12935  10.277  13.328  10.532
 5720W        W12936   9.991  10.151  11.312
 5721W        W12937  12.888   6.947   0.782
 5722W        W12938  10.383   8.060   9.255
 5723W        W12939   5.520   0.392   2.231
 5724W        W12940  13.764   5.225   8.696
 5725W        W12941   0.959   3.330   1.608
 5726W        W12942   9.646   9.763   1.124
 5727W        W12943   0.797   5.865   3.464
 5728W        W12944   2.113   6.408   2.661
 5729W        W12945   6.303   5.886   7.964
 5730W        W12946   1.919   5.771  11.310
 5731W        W12947   8.259   6.541   0.616
 5732W        W12948  13.633  11.273   1.177
 5733W        W12949   2.859   2.265  10.455
 5734W        W12950  10.086   7.321   9.911
 5735W        W12951   8.921   1.773  10.332
 5736W        W12952  12.291   0.798   9.168
 5737W        W12953   5.767   2.711  11.957
 5738W        W12954   1.643   0.266   3.022
 5739W        W12955   0.131  11.008  11.796
 5740W        W12956   9.996  12.892  10.604
 5741W        W12957   4.532   6.945   8.824
 5742W        W12958  10.206   4.011   0.577
 5743W        W12959  13.475  11.032   8.885
 5744W        W12960  10.197  10.446  11.692
 5745W        W12961   5.329   9.069   8.302
 5746W        W12962   5.755   2.604   1.651
 5747W        W12963   4.822   4.299   2.445
 5748W        W12964   0.886  10.806   3.470
 5749W        W12965   8.965  11.075   2.945
 5750W        W12966  10.734   6.525   2.097
 5751W        W12967  10.257  13.807   2.272
 5752W        W12968   5.675   4.178   9.766
 5753W        W12969   7.842   2.397   1.801
 5754W        W12970   1.175  10.830   2.479
 5755W        W12971   5.927   8.684   2.078
 5756W        W12972   7.188   5.781  10.619
 5757W        W12973   6.258   2.142  10.821
 5758W        W12974   6.202   1.111   1.336
 5759W        W12975   2.971   2.130   9.028
 5760W        W12976  12.861   0.262   0.456
 5761W        W12977  11.965   6.244  11.411
 5762W        W12978   1.989   1.046  11.468
 5763W        W12979  12.949  12.565  10.464
 5764W        W12980   6.213   0.883   9.313
 5765W        W12981   3.667   6.444   0.231
 5766W        W12982   2.926  13.658   9.352
 5767W        W12983   1.469   5.424   2.826
 5768W        W12984  13.801   5.704  11.297
 5769W        W12985   6.713  12.319  10.291
 5770W        W12986  10.136   9.369   1.851
 5771W        W12987   2.641   8.472   3.086
 5772W        W12988   8.669   0.874  10.756
 5773W        W12989  11.585  13.794  10.552
 5774W        W12990  10.335   9.739  11.805
 5775W        W12991   2.994   4.384   2.443
 5776W        W12992   1.321  10.708   3.716
 5777W        W12993   5.170   4.896   1.466
 5778W        W12994   6.191   5.974  11.334
 5779W        W12995   5.536   3.569   2.694
 5780W        W12996   9.028   6.502   8.627
 5781W        W12997   3.752   4.014   2.596
 5782W        W12998   9.571   0.801   0.058
 5783W        W12999   2.178   0.927   3.264
 5784W        W13000   1.832   0.272   3.780
 5785W        W13001   5.515   0.862   0.872
 5786W        W13002   3.328  10.397   8.954
 5787W        W13003   8.529   1.751   1.433
 5788W        W13004   1.525   5.114   7.777
 5789W        W13005   2.724  11.831   1.455
 5790W        W13006   7.383  13.967  11.724
 5791W        W13007   4.619  13.333   0.855
 5792W        W13008   0.431   7.616   8.793
 5793W        W13009   7.705  11.627   8.714
 5794W        W13010   3.471   5.857   1.454
 5795W        W13011   9.529   2.630   3.721
 5796W        W13012   7.582   3.639   1.785
 5797W        W13013   0.148   6.291   8.094
 5798W        W13014   9.052  10.152   9.865
 5799W        W13015   5.036  12.036   1.553
 5800W        W13016   5.680  11.487   0.800
 5801W        W13017   9.468  13.339   3.808
 5802W        W13018   0.000   0.776   8.855
 5803W        W13019   6.233   1.732   2.845
 5804W        W13020   8.266   2.757   8.459
 5805W        W13021  13.829   9.734   7.615
 5806W        W13022   5.410   7.514  11.070
 5807W        W13023   9.087   7.350  10.536
 5808W        W13024  13.892   0.908  10.163
 5809W        W13025   5.874   9.620  11.597
 5810W        W13026  11.424   3.965  11.150
 5811W        W13027   5.685   8.626  11.759
 5812W        W13028   4.782   5.081   3.453
 5813W        W13029   9.504   5.337   9.020
 5814W        W13030   6.764  10.907   2.955
 5815W        W13031   3.681   9.815   0.230
 5816W        W13032   6.358   8.124   0.863
 5817W        W13033  12.789   5.147   2.942
 5818W        W13034   5.744   9.110  11.667
 5819W        W13035  11.318   7.176   1.910
 5820W        W13036   3.662   5.006   0.420
 5821W        W13037   5.195   3.404  11.228
 5822W        W13038   3.024   4.045   2.074
 5823W        W13039   6.764   1.886   2.670
 5824W        W13040   1.941   5.934   2.486
 5825W        W13041   0.298   2.526   1.138
 5826W        W13042   1.217   4.063   1.100
 5827W        W13043   9.822   4.353   0.544
 5828W        W13044   5.245   3.702  10.592
 5829W        W13045  11.306   8.964   8.767
 5830W        W13046  10.391   6.316   0.296
 5831W        W13047   3.373  10.288   1.953
 5832W        W13048   2.393   5.565  10.209
 5833W        W13049   5.330   4.176   0.955
 5834W        W13050  11.391  13.980  11.354
 5835W        W13051   0.946   8.766   2.541
 5836W        W13052   0.188   5.531  11.007
 5837W        W13053   5.058   1.912   9.054
 5838W        W13054  11.509   2.140   9.934
 5839W        W13055   2.175   3.641   1.851
 5840W        W13056  10.087  11.215   9.373
 5841W        W13057   0.230   9.621   0.926
 5842W        W13058  13.340  12.970   9.310
 5843W        W13059   0.774  12.963   9.385
 5844W        W13060  13.923   4.690   0.941
 5845W        W13061   4.338  10.489   9.134
 5846W        W13062  13.657  13.173  10.098
 5847W        W13063   8.225  10.725   8.770
 5848W        W13064   0.250   6.334   9.006
 5849W        W13065   4.373   4.574   2.361
 5850W        W13066   5.249  10.768   3.668
 5851W        W13067   4.527   7.422   2.513
 5852W        W13068   8.015   2.242   3.092
 5853W        W13069   0.080   9.657   8.042
 5854W        W13070  13.559  10.614  10.819
 5855W        W13071   8.714   0.459   9.257
 5856W        W13072   9.141   8.431   9.014
 5857W        W13073  11.795   3.293   0.597
 5858W        W13074   7.828   4.459   0.680
 5859W        W13075   9.119   5.519   8.490
 5860W        W13076   8.147   5.251   0.829
 5861W        W13077  12.078   7.329  10.336
 5862W        W13078  11.157  10.938  11.654
 5863W        W13079   6.923   7.895   3.495
 5864W        W13080   2.326   0.109   9.090
 5865W        W13081   0.932   2.362   0.100
 5866W        W13082  12.013  13.953   1.044
 5867W        W13083   9.974  12.022   8.513
 5868W        W13084   7.273   0.084  11.233
 5869W        W13085   9.948  13.711   0.098
 5870W        W13086  10.458  10.112   1.246
 5871W        W13087  10.500  11.995   1.370
 5872W        W13088   0.727   9.823   9.218
 5873W        W13089   0.441   1.513   8.316
 5874W        W13090  11.620   7.846  10.891
 5875W        W13091   8.271  12.703   0.597
 5876W        W13092   1.883   5.515   9.106
 5877W        W13093   6.291   8.149   8.706
 5878W        W13094  12.148   8.352   1.601
 5879W        W13095   2.344   6.091  11.329
 5880W        W13096  11.278   5.765  11.639
 5881W        W13097  11.553   1.646   2.573
 5882W        W13098  12.125  10.525   8.446
 5883W        W13099   3.421   7.519   1.744
 5884W        W13100   5.648   8.318   9.387
 5885W        W13101   8.924   3.764   0.706
 5886W        W13102  10.940   5.590   0.263
 5887W        W13103   4.908   9.746   3.608
 5888W        W13104   1.113   4.473   9.498
 5889W        W13105   3.231  10.724   0.291
 5890W        W13106   3.070   9.098   2.530
 5891W        W13107   8.497   0.949   3.020
 5892W        W13108  10.204   5.062  11.830
 5893W        W13109  10.316   2.367   0.410
 5894W        W13110   6.949   0.277   4.461
 5895W        W13111   0.766   3.266   2.816
 5896W        W13112   0.714   5.747   0.550
 5897W        W13113  12.904   6.848   8.561
 5898W        W13114  11.239   0.105   3.187
 5899W        W13115  12.482   1.001   0.411
 5900W        W13116  10.035   7.625   0.881
 5901W        W13117  11.457   8.196   3.336
 5902W        W13118   1.224   3.268   3.064
 5903W        W13119   9.805  12.666  10.043
 5904W        W13120   6.644   7.958   1.801
 5905W        W13121   2.975   6.987   1.156
 5906W        W13122   2.174  11.393   0.067
 5907W        W13123   1.103   6.894  10.576
 5908W        W13124   1.783  13.978   9.220
 5909W        W13125  13.013   5.304   7.733
 5910W        W13126   5.657   3.235  11.117
 5911W        W13127   0.626   2.262   1.880
 5912W        W13128  13.853   6.628   1.903
 5913W        W13129   3.239  11.212   9.333
 5914W        W13130   9.154   3.183   3.558
 5915W        W13131   0.534   1.801  11.534
 5916W        W13132   0.462  13.769  10.022
 5917W        W13133   4.194   8.196   0.171
 5918W        W13134   4.756   2.210  11.451
 5919W        W13135  12.726   4.929  11.206
 5920W        W13136   8.910   4.744   8.453
 5921W        W13137   4.138   8.637   2.243
 5922W        W13138   2.195   1.562   3.693
 5923W        W13139  11.183   1.612   0.924
 5924W        W13140   1.939  12.760   3.464
 5925W        W13141  12.718   4.431   0.306
 5926W        W13142   2.328  12.627   2.334
 5927W        W13143  11.447   6.848   1.507
 5928W        W13144   0.602   3.483  11.249
 5929W        W13145   0.023  13.883   8.581
 5930W        W13146  13.034   5.146   0.399
 5931W        W13147   1.985   0.798   4.358
 5932W        W13148   9.576  11.942   4.111
 5933W        W13149   2.482  11.166   2.147
 5934W        W13150   4.068   7.074   8.933
 5935W        W13151  11.385  11.818   3.820
 5936W        W13152   3.669   1.877   1.045
 5937W        W13153   7.673   6.984   1.931
 5938W        W13154   6.443   6.031   8.510
 5939W        W13155  11.832  13.112   2.607
 5940W        W13156   2.353   2.197  10.367
 5941W        W13157   5.302   3.190   2.937
 5942W        W13158  12.890   4.503   9.388
 5943W        W13159  13.798   7.738  10.825
 5944W        W13160   0.374   2.013   4.266
 5945W        W13161   6.643  13.291  11.206
 5946W        W13162   7.832   9.032  10.567
 5947W        W13163   4.835   9.602   9.111
 5948W        W13164   8.799   6.137   0.244
 5949W        W13165  13.764   2.164   2.637
 5950W        W13166   4.088   1.006  10.358
 5951W        W13167   5.318  10.385   0.807
 5952W        W13168   0.024   3.936   8.432
 5953W        W13169   2.303   3.427   0.480
 5954W        W13170   4.451   7.367   0.507
 5955W        W13171   0.683   2.992   9.392
 5956W        W13172   5.718  10.909   4.144
 5957W        W13173   6.854   5.581   0.716
 5958W        W13174   2.488   8.196   8.858
 5959W        W13175  10.652   3.971   2.703
 5960W        W13176   3.907  11.185   8.841
 5961W        W13177  10.827   4.648   2.680
 5962W        W13178   9.156   4.191  11.853
 5963W        W13179  10.524   3.064   1.130
 5964W        W13180   5.729   9.655   3.165
 5965W        W13181   8.676   9.202   0.478
 5966W        W13182   9.425   7.975  10.319
 5967W        W13183  10.086  12.315   8.908
 5968W        W13184  13.895   8.625   9.609
 5969W        W13185  11.534   6.433   9.290
 5970W        W13186  11.606  11.382   2.256
 5971W        W13187  13.398   1.309  11.881
 5972W        W13188  11.269   5.801   9.903
 5973W        W13189   6.088   1.815   4.117
 5974W        W13190  10.369   7.546   1.338
 5975W        W13191   8.620   9.466  10.947
 5976W        W13192   4.122  11.357   8.129
 5977W        W13193   2.776   8.330   0.920
 5978W        W13194   2.656   7.769   9.642
 5979W        W13195   0.639   2.178   0.926
 5980W        W13196   7.657  12.660  10.099
 5981W        W13197   6.866   0.066   8.602
 5982W        W13198  13.531   0.669  11.769
 5983W        W13199   0.545   0.683   8.468
 5984W        W13200   3.634  10.448   9.804
 5985W        W13201  11.998   9.242   9.702
 5986W        W13202   8.720  10.220   2.582
 5987W        W13203   3.577  13.325   0.582
 5988W        W13204  10.818   2.865  10.872
 5989W        W13205   9.860   3.285   0.554
 5990W        W13206  11.382   0.960   3.697
 5991W        W13207   9.092   9.556  11.149
 5992W        W13208   0.053   7.209   0.558
 5993W        W13209   7.978   3.711  10.718
 5994W        W13210   2.100   9.935   2.607
 5995W        W13211   8.755   0.267   0.997
 5996W        W13212   4.071   6.857  10.933
 5997W        W13213   9.691   3.780   1.365
 5998W        W13214  11.424   2.293  11.949
 5999W        W13215   5.390  11.669   1.628
 6000W        W13216  10.423   6.193   3.018
 6001W        W13217   0.118  13.367   9.919
 6002W        W13218   9.648   8.440   8.909
 6003W        W13219   3.943   2.135   1.455
 6004W        W13220   7.688   1.788   9.081
 6005W        W13221   5.384   0.725   2.602
 6006W        W13222  10.646   5.476   2.151
 6007W        W13223   5.844   5.495   1.315
 6008W        W13224   5.107   8.491  11.787
 6009W        W13225   0.103   1.906   9.411
 6010W        W13226  12.548   2.662  10.211
 6011W        W13227   8.921  13.168  11.668
 6012W        W13228  11.006  10.233  10.340
 6013W        W13229  11.329  13.827   8.553
 6014W        W13230   0.347   9.982   9.559
 6015W        W13231  10.694  13.994  11.845
 6016W        W13232   2.937   8.131   2.175
 6017W        W13233   1.734  11.862   9.340
 6018W        W13234   1.824   1.925   0.010
 6019W        W13235   9.265   8.705   8.584
 6020W        W13236   7.966  11.859   3.867
 6021W        W13237  10.453   2.329   2.877
 6022W        W13238   4.542   0.502   3.567
 6023W        W13239   7.421   4.017   9.529
 6024W        W13240   5.391   8.663   3.082
 6025W        W13241  10.284   2.335   9.422
 6026W        W13242   7.518   4.812   1.382
 6027W        W13243   9.762   0.307   3.371
 6028W        W13244  12.078  13.715   9.841
 6029W        W13245  10.856   4.204   0.652
 6030W        W13246  13.858   1.336   7.725
 6031W        W13247   6.989   1.868   9.624
 6032W        W13248   5.487  13.171   9.271
 6033W        W13249   1.955   5.992   8.951
 6034W        W13250  11.358  13.624   3.247
 6035W        W13251   9.959  12.139   1.098
 6036W        W13252  12.371  12.096  11.359
 6037W        W13253   5.094   7.646   9.937
 6038W        W13254   3.129   7.421   9.632
 6039W        W13255  13.341  12.158   2.085
 6040W        W13256   9.966   6.821   9.954
 6041W        W13257   0.368  10.696   1.043
 6042W        W13258   0.679   8.531   0.369
 6043W        W13259   5.593  12.093   0.250
 6044W        W13260   6.611   5.131   3.320
 6045W        W13261  12.853   1.870   0.884
 6046W        W13262   2.141   1.485   2.743
 6047W        W13263  10.193   8.194   1.729
 6048W        W13264   1.092   0.653   8.636
 6049W        W13265   4.454   6.141  10.633
 6050W        W13266   0.838  10.610   9.592
 6051W        W13267   8.511   3.768   1.495
 6052W        W13268  13.703   7.418   0.849
 6053W        W13269   6.073   3.174   9.319
 6054W        W13270  13.832   1.478   9.354
 6055W        W13271   1.223   9.976   2.023
 6056W        W13272   5.678   4.930   2.709
 6057W        W13273   0.576   9.330   1.530
 6058W        W13274  12.943   1.599   2.677
 6059W        W13275   2.889   2.658  10.137
 6060W        W13276  11.665  12.515   3.877
 6061W        W13277   0.267   4.745   3.429
 6062W        W13278   0.854  10.757   9.081
 6063W        W13279   6.273   8.274   1.995
 6064W        W13280   0.007   5.347   9.144
 6065W        W13281  10.529   8.484   0.273
 6066W        W13282   6.344   0.143   9.333
 6067W        W13283   1.082   3.828   1.559
 6068W        W13284   8.265  13.071   0.202
 6069W        W13285  10.877  10.686   2.351
 6070W        W13286  12.562  11.723   3.500
 6071W        W13287   1.678  13.058   1.856
 6072W        W13288   9.367   6.653   1.265
 6073W        W13289   7.614   7.958   2.863
 6074W        W13290   3.826   4.633   1.375
 6075W        W13291   6.432   0.644  10.474
 6076W        W13292  13.669   0.712   1.037
 6077W        W13293   5.982   2.251   2.898
 6078W        W13294   9.012  10.295   1.211
 6079W        W13295  13.392   8.111  11.659
 6080W        W13296  10.975   2.145   0.091
 6081W        W13297  10.586  13.406  11.387
 6082W        W13298   4.033   9.587   1.687
 6083W        W13299  13.233   9.468   9.517
 6084W        W13300  10.999   8.178  10.438
 6085W        W13301  12.482   4.018   8.300
 6086W        W13302   5.860  12.501   8.581
 6087W        W13303   2.803  13.952   7.696
 6088W        W13304   4.932   9.285   2.018
 6089W        W13305   5.718   7.095   1.612
 6090W        W13306  11.624  11.230  11.744
 6091W        W13307  11.929  12.974   0.023
 6092W        W13308   9.950   8.208   8.326
 6093W        W13309   0.407   7.990   9.146
 6094W        W13310   6.566   9.502  10.537
 6095W        W13311  12.338   2.460   9.584
 6096W        W13312  12.130   6.557   8.463
 6097W        W13313  13.730  11.490   8.014
 6098W        W13314  12.183   0.533   8.354
 6099W        W13315  11.645  12.820   2.983
 6100W        W13316   5.712   6.867   2.973
 6101W        W13317   7.701   8.456   2.029
 6102W        W13318   6.562   0.918   8.067
 6103W        W13319  13.082   0.245   2.169
 6104W        W13320   6.062  12.227   2.243
 6105W        W13321  10.681   5.667   3.586
 6106W        W13322   6.856  13.374   9.683
 6107W        W13323   4.791   4.800   2.583
 6108W        W13324   0.045   0.359   2.377
 6109W        W13325   5.432   1.476   9.206
 6110W        W13326  10.674  13.763   9.590
 6111W        W13327   4.488  11.805   9.042
 6112W        W13328   7.685   0.489   9.394
 6113W        W13329   4.924   0.346   3.296
 6114W        W13330   5.503   0.508   0.509
 6115W        W13331   3.567   1.201   1.605
 6116W        W13332  11.627   7.552   0.818
 6117W        W13333   0.030   9.130  10.854
 6118W        W13334  10.273  13.311   0.097
 6119W        W13335   1.409  11.502   3.472
 6120W        W13336   6.738   2.956   3.510
 6121W        W13337  13.637  11.217   8.447
 6122W        W13338   7.473   8.988   9.328
 6123W        W13339   2.371   0.491   9.498
 6124W        W13340   8.422   0.937  11.727
 6125W        W13341  13.978   3.299  10.073
 6126W        W13342  12.332  10.034   9.628
 6127W        W13343   8.921   2.749  10.446
 6128W        W13344   0.505   0.758   2.486
 6129W        W13345   7.435  12.640   3.254
 6130W        W13346  13.278   2.053   1.341
 6131W        W13347  10.266  12.034   9.357
 6132W        W13348   9.427   6.240   9.889
 6133W        W13349   0.025   3.929   2.482
 6134W        W13350   8.231   8.151   3.492
 6135W        W13351   7.597   4.886   0.531
 6136W        W13352  13.002  12.394   9.866
 6137W        W13353   9.810  13.174  11.923
 6138W        W13354   9.796  13.637   8.164
 6139W        W13355   1.116   5.955  11.245
 6140W        W13356   2.102   6.822  10.408
 6141W        W13357  12.123   9.052   0.565
 6142W        W13358   4.542   1.352   8.481
 6143W        W13359   5.234   6.929   2.437
 6144W        W13360   2.968   5.868   1.395
 6145W        W13361   7.925  11.465   9.159
 6146W        W13362   6.234   8.270   3.443
 6147W        W13363   1.473   3.426  10.253
 6148W        W13364  12.003   8.186  11.582
 6149W        W13365   5.083   9.888   1.784
 6150W        W13366   4.377   5.109   3.727
 6151W        W13367   1.786   3.258   9.845
 6152W        W13368   6.450   0.201   8.833
 6153W        W13369  13.306  12.857   0.930
 6154W        W13370  11.715   7.238   3.564
 6155W        W13371   8.031   1.726  11.562
 6156W        W13372  13.398   9.389  10.513
 6157W        W13373  11.813  10.232   0.463
 6158W        W13374   0.467  13.869   8.812
 6159W        W13375  10.067  10.359   2.140
 6160W        W13376   8.337  13.568   3.195
 6161W        W13377   2.543  10.057  11.328
 6162W        W13378   8.843   2.711  11.813
 6163W        W13379   7.369   9.004   3.019
 6164W        W13380   0.473   7.463   0.756
 6165W        W13381  13.679  10.889   2.314
 6166W        W13382   1.152   2.763   9.566
 6167W        W13383   8.676  11.625   9.590
 6168W        W13384   2.480  10.432   2.554
 6169W        W13385   3.068   0.456   9.399
 6170W        W13386  11.150   6.588   0.980
 6171W        W13387  11.743  12.959   9.368
 6172W        W13388  11.715  10.078  11.833
 6173W        W13389   4.402   6.170  11.425
 6174W        W13390  12.910   8.282  10.322
 6175W        W13391   7.480   8.751  10.302
 6176W        W13392  12.051  12.160   0.602
 6177W        W13393  13.771  12.451   2.046
 6178W        W13394  11.705  12.530   0.063
 6179W        W13395   2.688  13.672  10.728
 6180W        W13396  13.343  10.556   3.064
 6181W        W13397   9.101   9.279   9.231
 6182W        W13398   1.621  10.776  10.573
 6183W        W13399   7.551   2.118   1.503
 6184W        W13400   7.501   9.736  10.345
 6185W        W13401   5.915  13.943   8.559
 6186W        W13402   3.858   8.709   8.028
 6187W        W13403   2.560   1.889  11.322
 6188W        W13404  10.617   0.512   2.719
 6189W        W13405   2.589   0.463   1.127
 6190W        W13406   7.723   8.462   1.109
 6191W        W13407  12.604   9.914   1.238
 6192W        W13408  11.148   6.957   0.509
 6193W        W13409   3.020  11.938   3.219
 6194W        W13410   2.243  10.541   8.359
 6195W        W13411   9.991   5.853  11.402
 6196W        W13412   8.727   2.999   3.250
 6197W        W13413   2.256   7.940   9.351
 6198W        W13414   1.087  12.739   8.569
 6199W        W13415   3.849   9.140  11.206
 6200W        W13416   3.534   5.591   9.584
 6201W        W13417   3.197   4.886   8.028
 6202W        W13418   7.933  11.447   1.691
 6203W        W13419  10.598  10.620   8.693
 6204W        W13420  11.425   7.748   9.896
 6205W        W13421   6.662   6.015   8.969
 6206W        W13422   8.669   1.309   2.707
 6207W        W13423  10.232   0.849  11.523
 6208W        W13424  12.835   7.966   9.888
 6209W        W13425   1.025   0.384   9.547
 6210W        W13426   0.534   8.360   3.725
 6211W        W13427   4.161   2.907  10.527
 6212W        W13428   5.295   0.171   1.838
 6213W        W13429   7.366   4.634  10.406
 6214W        W13430  12.816   8.599   8.587
 6215W        W13431   1.965   5.755  10.427
 6216W        W13432   9.080   4.317   8.615
 6217W        W13433   8.568  11.962   2.915
 6218W        W13434   0.732   8.256   2.182
 6219W        W13435  11.495   1.723  10.698
 6220W        W13436   5.450   1.475   3.682
 6221W        W13437  13.341  11.961   9.302
 6222W        W13438   3.266  10.213   1.461
 6223W        W13439   7.968  13.862  10.624
 6224W        W13440   8.886   7.465   8.732
 6225W        W13441   2.114  13.251  10.401
 6226W        W13442  10.678   2.095   3.704
 6227W        W13443   8.407   7.434   1.892
 6228W        W13444   1.806   3.626  11.539
 6229W        W13445  12.452   5.138   4.186
 6230W        W13446  10.326   2.723   0.756
 6231W        W13447   1.106   1.854   0.231
 6232W        W13448   6.131   6.130   0.749
 6233W        W13449  12.023  10.123  11.064
 6234W        W13450   3.529   0.419  11.482
 6235W        W13451   0.051   5.671   8.725
 6236W        W13452  11.076  11.933  11.729
 6237W        W13453   6.917   6.682  11.495
 6238W        W13454  13.740  10.150   2.994
 6239W        W13455   6.121   9.551   9.215
 6240W        W13456   1.497   2.157   9.833
 6241W        W13457   2.770   9.009   3.459
 6242W        W13458  11.774  13.929   1.564
 6243W        W13459   2.576   0.766   0.649
 6244W        W13460   9.629   3.345   0.112
 6245W        W13461   6.859   3.057   1.352
 6246W        W13462   7.032   9.542  10.298
 6247W        W13463   1.089  13.973   0.273
 6248W        W13464  10.695   0.346   0.960
 6249W        W13465   8.856   0.460   3.645
 6250W        W13466   2.850   0.924  11.876
 6251W        W13467   0.284   9.630  10.451
 6252W        W13468   8.627   7.118  10.586
 6253W        W13469   4.413   9.328  10.578
 6254W        W13470   9.446  13.694   8.534
 6255W        W13471   8.702  13.175   1.782
 6256W        W13472   0.030   9.683   2.336
 6257W        W13473  12.978   3.705  10.848
 6258W        W13474   7.602   1.638   8.610
 6259W        W13475   0.687  13.550   0.616
 6260W        W13476  13.434   6.873   9.478
 6261W        W13477   2.675   0.057   0.049
 6262W        W13478   3.372   3.576   0.172
 6263W        W13479   4.491   3.590   4.165
 6264W        W13480   7.383   4.580   0.889
 6265W        W13481   8.103   0.465  11.400
 6266W        W13482   4.215   6.626   2.347
 6267W        W13483  12.739   2.153   8.803
 6268W        W13484   5.251   4.734   2.379
 6269W        W13485   8.969  12.671   3.779
 6270W        W13486   0.356   7.315  10.081
 6271W        W13487   2.731   7.091   8.389
 6272W        W13488   3.149   6.756   3.332
 6273W        W13489  10.285   5.837   9.068
 6274W        W13490   7.780  10.153   3.277
 6275W        W13491   6.258   5.070   8.306
 6276W        W13492   1.300   5.699   0.451
 6277W        W13493  12.549  12.727   2.780
 6278W        W13494   4.279   3.950   9.505
 6279W        W13495   0.661  13.990  11.994
 6280W        W13496  11.578   8.919  11.237
 6281W        W13497   4.999   3.798  11.964
 6282W        W13498  13.098  12.433   8.994
 6283W        W13499  10.929   4.000   1.199
 6284W        W13500   4.257   9.381  11.509
 6285W        W13501   3.126  12.501  10.238
 6286W        W13502   2.613   3.491  10.304
 6287W        W13503  11.322   5.971   2.676
 6288W        W13504   4.014   3.523   9.479
 6289W        W13505   0.384   4.852  10.493
 6290W        W13506  10.635   4.797   3.136
 6291W        W13507   5.898   5.688   3.806
 6292W        W13508   9.199   0.543   2.704
 6293W        W13509   1.257   4.635   8.664
 6294W        W13510   0.075  11.358  10.773
 6295W        W13511  12.178  10.345   1.804
 6296W        W13512   2.600  12.958   2.062
 6297W        W13513   3.975   6.280  11.721
 6298W        W13514  12.239  11.183   2.792
 6299W        W13515  10.187   0.495   0.528
 6300W        W13516  11.069   0.606   9.198
 6301W        W13517   1.748   5.379   1.366
 6302W        W13518   8.166   9.061   1.500
 6303W        W13519   9.490  12.850  10.870
 6304W        W13520   4.630  13.210   3.714
 6305W        W13521   6.389   3.821  11.288
 6306W        W13522  11.372   6.106   1.150
 6307W        W13523   2.355   4.996   9.370
 6308W        W13524  11.750   9.774   1.618
 6309W        W13525  11.767   9.133   3.499
 6310W        W13526   9.011   4.767   2.551
 6311W        W13527   7.080  13.263  11.526
 6312W        W13528   8.164   6.766   8.066
 6313W        W13529  11.493   7.399  10.253
 6314W        W13530   1.042   9.322   2.693
 6315W        W13531   9.152   8.846   9.521
 6316W        W13532   8.820   0.933   0.447
 6317W        W13533   3.870   5.816   8.648
 6318W        W13534   6.316   8.145  11.822
 6319W        W13535  11.830  10.942   8.592
 6320W        W13536   6.966   8.054  10.471
 6321W        W13537   6.005   3.355   9.764
 6322W        W13538   9.930   4.151   8.521
 6323W        W13539   8.439   6.029   9.033
 6324W        W13540   8.078  10.253   2.028
 6325W        W13541   9.477   4.730  11.197
 6326W        W13542  13.668  12.943   2.168
 6327W        W13543   9.445  10.834  11.796
 6328W        W13544   4.053  12.222   0.252
 6329W        W13545   8.658   4.414   8.920
 6330W        W13546  13.559  11.373   2.452
 6331W        W13547   5.522   1.250  10.919
 6332W        W13548   7.848  11.598   2.542
 6333W        W13549   9.270   2.996  11.966
 6334W        W13550   6.346   1.554   0.133
 6335W        W13551   4.485  12.915  11.205
 6336W        W13552   3.534  10.871   9.112
 6337W        W13553   8.631   2.047  10.028
 6338W        W13554   7.916  13.306   2.331
 6339W        W13555   1.506   6.913  11.907
 6340W        W13556   6.066   1.045  10.516
 6341W        W13557   2.131  13.063  10.861
 6342W        W13558   9.479   0.603   9.204
 6343W        W13559   7.236   9.390   2.158
 6344W        W13560   5.136  10.061   9.750
 6345W        W13561   1.100   8.626   0.643
 6346W        W13562   2.721   7.287   9.899
 6347W        W13563  13.604   1.695   8.494
 6348W        W13564  10.856   2.232  10.247
 6349W        W13565  12.955   8.715   9.443
 6350W        W13566  13.507  11.587  11.529
 6351W        W13567   0.613   8.524   8.944
 6352W        W13568   5.895   8.225  10.277
 6353W        W13569   6.047   0.028  11.209
 6354W        W13570  13.290  12.641   2.279
 6355W        W13571   9.575  11.486   9.170
 6356W        W13572   4.825   7.571   0.753
 6357W        W13573   8.529   2.232   9.127
 6358W        W13574  11.174  12.522   9.567
 6359W        W13575  13.642   7.492  11.251
 6360W        W13576   0.771  11.166   1.655
 6361W        W13577  10.607   1.456   2.860
 6362W        W13578  11.901  11.169   9.046
 6363W        W13579   7.134  11.048  10.065
 6364W        W13580   7.497   3.612   2.620
 6365W        W13581   2.516  12.629  10.845
 6366W        W13582   9.551  12.600   7.807
 6367W        W13583  13.183  13.764   9.907
 6368W        W13584   2.292   3.881  11.649
 6369W        W13585   8.489  10.759   9.270
 6370W        W13586  12.754   1.641  10.961
 6371W        W13587  11.763   9.640   2.824
 6372W        W13588   4.790   8.425   0.970
 6373W        W13589  11.094   3.446   9.200
 6374W        W13590  13.702   3.100   0.708
 6375W        W13591   7.079   0.339   3.694
 6376W        W13592   7.968   9.206   2.358
 6377W        W13593   1.047   8.391   2.988
 6378W        W13594   6.404   5.865   3.709
 6379W        W13595   3.194  11.670   9.169
 6380W        W13596   1.690  10.677   9.689
 6381W        W13597   8.356  10.618   3.262
 6382W        W13598  11.638   7.607   1.618
 6383W        W13599  13.661   2.051   1.722
 6384W        W13600  13.940   9.254   8.412
 6385W        W13601   1.179  13.557   0.555
 6386W        W13602  10.431   5.763   8.261
 6387W        W13603   2.814  12.865  10.196
 6388W        W13604  13.387  13.541  10.314
 6389W        W13605   1.801  10.986   0.429
 6390W        W13606   0.997   9.232   3.842
 6391W        W13607   1.737   2.835   3.526
 6392W        W13608   8.712  13.813  11.233
 6393W        W13609  13.340   9.728   8.714
 6394W        W13610   5.699   5.786   1.699
 6395W        W13611   2.491  12.566   1.116
 6396W        W13612   7.750   1.191   1.324
 6397W        W13613   7.305  12.645   9.695
 6398W        W13614   3.991   5.156   2.920
 6399W        W13615  12.915   6.450   8.922
 6400W        W13616   1.579  12.105  11.757
 6401W        W13617  13.741   4.376   8.436
 6402W        W13618   2.523   3.781   2.895
 6403W        W13619  12.269   3.836   0.484
 6404W        W13620   1.322   3.822   8.252
 6405W        W13621   7.512   1.594   1.572
 6406W        W13622   3.263   4.852   0.767
 6407W        W13623  10.443   9.432  10.951
 6408W        W13624  12.998  10.831   8.793
 6409W        W13625   2.273   4.433  10.927
 6410W        W13626   0.401   2.205  11.030
 6411W        W13627  13.504   6.402  10.139
 6412W        W13628  11.807   4.529   1.463
 6413W        W13629   0.267   2.750   9.641
 6414W        W13630   1.813   2.477   2.755
 6415W        W13631   3.627   5.229  10.145
 6416W        W13632  13.154   1.905   7.763
 6417W        W13633   4.288  12.978   0.563
 6418W        W13634  13.858   1.075  11.759
 6419W        W13635   6.808  12.424   1.311
 6420W        W13636  13.243  11.436   2.857
 6421W        W13637   8.438  12.773   2.116
 6422W        W13638  10.849   8.166   0.547
 6423W        W13639   2.917   6.957   9.542
 6424W        W13640   3.202   0.255   8.823
 6425W        W13641   4.421   9.823   7.988
 6426W        W13642   0.412   9.549   3.135
 6427W        W13643  13.533  13.340   0.082
 6428W        W13644   3.475   2.591  10.821
 6429W        W13645   7.387   2.297   1.997
 6430W        W13646   0.324  10.772   2.850
 6431W        W13647   3.262  13.916   1.379
 6432W        W13648  12.189   0.327   9.961
 6433W        W13649   8.540   1.177  10.278
 6434W        W13650  10.787  11.119  11.948
 6435W        W13651  12.190  13.471   1.233
 6436W        W13652   7.874  13.326  11.446
 6437W        W13653   2.075   5.163   8.794
 6438W        W13654  11.281   4.839   2.552
 6439W        W13655  12.857  13.378  11.394
 6440W        W13656   4.707   0.137   0.319
 6441W        W13657   4.718   8.778   3.403
 6442W        W13658   9.600   8.448   1.008
 6443W        W13659   0.576   9.850   0.297
 6444W        W13660   9.524   2.619   9.137
 6445W        W13661  10.048   6.077   1.376
 6446W        W13662   7.304  11.153   2.769
 6447W        W13663   7.275  13.633   0.817
 6448W        W13664   0.118   6.968   9.812
 6449W        W13665  13.826  12.590   9.517
 6450W        W13666   1.135   2.263   9.480
 6451W        W13667   8.390  13.352   3.874
 6452W        W13668   1.486  10.574   2.755
 6453W        W13669   4.561   0.050   2.323
 6454W        W13670   8.189   8.558   2.734
 6455W        W13671   2.633   3.428   1.774
 6456W        W13672   5.181   0.856   0.427
 6457W        W13673   7.274  11.952  11.225
 6458W        W13674  11.168  12.683  11.226
 6459W        W13675  10.369   8.038   2.249
 6460W        W13676   4.765   1.020   1.705
 6461W        W13677  12.915   0.885   3.187
 6462W        W13678   4.856  10.926  10.286
 6463W        W13679   6.046  11.802   1.397
 6464W        W13680   3.014   3.644   2.912
 6465W        W13681   6.329   1.069   0.839
 6466W        W13682   4.278  11.599  11.256
 6467W        W13683  10.320  11.556   1.626
 6468W        W13684   5.640  13.888   8.077
 6469W        W13685  12.647  10.805   9.191
 6470W        W13686   6.370   4.735  10.726
 6471W        W13687   4.170   2.168   0.453
 6472W        W13688  10.124   3.353   0.120
 6473W        W13689   8.650   8.378   9.147
 6474W        W13690   1.824   7.483   8.655
 6475W        W13691   1.769   6.310   3.052
 6476W        W13692   6.717   7.697   3.899
 6477W        W13693   5.148   5.184   1.044
 6478W        W13694   6.165   0.592   8.001
 6479W        W13695  11.890  12.637   0.541
 6480W        W13696   6.979   8.087   3.026
 6481W        W13697   9.621   3.111   8.001
 6482W        W13698   1.016   1.025   8.965
 6483W        W13699   4.085  13.818   2.580
 6484W        W13700  13.271  11.340   1.617
 6485W        W13701   1.748   5.829   2.933
 6486W        W13702   9.790   5.146   0.472
 6487W        W13703  13.354   6.533   7.928
 6488W        W13704   0.859   4.426   0.430
 6489W        W13705   6.185   6.415  10.413
 6490W        W13706   4.668   4.466  11.851
 6491W        W13707   2.741   9.094   2.016
 6492W        W13708   7.493  13.297  11.797
 6493W        W13709   4.487  13.325  10.536
 6494W        W13710   2.236   8.255   3.872
 6495W        W13711  12.249   4.262   0.216
 6496W        W13712   2.983   9.115  10.802
 6497W        W13713   3.161  10.606   3.015
 6498W        W13714  12.711  10.135   3.832
 6499W        W13715   6.224   3.422  10.548
 6500W        W13716   2.298   1.770   0.035
 6501W        W13717   2.929   9.747   0.594
 6502W        W13718   8.698  13.104   8.724
 6503W        W13719   9.511   8.907   1.944
 6504W        W13720   2.637   5.334   4.004
 6505W        W13721  13.592   9.550   4.002
 6506W        W13722   4.959   7.529   1.831
 6507W        W13723  13.721   0.708   3.606
 6508W        W13724   1.829  12.932   7.998
 6509W        W13725  10.912   6.994   2.155
 6510W        W13726   6.349   7.874   4.203
 6511W        W13727   5.470   2.539   1.242
 6512W        W13728  13.847   5.060   7.493
 6513W        W13729   7.167   5.413   2.040
 6514W        W13730   9.674   7.226   1.773
 6515W        W13731  13.591  12.787   2.664
 6516W        W13732  12.905   5.330   1.275
 6517W        W13733   0.609   3.680   1.462
 6518W        W13734   5.409   6.672   9.537
 6519W        W13735  11.087   1.450   2.037
 6520W        W13736   3.242   4.615   9.874
 6521W        W13737   5.191   8.522   9.274
 6522W        W13738  13.239   6.026   2.773
 6523W        W13739  13.354   6.039   0.450
 6524W        W13740   5.741   5.950   1.062
 6525W        W13741   5.597   2.255   8.553
 6526W        W13742   9.579   6.167  11.272
 6527W        W13743   3.508  12.724   1.933
 6528W        W13744   1.776   1.421   8.662
 6529W        W13745   0.500  13.251   9.058
 6530W        W13746  12.247   2.051   0.154
 6531W        W13747   1.888   8.204   2.713
 6532W        W13748   1.747  10.324   3.104
 6533W        W13749   3.368   1.879   0.504
 6534W        W13750   4.300   0.148   3.836
 6535W        W13751   7.083   0.376   8.281
 6536W        W13752   7.909   9.760   9.141
 6537W        W13753   9.799   0.739   7.861
 6538W        W13754   7.905   5.465  11.876
 6539W        W13755   1.914  11.840   3.373
 6540W        W13756  13.530   5.590   9.888
 6541W        W13757   6.613   9.923   0.606
 6542W        W13758   7.519  12.006   1.200
 6543W        W13759   0.460   6.410   2.978
 6544W        W13760   7.490  12.691   9.248
 6545W        W13761   7.013  10.908   3.775
 6546W        W13762   7.862  10.448  11.463
 6547W        W13763   3.924   5.602   7.914
 6548W        W13764  12.326   3.153   8.745
 6549W        W13765   6.447   9.805   9.738
 6550W        W13766   9.342   0.847   1.452
 6551W        W13767   1.072  13.860   8.558
 6552W        W13768   8.400  13.947  10.398
 6553W        W13769  13.419   1.231   1.501
 6554W        W13770   0.559  12.443   1.553
 6555W        W13771   0.587  12.944  11.056
 6556W        W13772   9.426   8.184   2.806
 6557W        W13773   8.870   5.394   0.134
 6558W        W13774   2.189   3.217   1.604
 6559W        W13775  11.556   2.735   1.700
 6560W        W13776   3.058   5.478   2.977
 6561W        W13777   5.235   3.230   1.910
 6562W        W13778   2.145   4.176   9.997
 6563W        W13779  12.366  10.741   1.091
 6564W        W13780   6.603  11.730   1.651
 6565W        W13781  13.286  11.871   0.782
 6566W        W13782   4.641  10.692  10.767
 6567W        W13783   9.034   6.679   2.639
 6568W        W13784   9.030   3.562   2.121
 6569W        W13785   1.839   5.893   1.998
 6570W        W13786  13.101   1.571   1.287
 6571W        W13787  10.528   6.995   8.505
 6572W        W13788   1.445   6.818  10.946
 6573W        W13789   8.153   8.580   0.232
 6574W        W13790  12.137  11.359   8.633
 6575W        W13791  12.344   9.579   9.829
 6576W        W13792  13.888   4.985  10.434
 6577W        W13793   8.088  12.032   2.700
 6578W        W13794   9.487  13.200   0.619
 6579W        W13795   8.956   3.758   2.609
 6580W        W13796   7.267  13.462   8.823
 6581W        W13797  13.185   4.646   0.293
 6582W        W13798   4.989  11.896   0.830
 6583W        W13799  10.268   6.801   8.972
 6584W        W13800   9.453   8.262   8.446
 6585W        W13801  10.639  13.896   9.088
 6586W        W13802  12.514   5.050   8.529
 6587W        W13803   2.531  13.518  10.267
 6588W        W13804   8.272   8.436   7.923
 6589W        W13805   4.421  13.322   1.481
 6590W        W13806   9.290  12.887  10.121
 6591W        W13807  13.498   8.479   3.358
 6592W        W13808   0.598  13.885   1.042
 6593W        W13809   6.953   9.367  10.821
 6594W        W13810   8.726   9.886   8.596
 6595W        W13811   7.596  12.803   3.955
 6596W        W13812   5.281  10.544   9.011
 6597W        W13813   1.596   7.970  11.219
 6598W        W13814   8.829   0.236   2.489
 6599W        W13815   5.632  10.618  10.736
 6600W        W13816  11.135   2.919   9.103
 6601W        W13817  12.140   8.542   3.436
 6602W        W13818  10.985   9.961   0.033
 6603W        W13819   5.411   7.683   0.544
 6604W        W13820  11.998   2.854   1.977
 6605W        W13821  10.508   9.283   2.228
 6606W        W13822  13.913   1.137   9.712
 6607W        W13823   8.219   9.036  10.218
 6608W        W13824   3.744   2.462   1.124
 6609W        W13825   1.803   9.266   0.135
 6610W        W13826   0.102  12.193   2.618
 6611W        W13827   2.709   3.580  11.601
 6612W        W13828   6.106  10.631   9.906
 6613W        W13829   5.772  11.544   3.562
 6614W        W13830   8.839  10.684   9.840
 6615W        W13831   7.910   6.570  10.468
 6616W        W13832   4.696  11.772   8.586
 6617W        W13833  13.351   8.820   2.626
 6618W        W13834   3.860   8.092  10.478
 6619W        W13835   5.144  10.632  10.562
 6620W        W13836   5.695   2.142   3.379
 6621W        W13837   1.151   9.391   9.569
 6622W        W13838   0.487   8.663  11.440
 6623W        W13839   6.425   4.731   3.095
 6624W        W13840   8.859  13.247   8.002
 6625W        W13841  12.842   2.278   1.236
 6626W        W13842   7.028   5.705  10.163
 6627W        W13843   3.148   8.953   9.052
 6628W        W13844  10.214  12.668   3.604
 6629W        W13845   5.825  12.430  11.864
 6630W        W13846   9.595   3.928   3.214
 6631W        W13847   1.849   6.272  11.245
 6632W        W13848   1.938   4.098   9.552
 6633W        W13849   0.537   7.910  11.943
 6634W        W13850   8.916  10.150   3.436
 6635W        W13851   2.366   8.699   0.771
 6636W        W13852   1.167   0.132   3.246
 6637W        W13853   2.100  13.107   2.189
 6638W        W13854   4.730   8.945   1.653
 6639W        W13855  13.778   9.458   9.612
 6640W        W13856   0.886  13.483   9.285
 6641W        W13857   0.995  10.339   3.623
 6642W        W13858   3.245   8.082   0.068
 6643W        W13859   3.690   1.011   0.128
 6644W        W13860   6.158   4.883   9.206
 6645W        W13861   3.165  12.365   2.913
 6646W        W13862  11.452  10.317  10.552
 6647W        W13863   6.752   7.893  10.925
 6648W        W13864   3.726   5.317   8.753
 6649W        W13865  12.307  12.253   2.899
 6650W        W13866   5.703  13.740  11.780
 6651W        W13867   8.452  11.136   8.921
 6652W        W13868   7.431   3.057   9.390
 6653W        W13869   8.838  11.285   1.215
 6654W        W13870   2.443   9.094   1.585
 6655W        W13871   8.147  13.138   3.490
 6656W        W13872   8.242   9.459  11.786
 6657W        W13873   8.037  10.268   0.028
 6658W        W13874   3.354  11.489   7.926
 6659W        W13875   5.519   0.953  10.469
 6660W        W13876   7.345  12.353   0.124
 6661W        W13877   2.281  10.502   8.891
 6662W        W13878   2.151   3.817   8.835
 6663W        W13879   6.916   5.796   9.359
 6664W        W13880   6.330  11.250  11.043
 6665W        W13881   7.888   0.961   0.476
 6666W        W13882  10.578  13.572   1.984
 6667W        W13883   3.115  11.176   0.489
 6668W        W13884   3.309   5.107   2.655
 6669W        W13885  12.035   6.113   0.557
 6670W        W13886   3.546   7.293  10.541
 6671W        W13887   4.880   9.202  11.803
 6672W        W13888   4.887   2.401  11.889
 6673W        W13889   8.167   9.303   1.054
 6674W        W13890  12.593   9.643   3.863
 6675W        W13891   2.316  12.821  11.258
 6676W        W13892  10.759   2.588   0.971
 6677W        W13893   3.410   3.646   1.405
 6678W        W13894  12.353  10.372  10.000
 6679W        W13895   0.993   7.925   9.609
 6680W        W13896   7.789   4.182   8.840
 6681W        W13897  10.472   7.465  11.996
 6682W        W13898  13.541  10.983   3.235
 6683W        W13899   3.096   3.223   1.719
 6684W        W13900   4.842   8.537  11.336
 6685W        W13901   6.817   4.506  10.434
 6686W        W13902   4.656   3.928   7.964
 6687W        W13903   4.432   0.646   8.865
 6688W        W13904  13.652   6.852   9.950
 6689W        W13905   1.193  13.078   0.411
 6690W        W13906   3.721   2.227   0.648
 6691W        W13907   2.458  11.941   3.207
 6692W        W13908   0.985  13.101   8.946
 6693W        W13909   0.002   6.234   0.393
 6694W        W13910  12.918  10.707   0.971
 6695W        W13911   7.831   3.734  11.736
 6696W        W13912   5.265   6.789   1.662
 6697W        W13913  11.941   1.515   4.104
 6698W        W13914   3.389   3.958  11.825
 6699W        W13915   4.409   8.874   2.604
 6700W        W13916  11.262   0.495   3.496
 6701W        W13917   7.335   1.249   2.548
 6702W        W13918   6.653   6.196   0.684
 6703W        W13919  13.365  11.541   8.925
 6704W        W13920  10.797   7.019  10.095
 6705W        W13921   0.993   8.160  11.918
 6706W        W13922  12.972  13.933   0.107
 6707W        W13923  13.442   8.846   0.338
 6708W        W13924   9.957   1.625   2.368
 6709W        W13925   1.705   3.404   1.738
 6710W        W13926  11.747   8.761   0.203
 6711W        W13927   8.386  11.343   9.942
 6712W        W13928   7.007   4.231   2.453
 6713W        W13929   9.458   1.625   8.954
 6714W        W13930   8.331   4.815   1.003
 6715W        W13931  10.680   6.223  11.886
 6716W        W13932   4.581  10.116   3.512
 6717W        W13933   8.417   0.204   0.276
 6718W        W13934   7.929  11.690   1.265
 6719W        W13935  12.452   7.692   8.357
 6720W        W13936  11.141   8.835  11.516
 6721W        W13937   9.492   3.464   9.571
 6722W        W13938  10.793   4.114  10.224
 6723W        W13939   6.404   9.730   1.991
 6724W        W13940   0.670   6.611  10.634
 6725W        W13941   1.202  11.533   2.860
 6726W        W13942   5.832   9.949   3.906
 6727W        W13943   5.545  11.386   9.971
 6728W        W13944   0.432  12.504   3.632
 6729W        W13945   9.321   0.219   0.761
 6730W        W13946   8.257   7.569  11.436
 6731W        W13947   5.232   6.706   2.890
 6732W        W13948  12.490   2.681   8.757
 6733W        W13949   1.399   0.853   2.581
 6734W        W13950   4.505   3.528   9.191
 6735W        W13951  11.225   5.397   2.599
 6736W        W13952  10.227   1.082   4.059
 6737W        W13953   8.947  12.334   8.972
 6738W        W13954  11.948  13.396  11.750
 6739W        W13955  12.092  13.179   9.055
 6740W        W13956   4.505   9.737  10.290
 6741W        W13957   4.463   5.643   9.704
 6742W        W13958   6.119   3.441  11.018
 6743W        W13959   9.012   7.771  11.754
 6744W        W13960  13.324   0.560  10.571
 6745W        W13961  13.288   6.311   3.224
 6746W        W13962   8.470   6.923   3.237
 6747W        W13963  13.207  11.658  11.106
 6748W        W13964  10.584   4.186   1.506
 6749W        W13965  13.228   0.305   8.567
 6750W        W13966   1.299   6.301   0.476
 6751W        W13967   3.081   8.515   1.279
 6752W        W13968   9.617   5.472   8.572
 6753W        W13969   4.068   4.985   8.938
 6754W        W13970   8.290   3.866  11.161
 6755W        W13971   9.981   3.140   3.472
 6756W        W13972  10.499   1.687   2.418
 6757W        W13973   3.903   9.595   3.459
 6758W        W13974   5.028  13.451   2.877
 6759W        W13975   0.166   8.310   8.833
 6760W        W13976  10.859  11.357  10.385
 6761W        W13977   4.870   3.961  10.413
 6762W        W13978   8.767   5.459   1.997
 6763W        W13979   9.497   7.909   1.836
 6764W        W13980   1.015  11.251  11.773
 6765W        W13981  11.770   4.378  11.227
 6766W        W13982   0.144   8.692  11.828
 6767W        W13983   4.254  10.191  10.308
 6768W        W13984   8.429   3.824   2.401
 6769W        W13985   2.579  11.159   9.805
 6770W        W13986   1.994   7.665   1.311
 6771W        W13987   9.371   9.395   2.852
 6772W        W13988   9.573  13.127  10.454
 6773W        W13989   5.663   3.678   8.862
 6774W        W13990   6.184   4.300   8.482
 6775W        W13991   5.493   9.681   9.896
 6776W        W13992   4.998   8.881   9.573
 6777W        W13993   8.754   2.370  11.409
 6778W        W13994   5.044   4.908   0.650
 6779W        W13995   8.318   9.921   0.763
 6780W        W13996   4.717  13.488   8.385
 6781W        W13997  13.497   3.306   9.872
 6782W        W13998  12.191  13.046   0.487
 6783W        W13999   7.543  10.326   8.862
 6784W        W14000   8.150   2.693   0.493
 6785W        W14001   9.094   7.780   8.138
 6786W        W14002   2.377   4.286   1.253
 6787W        W14003   5.217  11.904  11.172
 6788W        W14004  10.594   1.409   1.972
 6789W        W14005   7.009   6.007   3.404
 6790W        W14006   3.132   9.710   0.120
 6791W        W14007   5.690   1.183  11.763
 6792W        W14008   8.848  13.687   3.195
 6793W        W14009   5.310  10.908   9.389
 6794W        W14010   9.995   0.045   1.414
 6795W        W14011   2.855  12.776   2.950
 6796W        W14012   3.637   1.374   8.135
 6797W        W14013  10.264   5.036   0.507
 6798W        W14014   8.206  12.684  10.932
 6799W        W14015   4.761   0.943   0.788
 6800W        W14016   1.458  12.920   9.840
 6801W        W14017  10.927   3.563  11.897
 6802W        W14018   6.459   9.926   2.988
 6803W        W14019   8.671  11.952   2.396
 6804W        W14020   0.215  11.439   0.083
 6805W        W14021   4.309   1.649   3.345
 6806W        W14022  11.452   3.595   1.690
 6807W        W14023   9.826   3.777   0.355
 6808W        W14024   6.299   5.683   1.844
 6809W        W14025   4.780   3.534   1.335
 6810W        W14026  10.334  11.889   0.144
 6811W        W14027   1.638   8.405   8.710
 6812W        W14028   5.724   9.573   2.355
 6813W        W14029   7.375   6.065  10.051
 6814W        W14030  11.362   3.245  11.297
 6815W        W14031   7.538  12.251   0.661
 6816W        W14032   4.259  13.885  11.103
 6817W        W14033   9.327   2.917  11.010
 6818W        W14034   4.075   1.340   8.336
 6819W        W14035  12.065   5.519   1.186
 6820W        W14036   7.292   5.599   3.350
 6821W        W14037   0.024   5.107  11.676
 6822W        W14038   4.911  12.007   2.027
 6823W        W14039  11.124   5.269   2.130
 6824W        W14040   3.768   7.876   2.061
 6825W        W14041   9.912  10.589   0.529
 6826W        W14042   2.447   1.780   9.726
 6827W        W14043  13.040   9.625  10.250
 6828W        W14044   9.950  13.483   3.715
 6829W        W14045   6.909   9.633   9.795
 6830W        W14046  10.327   3.633   2.884
 6831W        W14047   4.910   9.678   0.486
 6832W        W14048   4.099   8.481   2.734
 6833W        W14049   6.749  10.715   9.889
 6834W        W14050   8.708   9.476   1.928
 6835W        W14051   2.940   9.253   0.472
 6836W        W14052   9.286   8.673   0.044
 6837W        W14053   1.165   7.050   2.941
 6838W        W14054   7.871   0.965   9.651
 6839W        W14055   6.073   2.447   3.462
 6840W        W14056  10.092   1.117  10.531
 6841W        W14057   7.053   0.754   9.368
 6842W        W14058   7.167  13.116   1.879
 6843W        W14059   4.904   5.874   9.436
 6844W        W14060   4.189  13.701   8.998
 6845W        W14061  10.461  12.398   2.633
 6846W        W14062   5.425   1.975   2.505
 6847W        W14063  11.946   1.900   2.729
 6848W        W14064  11.520   0.358   8.660
 6849W        W14065   9.565   4.343   1.024
 6850W        W14066   3.405  10.623   1.208
 6851W        W14067   2.599   2.673   3.820
 6852W        W14068   1.793   8.854   3.529
 6853W        W14069  11.782  12.974   7.996
 6854W        W14070   0.922   1.501   1.503
 6855W        W14071  13.049  10.738  11.558
 6856W        W14072   9.875   8.879   1.023
 6857W        W14073   2.771   9.469   4.108
 6858W        W14074   5.610  10.631   2.850
 6859W        W14075  12.601  11.665   4.007
 6860W        W14076  12.897   6.524  10.917
 6861W        W14077  12.532   7.196   8.584
 6862W        W14078   2.549  13.061  10.577
 6863W        W14079   2.054   6.008  10.869
 6864W        W14080   7.624  10.395   2.862
 6865W        W14081   1.478   6.282   2.048
 6866W        W14082   6.128  11.352  11.543
 6867W        W14083   2.379   1.095   4.231
 6868W        W14084   9.582  13.895   1.135
 6869W        W14085   6.736   2.072  10.967
 6870W        W14086  12.644   4.709   1.125
 6871W        W14087   7.847   1.334   9.280
 6872W        W14088  13.034   4.694  10.881
 6873W        W14089   6.286  10.747   8.898
 6874W        W14090  13.523   6.494   9.128
 6875W        W14091   7.340   3.570  11.094
 6876W        W14092   7.168  13.815   3.565
 6877W        W14093  11.483   9.320  10.383
 6878W        W14094  13.472   6.033   9.329
 6879W        W14095   4.553   4.960   7.696
 6880W        W14096   6.069   0.817   2.649
 6881W        W14097   5.181   1.953   8.548
 6882W        W14098   9.577  12.567  10.471
 6883W        W14099   3.477   7.245   2.496
 6884W        W14100   2.124   0.045   3.210
 6885W        W14101   8.712   9.741   3.183
 6886W        W14102   8.770   8.291  10.356
 6887W        W14103   7.518   6.105   0.535
 6888W        W14104   0.173   1.551   4.296
 6889W        W14105   6.103   5.097   3.285
 6890W        W14106   7.470   8.994  11.966
 6891W        W14107   5.156   6.242   9.654
 6892W        W14108   5.895   1.310   8.544
 6893W        W14109   3.823  13.940   3.033
 6894W        W14110   4.873   4.039   3.053
 6895W        W14111   2.228   0.232   2.503
 6896W        W14112   6.137   1.732  11.335
 6897W        W14113   7.170   7.090   9.117
 6898W        W14114   2.200   8.549   3.474
 6899W        W14115   0.488   4.730   3.947
 6900W        W14116   7.502   5.154   4.274
 6901W        W14117   2.282   6.894   1.852
 6902W        W14118   0.517   5.921  11.018
 6903W        W14119  11.292  13.933   2.335
 6904W        W14120   7.317  13.738   2.503
 6905W        W14121   0.747   4.481   8.000
 6906W        W14122   5.600  11.586   9.490
 6907W        W14123   1.638  12.016  10.086
 6908W        W14124  11.285   0.724   8.319
 6909W        W14125   4.694   3.536   3.039
 6910W        W14126   1.177   0.701   4.258
 6911W        W14127   3.887   3.877  10.296
 6912W        W14128   2.742  11.675  10.788
 6913W        W14129  11.432  13.539   0.342
 6914W        W14130   5.306  10.866   0.149
 6915W        W14131   9.837  12.546   3.306
 6916W        W14132   5.776   3.703   9.364
 6917W        W14133  11.806   0.979   3.974
 6918W        W14134  11.755   4.266   2.187
 6919W        W14135  11.289  11.873   0.193
 6920W        W14136  13.230   8.194   0.793
 6921W        W14137   9.559   7.429   0.887
 6922W        W14138  13.741   6.243   3.472
 6923W        W14139   2.993  10.400   2.582
 6924W        W14140  11.162  12.845   3.051
 6925W        W14141   6.042  10.431   0.180
 6926W        W14142  10.946  10.260  10.857
 6927W        W14143   3.144   8.084  11.429
 6928W        W14144  11.859   7.988   9.652
 6929W        W14145   5.898   0.347   9.486
 6930W        W14146  11.866   7.345   9.078
 6931W        W14147   8.782   4.036  11.152
 6932W        W14148  11.791   9.782   3.493
 6933W        W14149   2.043  13.749  10.455
 6934W        W14150   0.845   0.461  11.118
 6935W        W14151   9.089   6.297   1.035
 6936W        W14152   5.554   2.011   0.074
 6937W        W14153   6.207   1.186   8.923
 6938W        W14154   2.113   5.701   3.286
 6939W        W14155   2.777   2.612   3.294
 6940W        W14156   5.086   7.138  11.937
 6941W        W14157   0.364   0.128   3.211
 6942W        W14158  10.601  10.926  10.224
 6943W        W14159   8.259   3.199   2.177
 6944W        W14160   0.633   5.878   8.881
 6945W        W14161   1.614  12.536  10.118
 6946W        W14162  12.361   7.224   3.553
 6947W        W14163  12.538   5.796  10.914
 6948W        W14164   1.573   9.847   3.233
 6949W        W14165   3.295  11.738   1.849
 6950W        W14166   1.094   6.119   8.897
 6951W        W14167   2.408   3.710  11.180
 6952W        W14168   9.754  11.765   3.643
 6953W        W14169   1.692  10.991  10.104
 6954W        W14170   1.914   4.115   1.151
 6955W        W14171   8.639  10.688   0.572
 6956W        W14172   1.790   6.893   9.978
 6957W        W14173   6.298   6.033   2.402
 6958W        W14174   3.390   9.697   3.314
 6959W        W14175   4.938   9.432   1.072
 6960W        W14176  13.383   6.055   3.822
 6961W        W14177   7.215   6.465   3.064
 6962W        W14178  12.788  10.895   2.646
 6963W        W14179  13.519   7.813   3.307
 6964W        W14180  10.311  13.692  11.730
 6965W        W14181   4.700  10.446  10.323
 6966W        W14182   7.704   7.858   8.855
 6967W        W14183  10.250   8.393  11.872
 6968W        W14184   2.394   9.561   2.815
 6969W        W14185   0.385  13.640   3.217
 6970W        W14186   4.293  12.157  10.716
 6971W        W14187   6.336  11.874  10.697
 6972W        W14188   5.992   4.797   0.511
 6973W        W14189   1.088   2.415  11.606
 6974W        W14190   4.347   3.476   1.013
 6975W        W14191   4.319   7.250   1.506
 6976W        W14192  10.594   5.827  10.390
 6977W        W14193   3.471   4.546   0.416
 6978W        W14194   0.444  10.952   9.680
 6979W        W14195  11.333   6.761   0.094
 6980W        W14196   0.272  12.199   7.951
 6981W        W14197   9.921   4.298   9.177
 6982W        W14198   7.240  11.741   2.207
 6983W        W14199   1.715   3.260   3.192
 6984W        W14200   1.811   8.835   8.485
 6985W        W14201   5.630  11.155   2.780
 6986W        W14202   1.782   2.407   0.215
 6987W        W14203   2.864   1.720   1.456
 6988W        W14204   8.794   7.936   0.706
 6989W        W14205   2.279   0.556   8.792
 6990W        W14206  10.536  11.082   1.537
 6991W        W14207   6.834   1.516   8.979
 6992W        W14208   2.615   7.750   9.046
 6993W        W14209  10.051   8.498   1.328
 6994W        W14210   5.903   1.377   4.371
 6995W        W14211   8.871  11.371   1.710
 6996W        W14212  12.239   3.918   3.608
 6997W        W14213   7.198   1.357  11.810
 6998W        W14214  12.489   6.731   3.641
 6999W        W14215   4.605   8.492   1.918
 7000W        W14216  11.129   3.233   1.870
 7001W        W14217  12.010  10.692   9.782
 7002W        W14218   0.369  11.470   1.740
 7003W        W14219   3.396   8.701   9.418
 7004W        W14220  12.638   4.994  10.713
 7005W        W14221   3.686   9.299   9.939
 7006W        W14222  13.018   0.446  10.956
 7007W        W14223   5.913  12.884  10.465
 7008W        W14224   5.627   4.938   2.065
 7009W        W14225  12.247   1.443   3.264
 7010W        W14226  13.774   0.792   9.386
 7011W        W14227   7.614   9.893   4.088
 7012W        W14228   5.584   9.152   3.150
 7013W        W14229   6.801  10.307   2.951
 7014W        W14230   1.521   7.049   0.880
 7015W        W14231   1.933  10.518   0.400
 7016W        W14232  13.439   3.605   1.392
 7017W        W14233  11.148  12.834   0.901
 7018W        W14234   3.034  11.730  11.193
 7019W        W14235  13.606   5.633   9.016
 7020W        W14236   9.202  10.278  11.820
 7021W        W14237   8.289   3.190   0.326
 7022W        W14238   9.359  13.353  10.924
 7023W        W14239   3.428  11.328   2.668
 7024W        W14240  12.886   1.813   9.508
 7025W        W14241   3.138  11.335   8.427
 7026W        W14242   8.566   4.826   8.109
 7027W        W14243   9.097   0.592   9.544
 7028W        W14244  12.999   5.758   3.666
 7029W        W14245   1.225   0.830   3.774
 7030W        W14246  10.702   0.059  10.907
 7031W        W14247   4.090  12.170   1.900
 7032W        W14248  12.261   7.964   2.285
 7033W        W14249  12.488   9.431  11.516
 7034W        W14250  10.659   1.177   1.131
 7035W        W14251   3.411  13.242   9.736
 7036W        W14252   0.462   5.429   7.984
 7037W        W14253   9.615   4.737  10.717
 7038W        W14254   1.754   9.761   1.277
 7039W        W14255   7.497  13.699   0.176
 7040W        W14256  10.198  12.367  11.732
 7041W        W14257   2.639   6.561  10.442
 7042W        W14258   7.748   7.934   3.346
 7043W        W14259  13.714   1.026   8.511
 7044W        W14260   7.462  10.455   0.337
 7045W        W14261  10.508   0.875   8.436
 7046W        W14262  12.938  12.234   0.809
 7047W        W14263   5.819  11.855   1.892
 7048W        W14264   3.362   4.823  10.997
 7049W        W14265  11.823   2.211   8.971
 7050W        W14266   8.819   1.320   3.218
 7051W        W14267  12.936   4.650   2.042
 7052W        W14268   1.911  11.534   0.972
 7053W        W14269   0.749   2.751   1.070
 7054W        W14270   2.839  13.066   2.552
 7055W        W14271  10.159   0.786   3.529
 7056W        W14272   7.042   7.894  11.741
 7057W        W14273  10.072   2.322  11.210
 7058W        W14274  13.798   9.485   3.533
 7059W        W14275  13.670   0.353   9.166
 7060W        W14276   7.839   8.974   0.295
 7061W        W14277  10.300   1.076   9.277
 7062W        W14278   2.676   4.602   9.330
 7063W        W14279   7.598   7.756   0.333
 7064W        W14280   8.435  10.285   8.686
 7065W        W14281  11.140   0.891  11.781
 7066W        W14282  11.241  11.163  10.691
 7067W        W14283   5.397   6.343   0.471
 7068W        W14284   6.834   9.948   2.577
 7069W        W14285   8.317   5.411   3.981
 7070W        W14286   1.390   2.065   3.879
 7071W        W14287   4.062   6.457   8.116
 7072W        W14288   9.711   9.817   9.286
 7073W        W14289   6.897   7.206  11.495
 7074W        W14290   1.986   6.751  11.805
 7075W        W14291   3.268   3.709   0.674
 7076W        W14292  11.004  10.685   0.086
 7077W        W14293   7.407  10.634   3.400
 7078W        W14294   0.265   9.495   9.843
 7079W        W14295  13.170   7.500   2.575
 7080W        W14296   5.790   5.657  11.299
 7081W        W14297   3.429  11.167   0.079
 7082W        W14298   9.597   6.930   2.222
 7083W        W14299   0.895   7.994   3.871
 7084W        W14300   9.439   8.419   1.848
 7085W        W14301  12.001   6.806  11.541
 7086W        W14302   8.025  12.256   0.661
 7087W        W14303   2.215   2.445  10.967
 7088W        W14304   1.208  12.708   0.742
 7089W        W14305  11.252   4.350  11.589
 7090W        W14306   2.670  11.305   1.393
 7091W        W14307   2.914   4.882   2.365
 7092W        W14308   9.119   4.077  10.141
 7093W        W14309   3.792   1.068   3.586
 7094W        W14310   1.322   1.725   9.063
 7095W        W14311   0.503   5.143   3.631
 7096W        W14312  10.625   0.387   9.007
 7097W        W14313   1.224   6.889   2.042
 7098W        W14314  10.108   7.064  10.782
 7099W        W14315   1.602   9.465  10.641
 7100W        W14316  11.990  12.111   9.481
 7101W        W14317  12.427  11.511   9.791
 7102W        W14318   9.263   5.404   1.869
 7103W        W14319   1.415   9.390   9.137
 7104W        W14320   1.204   0.266   8.320
 7105W        W14321  12.228  13.606   0.706
 7106W        W14322   2.578   0.586   2.083
 7107W        W14323  13.250  13.948   1.301
 7108W        W14324   9.109   6.038   9.556
 7109W        W14325   6.830   1.705   0.121
 7110W        W14326  10.682   7.530   8.497
 7111W        W14327   5.989   5.161   0.926
 7112W        W14328  13.122   0.580  11.439
 7113W        W14329   2.785   5.913  11.053
 7114W        W14330   0.706  12.447   2.975
 7115W        W14331  13.436  11.821   3.115
 7116W        W14332  11.730   2.242   3.065
 7117W        W14333   2.122  12.171   2.191
 7118W        W14334   5.869   1.578   8.963
 7119W        W14335  11.415  10.059  10.087
 7120W        W14336   8.988  12.552   1.778
 7121W        W14337   0.304   5.662   2.300
 7122W        W14338   4.933   1.600  10.885
 7123W        W14339  11.781   5.531   3.595
 7124W        W14340   4.509   1.208   4.070
 7125W        W14341   9.116  13.643   9.701
 7126W        W14342   7.974  13.912   0.978
 7127W        W14343   8.493   0.420   2.841
 7128W        W14344   9.375  13.928   8.082
 7129W        W14345   1.724   8.003   1.079
 7130W        W14346   6.033   4.000   0.712
 7131W        W14347  13.833  13.507   3.091
 7132W        W14348   2.566   7.720   0.636
 7133W        W14349   1.836   2.413   3.249
 7134W        W14350   0.807   4.406   8.501
 7135W        W14351   8.065   2.003   3.918
 7136W        W14352   6.668   8.442  11.589
 7137W        W14353  11.267   3.839   9.605
 7138W        W14354   1.866  11.669  11.764
 7139W        W14355   4.855   5.906  10.375
 7140W        W14356   2.021   2.870   9.203
 7141W        W14357   2.127   8.727  10.431
 7142W        W14358   9.458  12.938   8.819
 7143W        W14359   0.721  12.930   2.820
 7144W        W14360   0.338   6.876   3.061
 7145W        W14361   5.547  12.831   0.744
 7146W        W14362   6.002  11.120   8.726
 7147W        W14363   5.200   3.850  11.474
 7148W        W14364   9.413  11.853  11.412
 7149W        W14365   1.272   2.842  10.815
 7150W        W14366  12.940   5.657  10.656
 7151W        W14367   3.338  11.110   1.303
 7152W        W14368   6.738   1.987   2.162
 7153W        W14369  13.388   8.924  10.691
 7154W        W14370   4.593   8.813   9.875
 7155W        W14371   4.609   4.371   8.258
 7156W        W14372   6.303   0.407  11.666
 7157W        W14373  12.014   2.549   9.952
 7158W        W14374  12.878   0.990   0.745
 7159W        W14375   1.387   2.197  11.971
 7160W        W14376   1.106   2.883  11.431
 7161W        W14377   5.463   9.476   2.777
 7162W        W14378   3.612  11.744   9.893
 7163W        W14379   2.821   0.258  11.405
 7164W        W14380   2.596   9.542  11.342
 7165W        W14381   4.999   7.217  11.125
 7166W        W14382   2.204   3.102   2.631
 7167W        W14383   3.033  11.250   2.275
 7168W        W14384  12.642   1.749   3.366
 7169W        W14385  13.618   4.160   2.315
 7170W        W14386   0.659  12.215  11.719
 7171W        W14387  13.901   6.258   0.913
 7172W        W14388  12.165   0.295   9.232
 7173W        W14389  12.565   7.701   3.563
 7174W        W14390   0.575   2.622   2.780
 7175W        W14391   2.110   0.414   1.245
 7176W        W14392   3.854   3.412   1.337
 7177W        W14393   0.181   5.056   2.067
 7178W        W14394  13.609   0.152   2.182
 7179W        W14395  11.041  12.480   2.653
 7180W        W14396   4.345   7.060   2.788
 7181W        W14397  13.757   9.380  11.189
 7182W        W14398   4.035  12.830   9.143
 7183W        W14399  10.824   2.425   0.478
 7184W        W14400  10.397   6.245   8.189
 7185W        W14401  11.663   5.628   2.728
 7186W        W14402   8.739   9.927  11.087
 7187W        W14403   1.647  12.668   3.872
 7188W        W14404   1.699   4.366   8.918
 7189W        W14405  12.400   6.460  11.582
 7190W        W14406   5.217   7.724   1.018
 7191W        W14407  12.853   7.465   0.812
 7192W        W14408   2.593   2.419   1.829
 7193W        W14409   6.052   2.992   8.532
 7194W        W14410   3.409   5.074   8.445
 7195W        W14411   4.716  10.827   2.814
 7196W        W14412   8.679   5.306   3.631
 7197W        W14413   6.677   5.073   2.807
 7198W        W14414   9.276  13.380   1.492
 7199W        W14415   5.993   8.764   0.900
 7200W        W14416   5.835   1.669   2.531
 7201W        W14417   4.102   4.166  10.712
 7202W        W14418   4.092   2.445   3.139
 7203W        W14419   2.931   6.593   0.800
 7204W        W14420  13.997   4.204   0.749
 7205W        W14421   0.632  12.221   8.847
 7206W        W14422   1.653   4.739   3.414
 7207W        W14423  13.897   3.388   9.589
 7208W        W14424   2.398   5.164   9.884
 7209W        W14425   0.608   1.309  11.751
 7210W        W14426   6.426   7.809   9.064
 7211W        W14427   4.062  13.612   1.258
 7212W        W14428   1.138   5.471   9.448
 7213W        W14429   0.155  13.099  10.841
 7214W        W14430   6.081   7.727   0.678
 7215W        W14431   1.701   8.415   1.372
 7216W        W14432   7.772   9.710   9.603
 7217W        W14433  11.714  11.637   3.478
 7218W        W14434   9.415   1.793  10.137
 7219W        W14435   4.990   6.895   9.336
 7220W        W14436   1.228   0.575  10.664
 7221W        W14437   0.949   6.259   1.246
 7222W        W14438  13.346   9.521   3.340
 7223W        W14439   9.042   1.875   9.769
 7224W        W14440   7.464  13.132  11.192
 7225W        W14441   5.099   2.743  10.535
 7226W        W14442   7.415   3.357   0.595
 7227W        W14443  10.840  12.295   2.131
 7228W        W14444   2.262   2.639   3.447
 7229W        W14445  10.092   4.606  10.925
 7230W        W14446  12.176   6.940  10.660
 7231W        W14447   2.958  13.307  10.453
 7232W        W14448   0.456   3.303   1.787
 7233W        W14449   8.887   6.973   8.544
 7234W        W14450   1.355  12.958  11.481
 7235W        W14451   3.612   7.420   2.967
 7236W        W14452  11.806   8.674  10.824
 7237W        W14453   4.073   2.710   9.622
 7238W        W14454   7.829   7.207   1.154
 7239W        W14455   9.239  10.550  10.145
 7240W        W14456   2.986   6.150   0.534
 7241W        W14457   4.507   3.093   8.917
 7242W        W14458  11.521   2.884   0.450
 7243W        W14459   1.401   6.995   9.224
 7244W        W14460   6.066   4.130   9.375
 7245W        W14461   3.872  10.457  11.084
 7246W        W14462  11.818   1.625   9.561
 7247W        W14463   2.626   3.031   9.898
 7248W        W14464   9.847  12.733  11.590
 7249W        W14465   0.619   9.619  11.659
 7250W        W14466  12.509  11.722  11.690
 7251W        W14467  13.508   2.610   2.702
 7252W        W14468   3.975  11.907   3.054
 7253W        W14469  11.960  10.712   9.252
 7254W        W14470   9.401   7.996   9.036
 7255W        W14471  10.186   1.171  11.995
 7256W        W14472  11.741   6.148   9.633
 7257W        W14473   2.967   4.142   2.890
 7258W        W14474  13.210   8.554   1.186
 7259W        W14475   3.902   1.573   3.610
 7260W        W14476   2.595   0.274   3.824
 7261W        W14477   4.120  11.213  10.968
 7262W        W14478   6.420   1.192   8.471
 7263W        W14479  13.298   5.990  10.693
 7264W        W14480   7.540  11.320   9.941
 7265W        W14481  12.463  13.000   9.365
 7266W        W14482   6.147   8.762   2.534
 7267W        W14483   8.758   1.862  11.293
 7268W        W14484   5.978   6.666   1.741
 7269W        W14485   3.947  10.564  10.191
 7270W        W14486  11.260   1.334  11.990
 7271W        W14487   0.178   4.994   0.138
 7272W        W14488  13.901  11.068   2.732
 7273W        W14489   6.658   5.721  10.652
 7274W        W14490  11.732  10.397  11.411
 7275W        W14491   3.972  10.847   9.773
 7276W        W14492   3.594   0.659   2.836
 7277W        W14493   4.705  13.635   0.284
 7278W        W14494   2.496   8.555  10.122
 7279W        W14495  13.682  10.704   9.816
 7280W        W14496   0.795  11.740  11.892
 7281W        W14497   5.996  13.294   3.485
 7282W        W14498   8.692   4.219   0.590
 7283W        W14499   8.488   1.483  11.606
 7284W        W14500   3.656   5.098  10.651
 7285W        W14501  12.025   5.691   9.022
 7286W        W14502   2.732   9.226   2.953
 7287W        W14503   2.126  11.625   2.895
 7288W        W14504   1.670   7.915   8.879
 7289W        W14505  12.171   8.068   0.455
 7290W        W14506   1.191   9.841   8.966
 7291W        W14507   8.571   1.247   8.734
 7292W        W14508   0.883   6.452   9.662
 7293W        W14509   7.366   5.478   9.305
 7294W        W14510  10.349   8.217  10.486
 7295W        W14511   7.831   5.059   2.249
 7296W        W14512   0.752   7.751   2.239
 7297W        W14513   2.767   0.622  11.050
 7298W        W14514   9.244  11.366   7.912
 7299W        W14515  10.858   9.359  11.227
 7300W        W14516  10.768   1.896   2.042
 7301W        W14517  11.712   0.056  10.973
 7302W        W14518  10.137   1.375   1.782
 7303W        W14519  10.240  10.940   3.409
 7304W        W14520   4.419   9.547   9.841
 7305W        W14521   1.750   5.009   2.967
 7306W        W14522   9.118   3.447   0.178
 7307W        W14523   2.048  12.201   8.829
 7308W        W14524  10.312  13.131   3.837
 7309W        W14525  13.967   0.302   2.946
 7310W        W14526   5.831   6.359   2.993
 7311W        W14527   3.198   8.011   7.876
 7312W        W14528   7.386  10.679  11.542
 7313W        W14529  10.697   9.020  10.686
 7314W        W14530   5.442   7.692   9.594
 7315W        W14531  13.163   9.249   2.420
 7316W        W14532  11.001   5.086   0.255
 7317W        W14533   2.589   8.529  10.630
 7318W        W14534   3.442   7.773  10.514
 7319W        W14535  11.870   7.143   1.619
 7320W        W14536   4.271   8.453  10.637
 7321W        W14537   3.484   4.379   9.033
 7322W        W14538  11.044   5.051   2.942
 7323W        W14539  12.239   9.821   1.736
 7324W        W14540  11.086  13.614   1.967
 7325W        W14541  13.611   9.904   2.049
 7326W        W14542  11.592   6.532  11.739
 7327W        W14543  13.757   3.750   2.058
 7328W        W14544   6.474   4.725   8.626
 7329W        W14545   1.032   3.603   2.439
 7330W        W14546  11.773   4.733  10.399
 7331W        W14547   9.170   0.343   1.715
 7332W        W14548   8.361   3.389   4.103
 7333W        W14549   9.579  11.511  11.060
 7334W        W14550   4.941   8.133  10.078
 7335W        W14551   9.910  10.273   3.061
 7336W        W14552   8.880  13.775  10.489
 7337W        W14553   9.018  11.476   0.476
 7338W        W14554  10.651   9.347   1.743
 7339W        W14555   8.661   4.404   9.794
 7340W        W14556   0.933   2.126   8.467
 7341W        W14557   2.933   4.095  11.609
 7342W        W14558   9.948   5.081   2.173
 7343W        W14559   5.581   7.956   8.801
 7344W        W14560   7.630  13.438   2.733
 7345W        W14561   8.595   1.041   1.456
 7346W        W14562  13.434  10.167   8.442
 7347W        W14563   2.162  13.051   8.339
 7348W        W14564   3.587   5.563   8.315
 7349W        W14565   5.109  11.621  11.582
 7350W        W14566   9.335   9.631   0.774
 7351W        W14567   7.110   6.565  10.035
 7352W        W14568  12.550   1.783   9.114
 7353W        W14569   4.005   8.815   0.099
 7354W        W14570   2.819   9.335   1.359
 7355W        W14571   4.929   0.130   8.508
 7356W        W14572  12.559   2.633   1.771
 7357W        W14573   6.518   4.187   0.083
 7358W        W14574  13.103  13.915   1.792
 7359W        W14575   5.296   0.741  10.956
 7360W        W14576  11.818   3.757   2.060
 7361W        W14577   8.582  12.524   7.924
 7362W        W14578   4.220   8.351   7.996
 7363W        W14579   7.731  11.858  11.010
 7364W        W14580   3.245  13.723   9.729
 7365W        W14581   4.061  10.719   8.768
 7366W        W14582  13.401  11.196   0.260
 7367W        W14583   3.031   5.779   9.626
 7368W        W14584   5.064   6.288   1.743
 7369W        W14585  12.145   6.951   8.853
 7370W        W14586   0.121  13.610  10.850
 7371W        W14587   6.395  13.126   1.259
 7372W        W14588  10.486   4.894   9.120
 7373W        W14589   6.971  13.752  11.441
 7374W        W14590   6.245  10.676   2.234
 7375W        W14591   5.388   1.564   1.734
 7376W        W14592   3.204   0.915   0.218
 7377W        W14593   5.846   5.355  10.853
 7378W        W14594   3.801   4.620   8.708
 7379W        W14595   5.631   1.953  11.268
 7380W        W14596  12.557  13.365   9.020
 7381W        W14597   4.636  13.435  10.046
 7382W        W14598   8.252   7.763   9.747
 7383W        W14599  11.315  10.636   0.485
 7384W        W14600   0.573   8.419  11.873
 7385W        W14601   6.838  13.864  10.160
 7386W        W14602   8.418  12.004   4.100
 7387W        W14603   4.262   0.248   1.815
 7388W        W14604   9.586  13.612   7.694
 7389W        W14605   7.160   3.919   1.592
 7390W        W14606  11.199   1.549   8.373
 7391W        W14607  11.929   1.104  10.367
 7392W        W14608   7.548   0.735   1.370
 7393W        W14609   5.339   0.365  11.333
 7394W        W14610   2.054  12.122   2.938
 7395W        W14611   1.990  11.709   8.908
 7396W        W14612  11.572  12.232   0.433
 7397W        W14613  12.654   4.149   9.682
 7398W        W14614   5.173   5.027   9.003
 7399W        W14615   9.887  13.458   2.329
 7400W        W14616   6.273  12.116   0.834
 7401W        W14617   4.882  10.235   8.790
 7402W        W14618  12.994   5.573   9.819
 7403W        W14619   0.265  13.515   2.439
 7404W        W14620   9.112   2.161   1.773
 7405W        W14621  12.270   9.885   0.676
 7406W        W14622   6.454   8.585   0.020
 7407W        W14623   9.259   9.035   0.402
 7408W        W14624  11.831   6.536   8.853
 7409W        W14625   6.650   9.344   1.248
 7410W        W14626   0.604   0.816   3.474
 7411W        W14627   9.336   0.975   0.504
 7412W        W14628   7.523   6.751  10.773
 7413W        W14629   0.092   1.211  10.539
 7414W        W14630  13.814   4.651   9.695
 7415W        W14631   6.457   6.504   2.421
 7416W        W14632   1.622   1.123   0.437
 7417W        W14633   6.751   5.876   4.382
 7418W        W14634   0.525   7.980  10.422
 7419W        W14635   4.633  12.383  11.472
 7420W        W14636   9.563   2.961   3.250
 7421W        W14637   4.144  13.841   2.081
 7422W        W14638   3.797   0.045  11.266
 7423W        W14639   6.141   3.906  10.601
 7424W        W14640  11.688  13.712   0.729
 7425W        W14641   0.617   4.599  10.113
 7426W        W14642  12.454   1.992   9.619
 7427W        W14643   1.373   0.009   1.158
 7428W        W14644  10.863   1.223   1.590
 7429W        W14645   7.822   1.550  11.126
 7430W        W14646   7.838   3.797  10.249
 7431W        W14647   2.758  11.605  10.027
 7432W        W14648   4.872   0.338  11.143
 7433W        W14649   0.715   4.212   9.402
 7434W        W14650   8.918   4.001   1.259
 7435W        W14651   2.619   5.655   1.684
 7436W        W14652   9.994   4.093   2.925
 7437W        W14653   4.781   8.204   9.169
 7438W        W14654   2.027   6.023   0.208
 7439W        W14655   7.225   1.730   2.713
 7440W        W14656  11.161   9.664  10.238
 7441W        W14657   9.204   5.912  11.499
 7442W        W14658   9.709   7.692   0.465
 7443W        W14659   0.961   0.420   3.617
 7444W        W14660  11.010   4.299  10.657
 7445W        W14661  12.274   6.762   2.845
 7446W        W14662   7.940   5.960   3.159
 7447W        W14663   1.596   7.296  11.163
 7448W        W14664   7.687   8.445   2.834
 7449W        W14665  10.407   2.541  10.252
 7450W        W14666  12.051   3.387   9.799
 7451W        W14667   6.469   3.092   8.865
 7452W        W14668   9.683  13.637   2.770
 7453W        W14669   0.528  11.118  10.757
 7454W        W14670  11.597  13.666   2.007
 7455W        W14671   2.559   3.388   9.183
 7456W        W14672   4.735   9.359  11.007
 7457W        W14673   4.943   9.298   8.657
 7458W        W14674   5.237   2.379   8.873
 7459W        W14675   1.720  13.324  11.556
 7460W        W14676   9.873   6.498  10.886
 7461W        W14677  10.838   8.437   8.041
 7462W        W14678   2.102   9.360   2.490
 7463W        W14679  13.856  10.819   8.171
 7464W        W14680   4.341  11.764  10.402
 7465W        W14681   8.686   6.149   8.601
 7466W        W14682  13.594  10.498   2.629
 7467W        W14683  10.052   0.744   3.021
 7468W        W14684   6.589   7.931  11.474
 7469W        W14685   7.062   7.430  11.929
 7470W        W14686   1.485  13.553   0.953
 7471W        W14687   5.594   1.382   9.708
 7472W        W14688   6.461   6.966   0.305
 7473W        W14689   2.933   0.251   3.189
 7474W        W14690   3.259  12.581  11.217
 7475W        W14691   2.240  10.218   2.997
 7476W        W14692   7.058  13.618  11.937
 7477W        W14693   6.770  10.566  11.560
 7478W        W14694  11.748  10.753   1.458
 7479W        W14695   3.359   3.360   3.158
 7480W        W14696  13.689  13.221   8.758
 7481W        W14697  12.547   3.459   1.899
 7482W        W14698   6.285   3.338   2.235
 7483W        W14699   0.915   1.617   8.382
 7484W        W14700   6.248   0.276   1.013
 7485W        W14701   3.865   1.926   8.791
 7486W        W14702   3.324   8.452  11.695
 7487W        W14703  10.162  13.857   9.682
 7488W        W14704   9.796   4.589   8.160
 7489W        W14705   6.130   8.080   1.563
 7490W        W14706   7.934   0.787  11.807
 7491W        W14707   5.762  12.016   0.980
 7492W        W14708   5.803  13.488   2.501
 7493W        W14709   0.233   7.119   2.596
 7494W        W14710  10.820   9.678  11.612
 7495W        W14711   0.354  11.960   1.437
 7496W        W14712   3.832  13.274   9.022
 7497W        W14713  11.405  10.157  11.067
 7498W        W14714   9.669   2.184   0.037
 7499W        W14715   5.129  13.341   0.185
 7500W        W14716   4.760  12.618   2.332
 7501W        W14717   2.015   0.816   1.518
 7502W        W14718   3.582   9.715   0.946
 7503W        W14719   3.957   4.095   2.119
 7504W        W14720   3.356   0.834   3.636
 7505W        W14721   3.405  10.374  10.963
 7506W        W14722  12.478  10.352  11.024
 7507W        W14723   1.888  12.913   2.604
 7508W        W14724   2.148   5.301  11.868
 7509W        W14725   8.336  11.598  11.714
 7510W        W14726   1.332   4.154   1.924
 7511W        W14727   7.812   2.297   2.303
 7512W        W14728   9.069  13.083  10.571
 7513W        W14729   1.474  10.233   3.547
 7514W        W14730  13.663   8.842  11.890
 7515W        W14731   4.981   8.040   0.681
 7516W        W14732   9.003   3.242   0.699
 7517W        W14733   7.834   4.854   0.974
 7518W        W14734   6.170   1.389  11.701
 7519W        W14735   3.809   2.209  11.303
 7520W        W14736   9.889   1.516   1.381
 7521W        W14737   4.006   0.844  10.856
 7522W        W14738   7.780  12.736  11.264
 7523W        W14739  13.293   7.684   1.008
 7524W        W14740   1.155   9.585  10.416
 7525W        W14741   5.322   1.606  11.808
 7526W        W14742   3.774   8.567  10.629
 7527W        W14743   0.919  11.812   9.002
 7528W        W14744   9.816   5.510   9.396
 7529W        W14745   0.921   1.111   8.461
 7530W        W14746   6.020   9.837   1.191
 7531W        W14747   1.953   0.197   8.758
 7532W        W14748   2.446   1.857   3.101
 7533W        W14749   5.649  12.863   1.539
 7534W        W14750  11.779  11.622   4.110
 7535W        W14751  10.349   9.755   1.581
 7536W        W14752   9.787   2.322   9.474
 7537W        W14753   3.390  11.075   3.083
 7538W        W14754   2.727   7.987  11.695
 7539W        W14755  11.998  10.221   0.933
 7540W        W14756  11.478  13.999   9.334
 7541W        W14757   9.789  10.111   0.616
 7542W        W14758   4.908   4.635   9.931
 7543W        W14759   6.127   6.139   0.229
 7544W        W14760   0.308   8.887   0.273
 7545W        W14761   6.991   1.868   3.897
 7546W        W14762   3.693   6.789   2.348
 7547W        W14763   1.497   0.518   2.203
 7548W        W14764   1.496   8.544   2.794
 7549W        W14765   4.297   0.869   0.586
 7550W        W14766  10.874  13.168   2.075
 7551W        W14767   3.045   4.352  11.167
 7552W        W14768   8.249   2.466   2.065
 7553W        W14769   1.514   3.446   0.052
 7554W        W14770   0.739   6.997   1.880
 7555W        W14771   4.580   1.313  11.114
 7556W        W14772   3.730   1.329  10.461
 7557W        W14773   6.364  12.215  11.899
 7558W        W14774   9.567   7.051   0.057
 7559W        W14775   2.807   7.241  11.910
 7560W        W14776  12.102   1.137  11.525
 7561W        W14777   8.779   8.366   2.283
 7562W        W14778   6.848   0.791   0.593
 7563W        W14779   9.563   9.294  10.074
 7564W        W14780   8.223   9.942   8.380
 7565W        W14781   7.882  11.582  11.953
 7566W        W14782   9.826   9.652   2.755
 7567W        W14783   8.573   6.557   8.357
 7568W        W14784   9.116   3.804  11.444
 7569W        W14785  11.785   5.855   8.594
 7570W        W14786   6.041   0.414   2.318
 7571W        W14787   6.464   1.228   3.072
 7572W        W14788   2.131   3.134   3.476
 7573W        W14789  13.411  12.103   9.803
 7574W        W14790   6.846  10.900   0.797
 7575W        W14791   3.676   3.754   1.004
 7576W        W14792   6.556   3.471   2.646
 7577W        W14793  13.402  12.668   1.789
 7578W        W14794   0.671   6.135  10.440
 7579W        W14795   5.003   5.487   9.071
 7580W        W14796   4.603  11.094  11.123
 7581W        W14797  13.668   6.988   9.020
 7582W        W14798  13.874  11.963   0.088
 7583W        W14799  13.749   8.345  11.944
 7584W        W14800  12.271   5.243   0.051
 7585W        W14801   3.726  13.306   3.677
 7586W        W14802  12.645   0.352  11.334
 7587W        W14803   3.983   5.476   2.505
 7588W        W14804   0.569   1.225   2.681
 7589W        W14805   5.912   4.632  11.953
 7590W        W14806   1.089  12.639   9.102
 7591W        W14807   0.900   7.068   9.337
 7592W        W14808   1.595   0.917  11.184
 7593W        W14809   0.808  10.539   0.810
 7594W        W14810   3.548  12.935   9.354
 7595W        W14811   7.969   4.944   4.460
 7596W        W14812   4.019  12.398   3.112
 7597W        W14813  12.113   6.340   3.033
 7598W        W14814   6.883   3.107   9.193
 7599W        W14815   7.865   6.084   1.319
 7600W        W14816   6.897   4.921  10.688
 7601W        W14817  11.862  10.203   3.825
 7602W        W14818   6.870   7.985   0.938
 7603W        W14819   3.503  12.027  11.862
 7604W        W14820  11.595   4.155   9.340
 7605W        W14821   3.512   7.715   0.751
 7606W        W14822   2.762   4.737   0.811
 7607W        W14823   5.575   4.550   3.055
 7608W        W14824   9.342   1.124   9.075
 7609W        W14825  11.854   5.210   2.082
 7610W        W14826  12.142   2.468  10.466
 7611W        W14827   6.293  10.811  11.980
 7612W        W14828   2.082   3.349   9.022
 7613W        W14829   9.492  12.013   7.821
 7614W        W14830   4.612   3.860   2.659
 7615W        W14831   4.215  13.511   8.532
 7616W        W14832   2.099   7.811   8.353
 7617W        W14833   2.816   1.705   8.776
 7618W        W14834  12.686   8.007  11.045
 7619W        W14835  12.120   2.923   9.591
 7620W        W14836   2.270   3.441  10.685
 7621W        W14837  10.583   7.598   9.269
 7622W        W14838   4.015  11.297   0.233
 7623W        W14839   2.764   1.238   0.256
 7624W        W14840   2.055  10.082   9.061
 7625W        W14841  12.092   6.665   9.289
 7626W        W14842  11.482  10.800   9.094
 7627W        W14843   6.001   4.003   3.361
 7628W        W14844  12.056  11.052  10.485
 7629W        W14845  13.505   3.684   2.995
 7630W        W14846   8.437   5.231   8.888
 7631W        W14847   2.876  11.507   9.546
 7632W        W14848   2.581  13.335   9.555
 7633W        W14849  13.733  13.063   9.624
 7634W        W14850   8.260   5.924   8.560
 7635W        W14851   8.756   6.627  10.189
 7636W        W14852  12.468  10.194   2.769
 7637W        W14853   7.862   0.236   4.162
 7638W        W14854  11.688   9.770  10.892
 7639W        W14855   3.375  11.623  11.556
 7640W        W14856   4.709  13.599   3.238
 7641W        W14857   1.391   0.138   2.568
 7642W        W14858  10.230   7.180   2.701
 7643W        W14859   7.242   1.239  10.397
 7644W        W14860   0.776   9.654   3.653
 7645W        W14861   9.592   7.454   2.212
 7646W        W14862   0.727   9.877   8.682
 7647W        W14863   9.399  10.480   0.606
 7648W        W14864  11.210  13.366  11.932
 7649W        W14865  12.459   3.056   3.630
 7650W        W14866  13.812   2.555  11.604
 7651W        W14867  13.392  12.061   1.247
 7652W        W14868   6.365   4.240   3.123
 7653W        W14869   4.970   0.740   9.759
 7654W        W14870   9.213   7.536   9.093
 7655W        W14871  12.373  12.854  11.829
 7656W        W14872   1.999   5.391   4.523
 7657W        W14873  12.648  12.206  10.690
 7658W        W14874   2.992   7.462   1.417
 7659W        W14875   4.601   4.243  10.794
 7660W        W14876  11.110   8.369   8.453
 7661W        W14877   1.672   8.587  10.681
 7662W        W14878   7.199   2.771  11.441
 7663W        W14879  10.308  13.150  11.020
 7664W        W14880  11.347   4.058   0.443
 7665W        W14881   6.633  10.493  10.719
 7666W        W14882   6.645   3.010   0.077
 7667W        W14883  10.268  11.283   2.989
 7668W        W14884  13.783   2.732   2.254
 7669W        W14885   6.990   8.590   9.119
 7670W        W14886  10.776  10.755   9.732
 7671W        W14887   3.281  13.725   0.506
 7672W        W14888   7.335   9.617   1.711
 7673W        W14889  10.246  10.260   1.680
 7674W        W14890   8.300   2.570   1.517
 7675W        W14891  10.213   8.555  10.106
 7676W        W14892   9.961  13.181   2.864
 7677W        W14893  13.555   0.440   3.204
 7678W        W14894  11.073   1.784   2.432
 7679W        W14895   6.385   1.671  10.913
 7680W        W14896   6.724   2.010   3.492
 7681W        W14897  13.652  11.096  10.641
 7682W        W14898   4.847   2.331  10.392
 7683W        W14899   7.320   3.181  10.527
 7684W        W14900   3.180   5.096   2.012
 7685W        W14901   5.483   9.972   2.566
 7686W        W14902   7.674   0.987   3.513
 7687W        W14903   3.706   5.923  11.923
 7688W        W14904   1.838   6.185   9.601
 7689W        W14905   3.847   4.996   2.404
 7690W        W14906   6.708   6.717  11.940
 7691W        W14907   9.409  10.832  10.891
 7692W        W14908   0.788   0.239   1.824
 7693W        W14909   6.201   4.560   4.207
 7694W        W14910   0.446   9.074  11.139
 7695W        W14911   6.811   4.021   3.189
 7696W        W14912  10.373   8.901   1.937
 7697W        W14913  10.097  10.966  10.163
 7698W        W14914   5.926  11.180   3.215
 7699W        W14915  12.330  10.330   0.395
 7700W        W14916   5.348   5.783  10.663
 7701W        W14917   2.713  12.795   9.688
 7702W        W14918  12.523   5.947   1.376
 7703W        W14919   2.690   2.571   9.673
 7704W        W14920   8.793  12.762   3.301
 7705W        W14921  12.884   4.336   8.201
 7706W        W14922   6.362  13.126   8.896
 7707W        W14923   3.474   0.181   8.422
 7708W        W14924  12.929   6.957   9.492
 7709W        W14925  13.866   3.942  11.562
 7710W        W14926   0.349   0.204   8.307
 7711W        W14927  10.839   2.696   2.448
 7712W        W14928   1.897   5.028   0.195
 7713W        W14929   0.602   5.344   0.857
 7714W        W14930   2.749   0.631   9.809
 7715W        W14931  10.967   7.799  11.801
 7716W        W14932   4.573   5.429   4.037
 7717W        W14933   6.475   1.571   2.403
 7718W        W14934   8.706   0.325   8.741
 7719W        W14935  10.778  12.466  10.941
 7720W        W14936   1.220  10.257   0.075
 7721W        W14937   8.024  12.480   8.811
 7722W        W14938   2.648   7.344  11.444
 7723W        W14939  11.404   3.470  10.373
 7724W        W14940  12.117   1.893   8.257
 7725W        W14941   9.416  11.837   3.257
 7726W        W14942   9.281   9.321  11.938
 7727W        W14943   4.802   4.790   8.519
 7728W        W14944  13.165  13.084   1.961
 7729W        W14945   2.627   4.095   9.202
 7730W        W14946   5.097  10.218  11.910
 7731W        W14947   5.585  10.148   8.984
 7732W        W14948  11.656   4.138   9.862
 7733W        W14949   0.961   4.063  10.585
 7734W        W14950   7.607   4.434  11.781
 7735W        W14951   5.224  12.091   3.417
 7736W        W14952   6.586  11.457   9.391
 7737W        W14953   3.652   8.994   8.835
 7738W        W14954  10.944   2.415  11.651
 7739W        W14955   8.069  12.480  10.381
 7740W        W14956   2.658  13.172   0.628
 7741W        W14957   8.324   0.871   0.217
 7742W        W14958   6.035   5.418   9.200
 7743W        W14959   6.573   9.343  10.058
 7744W        W14960  11.665  12.842   0.924
 7745W        W14961  11.341  13.274   9.305
 7746W        W14962  12.128   7.881  11.979
 7747W        W14963  13.485   6.775   3.288
 7748W        W14964   6.077   9.319   1.019
 7749W        W14965   8.754   5.122  11.742
 7750W        W14966   4.350   2.271   9.512
 7751W        W14967  11.270   6.321   9.763
 7752W        W14968   8.149   4.147  10.458
 7753W        W14969   5.123  13.122   0.724
 7754W        W14970   6.336   7.240  10.878
 7755W        W14971  11.958   6.739   2.427
 7756W        W14972   7.488  11.638   1.593
 7757W        W14973   5.775   9.411   1.425
 7758W        W14974   9.288  11.484  10.325
 7759W        W14975   4.169   0.871   3.263
 7760W        W14976   9.907   4.231   9.686
 7761W        W14977   6.290   5.360   3.671
 7762W        W14978   5.930   9.257   2.729
 7763W        W14979  13.921  10.793   3.536
 7764W        W14980  13.291  13.130   2.453
 7765W        W14981   3.389   1.065   1.105
 7766W        W14982   1.446   4.619   2.167
 7767W        W14983   0.013  11.010  10.035
 7768W        W14984   5.646   9.876   1.597
 7769W        W14985   5.636   2.786   9.262
 7770W        W14986   3.114   1.175   3.363
 7771W        W14987   6.523  12.852   2.684
 7772W        W14988   3.394   9.160  11.546
 7773W        W14989   6.705  10.865   2.109
 7774W        W14990  10.225   6.903   0.919
 7775W        W14991   1.625   9.628   8.731
 7776W        W14992   9.440   8.914  11.619
 7777W        W14993   9.181   0.463   2.204
 7778W        W14994   8.335  10.488  11.653
 7779W        W14995   7.283   3.419   2.181
 7780W        W14996   7.840   8.401   4.209
 7781W        W14997   1.335  11.837   0.610
 7782W        W14998   2.230   3.742   9.323
 7783W        W14999   9.225   8.486   1.389
 7784W        W15000   8.565   9.090  10.603
 7785W        W15001   8.991  12.948   1.431
 7786W        W15002  11.034   4.792   9.768
 7787W        W15003  12.667   5.808  11.985
 7788W        W15004   6.250  11.721   0.180
 7789W        W15005   7.413   9.373   8.087
 7790W        W15006   8.351   2.657  10.587
 7791W        W15007   0.022   5.274   1.639
 7792W        W15008  12.526  10.690   1.689
 7793W        W15009   3.702  11.386   1.036
 7794W        W15010   4.209   6.775   1.540
 7795W        W15011  10.723  10.652  11.623
 7796W        W15012  13.856   2.549   1.777
 7797W        W15013   8.790   4.535  11.130
 7798W        W15014   9.460   6.713  10.097
 7799W        W15015   4.604   4.905   9.629
 7800W        W15016  12.431   0.569   9.596
 7801W        W15017   0.675   4.099   7.658
 7802W        W15018   3.215   2.012   8.133
 7803W        W15019   4.164   5.945   2.705
 7804W        W15020   5.832   7.822  10.555
 7805W        W15021  11.444   8.102   1.933
 7806W        W15022  13.078   5.895   8.440
 7807W        W15023   1.509   4.705   9.687
 7808W        W15024  12.925   4.300  11.709
 7809W        W15025   3.699   6.057   9.464
 7810W        W15026  10.062   8.055   0.175
 7811W        W15027   7.905   6.711   8.509
 7812W        W15028  10.603   0.717   1.365
 7813W        W15029  10.621   9.208   3.123
 7814W        W15030   6.606   1.661  11.649
 7815W        W15031  10.647   2.882   0.387
 7816W        W15032   8.196   9.397   0.548
 7817W        W15033   2.404   8.394  11.798
 7818W        W15034   3.475   5.056   3.568
 7819W        W15035   6.631   7.776   0.023
 7820W        W15036   5.746   9.433   8.242
 7821W        W15037   4.497   0.612  11.478
 7822W        W15038  13.815  12.206   8.636
 7823W        W15039   3.692   2.538   9.919
 7824W        W15040   3.338   2.273  11.697
 7825W        W15041   2.605   1.780  10.202
 7826W        W15042   5.193  12.834   2.417
 7827W        W15043   0.971  13.014  10.699
 7828W        W15044   0.274   2.188   2.501
 7829W        W15045   2.281   4.486   9.628
 7830W        W15046  11.919  13.040   1.330
 7831W        W15047   0.860   8.430   1.598
 7832W        W15048   3.477  13.849   1.842
 7833W        W15049  11.832   2.926   2.461
 7834W        W15050   9.064   0.641   8.914
 7835W        W15051   4.703   7.351   8.180
 7836W        W15052   9.925  12.121  10.786
 7837W        W15053   1.773   1.674   7.439
 7838W        W15054   2.408   7.004   9.608
 7839W        W15055  11.705   2.775  10.261
 7840W        W15056  13.629   8.861   1.249
 7841W        W15057   3.271   4.449  10.681
 7842W        W15058   4.754   3.344   1.804
 7843W        W15059   2.778  10.979   8.420
 7844W        W15060   4.595  11.279   3.022
 7845W        W15061   5.008   8.857   0.801
 7846W        W15062  13.305   8.083  10.092
 7847W        W15063  12.581   5.199   3.710
 7848W        W15064  13.852   2.424  10.628
 7849W        W15065  13.416  12.962   7.598
 7850W        W15066   1.794  12.916  11.234
 7851W        W15067   3.029   8.835   3.063
 7852W        W15068   0.251  11.548   3.019
 7853W        W15069   3.004   2.150   1.725
 7854W        W15070   9.896   8.093   9.191
 7855W        W15071   2.358   8.873   3.091
 7856W        W15072   7.567   3.473   3.535
 7857W        W15073  13.722   4.454  11.498
 7858W        W15074  13.878  11.376   8.867
 7859W        W15075   7.919   6.604   1.110
 7860W        W15076  12.046  10.424  11.933
 7861W        W15077   3.357   1.539   1.294
 7862W        W15078  13.654  12.852   0.042
 7863W        W15079   4.730   8.544  10.825
 7864W        W15080   6.891  12.875   9.496
 7865W        W15081   2.216   3.944   3.262
 7866W        W15082   2.401   8.019   2.661
 7867W        W15083  11.752   7.094   9.960
 7868W        W15084  10.737   6.494  10.959
 7869W        W15085  10.964   8.252   0.056
 7870W        W15086  12.377   6.874   0.707
 7871W        W15087   3.706   1.465   8.675
 7872W        W15088   1.284   2.447   8.330
 7873W        W15089  10.679   7.793  10.450
 7874W        W15090   9.261  12.766   3.113
 7875W        W15091   2.004  13.204   8.794
 7876W        W15092   2.555   4.425   0.378
 7877W        W15093   3.517   2.068   9.869
 7878W        W15094  10.502   9.532   3.498
 7879W        W15095  12.646   5.072   2.065
 7880W        W15096   4.661   5.109   9.048
 7881W        W15097   3.257  10.091   9.708
 7882W        W15098   2.271   8.842   8.718
 7883W        W15099   8.739   1.742   3.496
 7884W        W15100   7.045   0.795   4.590
 7885W        W15101  11.201   7.668   1.866
 7886W        W15102   6.682   4.995  11.142
 7887W        W15103   3.062   7.530  10.773
 7888W        W15104  11.495   4.946   0.281
 7889W        W15105   4.829   4.656   9.209
 7890W        W15106   4.585   3.430   9.677
 7891W        W15107   7.264   1.584   9.971
 7892W        W15108  10.404   9.322   9.684
 7893W        W15109  12.862   2.354  11.055
 7894W        W15110   4.856   7.445   3.809
 7895W        W15111   7.852   5.552   2.079
 7896W        W15112   5.846   8.004   2.789
 7897W        W15113   4.504   5.347  11.012
 7898W        W15114  13.816   6.544   8.739
 7899W        W15115   1.047   1.320   0.286
 7900W        W15116   3.501   5.586   2.738
 7901W        W15117   8.812   8.935   8.621
 7902W        W15118   2.230   0.339   8.312
 7903W        W15119   7.065  10.146   0.424
 7904W        W15120  12.956   7.312  10.466
 7905W        W15121   1.336   2.599   0.303
 7906W        W15122  10.083   6.053   0.883
 7907W        W15123   7.736  13.675   8.886
 7908W        W15124   1.490   3.240   0.901
 7909W        W15125   8.474   1.660   9.121
 7910W        W15126  11.187   1.673   9.153
 7911W        W15127   4.316  11.454   0.994
 7912W        W15128  10.505   0.262   2.235
 7913W        W15129   5.816   1.380   1.523
 7914W        W15130   8.309   5.371   2.156
 7915W        W15131   8.300  10.285  10.320
 7916W        W15132   6.223   9.899  10.509
 7917W        W15133   9.180   6.734  11.887
 7918W        W15134  12.520   7.946   4.008
 7919W        W15135   5.549   7.022   1.096
 7920W        W15136  12.400   5.131   1.231
 7921W        W15137   6.462  13.860   3.880
 7922W        W15138  13.961   9.887   3.809
 7923W        W15139  13.681   8.807   1.756
 7924W        W15140   0.402   6.799   2.237
 7925W        W15141   0.845   8.385  10.398
 7926W        W15142   5.994   2.039   0.801
 7927W        W15143   7.147   2.907   2.135
 7928W        W15144   4.890   4.715   8.024
 7929W        W15145   2.722  10.362   3.002
 7930W        W15146   1.254   6.402  11.966
 7931W        W15147  10.377   3.194   3.151
 7932W        W15148  12.970  13.711   3.583
 7933W        W15149  13.334   6.383  11.665
 7934W        W15150   8.991  10.113   9.000
 7935W        W15151   2.695   0.382   2.516
 7936W        W15152   7.992  13.770   2.876
 7937W        W15153   1.203   2.238   4.321
 7938W        W15154   1.967   9.225  10.255
 7939W        W15155  11.310  11.226  10.201
 7940W        W15156  10.671  11.869   9.804
 7941W        W15157   3.901  11.881  11.520
 7942W        W15158   4.050   0.408   0.841
 7943W        W15159   7.562   6.523  11.662
 7944W        W15160   2.760   8.956   8.718
 7945W        W15161   6.790  10.597   9.406
 7946W        W15162   7.714   6.448   2.055
 7947W        W15163  13.769   7.501   0.265
 7948W        W15164  12.061  13.859  11.918
 7949W        W15165   2.122   7.360   2.908
 7950W        W15166   2.940   9.419   9.161
 7951W        W15167  12.938   1.561  11.955
 7952W        W15168   8.720   9.502   9.839
 7953W        W15169   6.858   0.939   8.496
 7954W        W15170   7.968  12.278   9.885
 7955W        W15171   0.084   1.420   2.009
 7956W        W15172   8.206   1.368   1.411
 7957W        W15173   2.640   3.123  11.975
 7958W        W15174  12.640  10.791  11.234
 7959W        W15175   3.649   3.712   2.227
 7960W        W15176   6.367  12.612   1.083
 7961W        W15177  11.584  11.732   2.602
 7962W        W15178  11.087  12.503  10.474
 7963W        W15179  13.673   8.859  11.110
 7964W        W15180   4.419   2.628   0.372
 7965W        W15181   6.601   8.648   9.466
 7966W        W15182  10.971   3.791   1.680
 7967W        W15183   3.526   1.611  10.089
 7968W        W15184   6.117   3.254   1.010
 7969W        W15185   0.137   1.759  11.162
 7970W        W15186   3.965  13.914   7.900
 7971W        W15187   0.109   9.144   1.638
 7972W        W15188   2.516  11.728   0.265
 7973W        W15189   7.869   5.194   3.902
 7974W        W15190   0.234   5.887  11.454
 7975W        W15191   4.456   6.373   0.451
 7976W        W15192   7.865   6.994   3.660
 7977W        W15193  11.752  10.673   0.246
 7978W        W15194   8.074   9.778   1.178
 7979W        W15195   1.504   3.897   3.593
 7980W        W15196   7.682   3.205   8.857
 7981W        W15197   0.006   4.733   8.779
 7982W        W15198   1.922   4.747   2.132
 7983W        W15199  13.899   4.259   1.231
 7984W        W15200   2.628   0.491  11.805
 7985W        W15201   5.882   4.707   3.812
 7986W        W15202  12.921   3.181   9.431
 7987W        W15203   2.446   5.313   2.527
 7988W        W15204   2.590   0.004  10.345
 7989W        W15205  10.038   4.691   0.204
 7990W        W15206  11.311   3.290   0.728
 7991W        W15207   0.745   2.012   2.366
 7992W        W15208   9.870   0.026   2.512
 7993W        W15209   9.638   1.756  10.915
 7994W        W15210   5.705   1.080   9.006
 7995W        W15211  11.929   0.951   1.060
 7996W        W15212   0.139   4.062  10.694
 7997W        W15213  11.199  12.388   0.107
 7998W        W15214  12.585   0.359   2.165
 7999W        W15215   4.117   7.358   9.357
 8000W        W15216  12.317   3.093   2.599
 8001W        W15217   1.205  13.478   3.333
 8002W        W15218   2.937  13.560   0.836
 8003W        W15219   1.690   6.734   2.219
 8004W        W15220   0.720   7.148   1.084
 8005W        W15221   5.224  10.429  10.097
 8006W        W15222  11.086   5.214   3.874
 8007W        W15223   1.794   0.509   2.615
 8008W        W15224   7.416   6.045  11.730
 8009W        W15225   9.989   0.013   3.013
 8010W        W15226   8.480  10.576  10.720
 8011W        W15227   7.118   5.994   0.851
 8012W        W15228  12.771   4.893   3.382
 8013W        W15229   1.502  13.084   8.952
 8014W        W15230   9.501  12.767   8.278
 8015W        W15231   3.166   2.715  11.915
 8016W        W15232   9.169   7.861   9.479
 8017W        W15233  10.032   9.865   2.022
 8018W        W15234   3.125   2.973   1.286
 8019W        W15235   6.749   0.473   7.854
 8020W        W15236  11.558  12.112  11.816
 8021W        W15237   9.095  11.501   9.846
 8022W        W15238   6.303  11.409   3.535
 8023W        W15239   7.046   5.888   8.250
 8024W        W15240   8.711   5.159  11.228
 8025W        W15241  12.928   7.947   4.299
 8026W        W15242   6.093   2.782   8.993
 8027W        W15243   9.478  10.529   3.004
 8028W        W15244   8.820   0.227  10.286
 8029W        W15245   9.535  10.997   2.311
 8030W        W15246   1.964  13.679   0.648
 8031W        W15247  12.838   7.373  10.956
 8032W        W15248   1.575  10.945  11.658
 8033W        W15249   0.702  12.385   2.053
 8034W        W15250   7.412   6.675   9.279
 8035W        W15251  11.244  11.635  10.535
 8036W        W15252   9.699   0.401   2.849
 8037W        W15253  11.458  12.263   9.936
 8038W        W15254   7.084  13.409  11.022
 8039W        W15255   3.994  11.535   3.385
 8040W        W15256   0.849   7.592   3.574
 8041W        W15257   8.615   9.402   8.651
 8042W        W15258   4.392   6.921  11.802
 8043W        W15259   2.636   3.477   9.673
 8044W        W15260  13.343  13.669   0.547
 8045W        W15261   5.957   9.809   9.656
 8046W        W15262   2.993   1.687   9.271
 8047W        W15263   9.732  13.139   7.926
 8048W        W15264   4.803   6.002   8.224
 8049W        W15265   5.548   1.959   8.996
 8050W        W15266  13.787   3.351   1.693
 8051W        W15267   3.113   8.975   1.050
 8052W        W15268   9.832   2.267   0.502
 8053W        W15269   2.881  12.012   1.892
 8054W        W15270  13.771   8.615   8.941
 8055W        W15271  13.510   8.330   0.399
 8056W        W15272   9.868   1.172   9.014
 8057W        W15273   8.204   9.794   7.909
 8058W        W15274   2.146  12.193   0.900
 8059W        W15275   5.866   7.543   2.601
 8060W        W15276   9.524   6.694  10.586
 8061W        W15277   0.461  11.444   4.033
 8062W        W15278  10.959   8.250   3.341
 8063W        W15279  11.575   6.348   1.760
 8064W        W15280   7.880   8.175  10.579
 8065W        W15281  12.247   8.271  11.089
 8066W        W15282   1.127   3.728   0.215
 8067W        W15283   3.729   8.518   9.755
 8068W        W15284   4.592   1.809  11.210
 8069W        W15285   6.555   5.899  10.164
 8070W        W15286   9.074  13.155   9.760
 8071W        W15287   1.868   1.667   1.724
 8072W        W15288   6.034   5.641   0.793
 8073W        W15289   5.463  10.963   3.229
 8074W        W15290  11.853   2.165   3.566
 8075W        W15291  12.015   2.564   8.690
 8076W        W15292   4.032   5.970   1.315
 8077W        W15293   3.229  11.720  10.221
 8078W        W15294   0.098  10.039   2.006
 8079W        W15295   1.916   2.164  10.644
 8080W        W15296   4.379   9.090  11.899
 8081W        W15297  11.087   2.809   0.670
 8082W        W15298   5.323   6.132   2.574
 8083W        W15299   8.039  10.614  10.039
 8084W        W15300   0.368  13.584   0.211
 8085W        W15301   5.791   1.743  11.707
 8086W        W15302   6.718   0.029   8.120
 8087W        W15303  11.532  10.282   3.472
 8088W        W15304  10.881   6.071   8.102
 8089W        W15305  13.881   2.229  11.091
 8090W        W15306  10.421   2.068   1.254
 8091W        W15307  11.823   2.402   2.596
 8092W        W15308   5.534   4.054   2.939
 8093W        W15309   8.792   6.364   2.963
 8094W        W15310   0.093  13.834   9.686
 8095W        W15311   6.147   3.456   8.690
 8096W        W15312   8.102   0.681   1.975
 8097W        W15313   6.261   7.273   1.853
 8098W        W15314  11.620   7.664   2.167
 8099W        W15315   0.268   3.932   1.103
 8100W        W15316   0.627   9.031   8.913
 8101W        W15317   4.955   4.591  10.996
 8102W        W15318   9.425   8.032   3.341
 8103W        W15319   3.987   9.238   9.141
 8104W        W15320  10.254   6.391   2.020
 8105W        W15321  13.784   5.831   0.649
 8106W        W15322   0.747  13.302   3.183
 8107W        W15323   5.831   9.158   9.074
 8108W        W15324   1.393   4.696   9.164
 8109W        W15325   6.740   3.487   9.509
 8110W        W15326   1.742   4.635   2.616
 8111W        W15327   6.905  10.586   3.355
 8112W        W15328   4.304  13.509   0.000
 8113W        W15329  12.757  13.570   1.416
 8114W        W15330  11.721  13.482   8.481
 8115W        W15331   4.821   8.709   2.886
 8116W        W15332  11.169  11.441   2.635
 8117W        W15333   7.202   9.943  11.958
 8118W        W15334   2.077   5.610   8.168
 8119W        W15335   9.447   4.656   3.919
 8120W        W15336  12.807   8.911   1.107
 8121W        W15337   1.527  11.163   9.610
 8122W        W15338  10.126  13.785  10.716
 8123W        W15339   2.128   4.304   8.617
 8124W        W15340   7.756   0.633   8.832
 8125W        W15341  11.340   0.275   2.729
 8126W        W15342  11.537   8.520   1.203
 8127W        W15343   1.092   3.264  11.118
 8128W        W15344   6.186  10.518   1.672
 8129W        W15345   1.909   3.180  10.412
 8130W        W15346   7.551  10.305  11.859
 8131W        W15347   6.235   5.658  10.937
 8132W        W15348   2.195  11.450   9.284
 8133W        W15349   4.356   1.348   0.418
 8134W        W15350  13.095   6.629   9.860
 8135W        W15351   8.407   8.199   0.484
 8136W        W15352   0.112   3.415   2.176
 8137W        W15353   9.724   3.233   1.703
 8138W        W15354  13.607   6.524   0.513
 8139W        W15355   1.259  12.958   1.560
 8140W        W15356   1.426   0.324  11.709
 8141W        W15357  10.699   5.999  10.907
 8142W        W15358  11.588   7.228   3.075
 8143W        W15359  10.137   1.398   9.652
 8144W        W15360  12.002   2.481   0.100
 8145W        W15361   8.261  11.041   0.539
 8146W        W15362   5.862   8.051   4.160
 8147W        W15363  10.694   8.606   0.742
 8148W        W15364   6.369   0.901  11.795
 8149W        W15365  10.544   5.274   8.251
 8150W        W15366  10.016   6.238   3.297
 8151W        W15367   0.292   8.773   9.902
 8152W        W15368   1.047   7.004   0.719
 8153W        W15369  10.999  11.269   3.150
 8154W        W15370   2.902  13.062   3.355
 8155W        W15371  11.869   3.329   1.712
 8156W        W15372   0.228  11.435   7.887
 8157W        W15373   8.562   9.948   1.224
 8158W        W15374  13.021   5.951   2.317
 8159W        W15375  13.582   4.046  10.695
 8160W        W15376   2.503   2.872   2.973
 8161W        W15377   6.134   8.579   8.369
 8162W        W15378  10.021   0.338   9.833
 8163W        W15379   9.856   9.480  10.615
 8164W        W15380   6.155   8.380   9.506
 8165W        W15381   3.895  12.167   9.792
 8166W        W15382   9.583   5.111  11.494
 8167W        W15383   4.433   2.488  10.649
 8168W        W15384   8.392   6.743  11.616
 8169W        W15385   2.728  10.176   2.186
 8170W        W15386   7.683   0.336   2.866
 8171W        W15387   8.591   8.358   0.951
 8172W        W15388   2.394   7.243   2.433
 8173W        W15389   5.646   1.753   8.546
 8174W        W15390  12.989   4.184  10.049
 8175W        W15391   0.604  12.181   9.972
 8176W        W15392   0.812   1.956   4.029
 8177W        W15393   0.565   2.601   0.640
 8178W        W15394   2.125   1.304   9.332
 8179W        W15395   2.673   2.566  11.857
 8180W        W15396   2.598   4.336   4.046
 8181W        W15397   6.397  11.066   9.719
 8182W        W15398  13.232   5.007  11.942
 8183W        W15399   4.373   9.826  11.309
 8184W        W15400   5.195  10.999   9.882
 8185W        W15401   2.518   7.365   1.931
 8186W        W15402  11.930   9.731   9.551
 8187W        W15403   3.741   0.643   2.366
 8188W        W15404   1.382   3.463   1.365
 8189W        W15405   3.333   9.457   4.202
 8190W        W15406  11.605   2.682   8.979
 8191W        W15407   1.745   6.548   8.422
 8192W        W15408   4.953   8.108   2.670
 8193W        W15409  12.994   2.053   2.191
 8194W        W15410   3.811  13.227   8.494
 8195W        W15411   7.699   1.282   4.370
 8196W        W15412  11.191   6.287  11.898
 8197W        W15413   3.522   3.119   9.633
 8198W        W15414   2.865   7.806   1.058
 8199W        W15415   9.854  13.332  10.838
 8200W        W15416   5.276   8.154   1.827
 8201W        W15417  13.281   1.305   8.551
 8202W        W15418   1.069   2.473   9.964
 8203W        W15419   8.010  11.112  10.182
 8204W        W15420   2.360   2.693   0.216
 8205W        W15421   2.529   1.367   1.267
 8206W        W15422  10.328   2.603   1.239
 8207W        W15423   2.900   7.378   2.313
 8208W        W15424   9.744   4.770   0.799
 8209W        W15425  13.703   3.194   3.511
 8210W        W15426   4.143   8.211   3.197
 8211W        W15427  10.699  12.721   1.841
 8212W        W15428   3.367  13.107  11.264
 8213W        W15429   4.249  11.768   0.196
 8214W        W15430   3.907   2.527   0.246
 8215W        W15431   9.080   6.806   2.139
 8216W        W15432   3.088   7.239   9.136
 8217W        W15433   7.080  12.998   9.951
 8218W        W15434   8.004   7.056  10.395
 8219W        W15435   1.186   7.845  10.082
 8220W        W15436   0.490   5.744  10.136
 8221W        W15437   1.499  12.610  10.928
 8222W        W15438   4.770   6.112   8.996
 8223W        W15439  12.387  11.149  11.501
 8224W        W15440  12.680  10.436   8.836
 8225W        W15441   5.057   1.172  10.157
 8226W        W15442   6.591   9.639   3.391
 8227W        W15443  11.476   1.835   3.545
 8228W        W15444   7.416   3.975   3.729
 8229W        W15445   1.672   0.711   3.965
 8230W        W15446   8.909   3.617  10.904
 8231W        W15447  11.402   3.140   2.567
 8232W        W15448   9.672   5.703   0.225
 8233W        W15449   1.505   1.402   8.214
 8234W        W15450   8.774   7.123   3.656
 8235W        W15451   4.538   7.523   9.636
 8236W        W15452   8.218   9.572   2.604
 8237W        W15453  10.278   3.648   2.196
 8238W        W15454   2.625  12.077   1.030
 8239W        W15455  12.418  12.096   9.227
 8240W        W15456   7.940   9.461   8.751
 8241W        W15457   6.781  10.460   1.777
 8242W        W15458   5.918   3.616  10.208
 8243W        W15459   2.289   6.410   3.129
 8244W        W15460   9.106   3.797   9.474
 8245W        W15461   0.852   6.293  10.981
 8246W        W15462  13.759   9.725   8.426
 8247W        W15463  12.313  13.261   8.604
 8248W        W15464   6.821   9.492   1.746
 8249W        W15465   4.719  11.574   9.418
 8250W        W15466   3.702   8.732   2.538
 8251W        W15467   1.320  12.333  11.289
 8252W        W15468   4.329  10.562   0.811
 8253W        W15469   4.108  13.302   2.751
 8254W        W15470  11.624  10.910   2.079
 8255W        W15471   2.469  12.137   9.931
 8256W        W15472   4.397   7.847  11.873
 8257W        W15473   9.078  11.960   2.899
 8258W        W15474   5.415   0.994   9.411
 8259W        W15475   6.638   5.520  11.207
 8260W        W15476   6.753   0.270   0.473
 8261W        W15477   2.466   9.074   8.306
 8262W        W15478  10.346   3.950   9.629
 8263W        W15479   1.244   9.117   3.412
 8264W        W15480   9.084   0.946   0.020
 8265W        W15481   7.095   6.873   9.625
 8266W        W15482   2.520   1.916   1.838
 8267W        W15483  10.495   0.475  11.216
 8268W        W15484   4.100   2.569   0.752
 8269W        W15485   1.325   0.057  10.830
 8270W        W15486   0.099  11.753  11.131
 8271W        W15487   3.597   0.354   1.455
 8272W        W15488  13.887   3.347  11.873
 8273W        W15489   7.975  12.846   9.163
 8274W        W15490   0.163   0.132   1.095
 8275W        W15491  13.797   4.064  10.231
 8276W        W15492   7.107  12.144   2.463
 8277W        W15493   7.517   7.848   9.353
 8278W        W15494   1.887   4.439   3.063
 8279W        W15495   5.309   1.792   3.290
 8280W        W15496   2.551  10.641   2.078
 8281W        W15497   8.602  12.422  11.749
 8282W        W15498   4.961  10.964   2.170
 8283W        W15499   7.849   2.293   0.541
 8284W        W15500   2.252   3.377  11.676
 8285W        W15501   9.152   5.621   9.845
 8286W        W15502   3.959  12.797   9.651
 8287W        W15503   2.592  10.979  10.327
 8288W        W15504   6.504   9.391   8.901
 8289W        W15505   0.419   4.986   1.548
 8290W        W15506   1.927   0.818   9.537
 8291W        W15507   5.539  10.799  11.216
 8292W        W15508  13.007  13.189   0.698
 8293W        W15509   5.753  13.434   1.983
 8294W        W15510   0.179   9.741  11.889
 8295W        W15511  13.178   4.718   8.969
 8296W        W15512  12.015   3.662   0.878
 8297W        W15513   8.528   5.068   9.347
 8298W        W15514   3.699   0.113   0.599
 8299W        W15515   7.994   3.504   0.608
 8300W        W15516   5.515   4.150   7.822
 8301W        W15517   5.271   7.319   1.472
 8302W        W15518   2.894   8.868   9.999
 8303W        W15519   6.728   5.594   9.777
 8304W        W15520   5.754  12.300   4.092
 8305W        W15521   5.823   8.321   3.701
 8306W        W15522   3.407   8.508   8.940
 8307W        W15523   1.850  11.889   2.508
 8308W        W15524  10.474  13.226   3.014
 8309W        W15525   5.226   4.993  11.333
 8310W        W15526   3.040  12.867  11.568
 8311W        W15527   4.849   1.211   0.313
 8312W        W15528   1.159   9.894   9.464
 8313W        W15529   8.290   4.137   9.566
 8314W        W15530  11.861   3.787   9.524
 8315W        W15531   8.568  10.982   2.013
 8316W        W15532   3.730   4.672   0.851
 8317W        W15533   9.869   1.449   0.889
 8318W        W15534  10.302   7.003   1.397
 8319W        W15535  11.409  13.958   9.839
 8320W        W15536   5.229  12.205  10.221
 8321W        W15537   1.538  10.054   2.743
 8322W        W15538  10.577   3.024   2.716
 8323W        W15539   4.773   2.558   1.376
 8324W        W15540   5.418   0.522   9.622
 8325W        W15541  11.429  11.794   8.762
 8326W        W15542   0.503   7.568   2.650
 8327W        W15543   0.300  12.412   9.637
 8328W        W15544   3.979   2.884   2.214
 8329W        W15545  10.947   1.434   4.271
 8330W        W15546   0.664   1.447   4.019
 8331W        W15547  13.207   1.471  11.195
 8332W        W15548   6.049   2.742   9.534
 8333W        W15549   9.036   1.079   8.655
 8334W        W15550   2.100  10.917  10.433
 8335W        W15551   8.375  12.451   2.896
 8336W        W15552  12.044  10.391   3.358
 8337W        W15553   4.258  10.743  11.129
 8338W        W15554   3.974   9.046  10.714
 8339W        W15555   9.332  11.780   9.504
 8340W        W15556   2.369   2.000   3.952
 8341W        W15557   4.876  11.687   0.405
 8342W        W15558   7.516   0.951   7.780
 8343W        W15559   3.015   9.950   1.835
 8344W        W15560   6.883   3.683   0.632
 8345W        W15561  10.209  13.610   2.785
 8346W        W15562  13.228   7.776  10.508
 8347W        W15563   8.203  12.727   7.468
 8348W        W15564   5.872   5.370   8.507
 8349W        W15565   3.042  11.012  10.075
 8350W        W15566  13.668   3.196  11.012
 8351W        W15567  12.785  11.179   0.849
 8352W        W15568   8.171  13.487   4.303
 8353W        W15569   8.531   4.097   0.091
 8354W        W15570   8.760  12.549   0.632
 8355W        W15571  10.286   6.546  11.854
 8356W        W15572   4.544   7.159  10.509
 8357W        W15573   4.719  12.205   8.821
 8358W        W15574   3.802   7.883   3.040
 8359W        W15575   6.326   9.996   9.296
 8360W        W15576   9.271   0.111  10.542
 8361W        W15577  12.271  10.839   8.825
 8362W        W15578  10.221  13.922   8.211
 8363W        W15579  13.903  11.064   0.246
 8364W        W15580   8.355   2.680   2.982
 8365W        W15581   4.394  11.317   2.316
 8366W        W15582   0.707   4.119   1.787
 8367W        W15583   8.603   9.526   0.903
 8368W        W15584  11.334   2.146   8.949
 8369W        W15585   1.669   2.853   0.633
 8370W        W15586  12.821  13.086  10.525
 8371W        W15587  11.598   6.246  10.897
 8372W        W15588  13.780   8.103   2.426
 8373W        W15589  12.818   1.128  10.230
 8374W        W15590  10.151  12.665   1.164
 8375W        W15591   9.101   8.210   0.010
 8376W        W15592   7.296   5.594  11.932
 8377W        W15593   0.134   7.381   3.899
 8378W        W15594   0.488   2.160   3.328
 8379W        W15595   6.643   3.552   9.026
 8380W        W15596   8.074  10.775   2.059
 8381W        W15597   4.565   1.713   9.043
 8382W        W15598   7.037   5.142  11.979
 8383W        W15599   0.050   2.310   3.523
 8384W        W15600  11.574  12.546  10.367
 8385W        W15601   9.263  12.654   0.112
 8386W        W15602   9.894   0.039  11.145
 8387W        W15603  10.706   6.146   3.421
 8388W        W15604   3.937   7.834   9.193
 8389W        W15605   0.329   8.439   0.713
 8390W        W15606   0.715  11.718  10.140
 8391W        W15607  13.042  10.002   1.447
 8392W        W15608   4.454   9.738  11.841
 8393W        W15609   3.545   1.937   3.599
 8394W        W15610   4.057   3.386  10.346
 8395W        W15611   1.861   5.030   9.244
 8396W        W15612   6.073   2.147   9.901
 8397W        W15613   4.325   7.687   8.418
 8398W        W15614  10.230   0.341   3.813
 8399W        W15615   2.396   8.270  11.175
 8400W        W15616   7.024  10.006   0.900
 8401W        W15617   5.834   2.363   9.022
 8402W        W15618  12.793  10.356   9.710
 8403W        W15619   8.667   4.392   3.215
 8404W        W15620   8.184  12.478  11.456
 8405W        W15621  12.921   8.489   2.843
 8406W        W15622   1.302   5.165   8.631
 8407W        W15623  13.585  11.629   0.462
 8408W        W15624  10.952   0.797   0.989
 8409W        W15625  13.795  11.946   2.227
 8410W        W15626   3.943  10.872   3.376
 8411W        W15627  10.551   4.261   8.386
 8412W        W15628  10.403  11.925   8.754
 8413W        W15629   7.917   2.421  11.551
 8414W        W15630   8.987   2.158   3.342
 8415W        W15631  13.555   5.688   8.515
 8416W        W15632  13.028   6.226  10.175
 8417W        W15633   4.759   7.195  11.565
 8418W        W15634   1.089   7.687   8.910
 8419W        W15635   4.563   3.533   8.671
 8420W        W15636   4.314  12.065  11.766
 8421W        W15637   8.298   0.102   1.757
 8422W        W15638  10.459   7.298   8.884
 8423W        W15639  13.233   8.076   1.349
 8424W        W15640  11.842  12.121  10.261
 8425W        W15641  11.867   4.518   9.551
 8426W        W15642   0.403   1.701  10.399
 8427W        W15643   9.231   6.206  11.978
 8428W        W15644   1.875   5.151   3.667
 8429W        W15645   6.998   0.134   0.018
 8430W        W15646   9.690   9.737   8.729
 8431W        W15647  12.189   5.926  11.774
 8432W        W15648   9.892  10.835   9.123
 8433W        W15649   6.758   4.471   8.999
 8434W        W15650   4.145  10.424   2.207
 8435W        W15651  11.690   2.491   1.245
 8436W        W15652   4.459  10.707  11.613
 8437W        W15653   0.442   6.952   0.714
 8438W        W15654   8.045  11.934   0.271
 8439W        W15655   0.675   4.568   1.545
 8440W        W15656   5.618  10.166   9.872
 8441W        W15657   0.159   5.114   1.142
 8442W        W15658   0.887   2.827   1.552
 8443W        W15659   3.066   8.639  10.759
 8444W        W15660  12.289  13.533   3.083
 8445W        W15661   3.365   8.267  10.620
 8446W        W15662   1.204  11.920   9.404
 8447W        W15663  12.943   0.516   9.662
 8448W        W15664   1.889  10.730   8.683
 8449W        W15665   8.857   6.783   1.227
 8450W        W15666   6.933   3.703  10.353
 8451W        W15667   1.139   9.061   0.326
 8452W        W15668   0.728   1.073   1.738
 8453W        W15669   2.286   8.516   2.717
 8454W        W15670  13.507   2.862  10.660
 8455W        W15671  11.495  11.377  11.081
 8456W        W15672   8.487   0.763   8.939
 8457W        W15673   5.058   2.760   1.026
 8458W        W15674  11.606   8.507  11.555
 8459W        W15675   5.432  12.303   0.693
 8460W        W15676   0.475   4.585   0.156
 8461W        W15677   6.510   8.291  11.109
 8462W        W15678   2.227   3.993   2.217
 8463W        W15679   8.514  11.523   0.365
 8464W        W15680  13.312   5.585  11.046
 8465W        W15681  11.359   4.726   9.005
 8466W        W15682   9.317  12.986   1.818
 8467W        W15683   9.760   1.772   2.833
 8468W        W15684  12.039   6.655   1.704
 8469W        W15685   5.605   0.794   7.807
 8470W        W15686   3.512  13.272   1.955
 8471W        W15687   7.247  12.014   3.389
 8472W        W15688   9.042   9.232   0.824
 8473W        W15689  10.021   4.170   3.488
 8474W        W15690   1.222   5.251   8.156
 8475W        W15691   5.731  13.903  10.780
 8476W        W15692  10.863   8.900   1.799
 8477W        W15693   9.818   0.737  10.742
 8478W        W15694   0.755   5.401   3.232
 8479W        W15695   4.364  12.541   2.623
 8480W        W15696   5.986  13.406   0.415
 8481W        W15697   3.358   0.246   2.319
 8482W        W15698   3.618   2.711   8.873
 8483W        W15699   5.376   6.428  11.630
 8484W        W15700  12.871   7.497   1.849
 8485W        W15701   3.915  11.772   1.227
 8486W        W15702  12.795  10.423   2.440
 8487W        W15703   2.354   6.670  10.017
 8488W        W15704   3.150   6.318  11.667
 8489W        W15705  11.266  13.320   8.587
 8490W        W15706   8.406   5.548  11.971
 8491W        W15707   2.602   0.525  10.289
 8492W        W15708   9.641   9.951  10.619
 8493W        W15709   9.788   2.666   1.181
 8494W        W15710   2.568   4.836   4.148
 8495W        W15711   0.751   3.638   0.524
 8496W        W15712   8.734   2.464   1.932
 8497W        W15713   1.500  13.960   0.611
 8498W        W15714   0.092   8.321   3.949
 8499W        W15715   9.476   5.288   2.347
 8500W        W15716   3.204   2.543   3.051
 8501W        W15717  13.901  13.698  10.248
 8502W        W15718   1.727   7.615   0.383
 8503W        W15719   6.551   4.084   0.591
 8504W        W15720   6.201   6.618   0.034
 8505W        W15721  10.435   8.581  10.855
 8506W        W15722   2.510   2.429   8.467
 8507W        W15723   5.286   8.384   8.783
 8508W        W15724  11.105   2.672   0.086
 8509W        W15725  10.181   3.285   2.551
 8510W        W15726  10.386   4.393   2.754
 8511W        W15727   9.109   4.248   0.867
 8512W        W15728   5.243   0.048  10.907
 8513W        W15729   1.676   5.804   1.095
 8514W        W15730   4.323   6.317  10.187
 8515W        W15731   1.679  11.636   8.535
 8516W        W15732  13.511   9.404   2.066
 8517W        W15733   4.724   5.408  10.322
 8518W        W15734  12.231   9.068   8.891
 8519W        W15735   8.562   4.485   1.852
 8520W        W15736  11.080   5.785   2.269
 8521W        W15737   5.879   4.578   9.540
 8522W        W15738   7.853  10.962   9.678
 8523W        W15739   3.956   1.355   9.415
 8524W        W15740   3.961   2.397   8.662
 8525W        W15741   6.428   1.950   7.991
 8526W        W15742  13.768   1.041   1.851
 8527W        W15743  11.447   8.371  10.660
 8528W        W15744  10.773   8.661  11.839
 8529W        W15745   0.791  13.079   0.799
 8530W        W15746  13.736  11.434   3.050
 8531W        W15747  13.379   7.896  11.064
 8532W        W15748  12.402   3.058  10.972
 8533W        W15749   2.256   0.716   7.544
 8534W        W15750   1.883   8.105   0.604
 8535W        W15751   4.810  10.299   1.617
 8536W        W15752   7.109  10.339  10.700
 8537W        W15753   0.422   9.662   1.920
 8538W        W15754   9.948   1.044  11.168
 8539W        W15755   9.723   5.006  11.969
 8540W        W15756   3.608   6.572  11.004
 8541W        W15757   6.933  10.376  11.988
 8542W        W15758   0.048   1.473   0.510
 8543W        W15759   6.984   2.218  10.543
 8544W        W15760   1.954   9.134   0.639
 8545W        W15761   0.900   0.424   0.439
 8546W        W15762   7.795   6.485   9.013
 8547W        W15763   4.898  11.158  10.739
 8548W        W15764   6.627   5.481   9.039
 8549W        W15765   5.794   1.726   1.985
 8550W        W15766   4.007   1.564   2.729
 8551W        W15767   8.430   9.509   1.465
 8552W        W15768  13.129  11.220   8.498
 8553W        W15769   5.425   3.528   0.178
 8554W        W15770   7.658   2.152   8.740
 8555W        W15771   7.592   6.849   1.439
 8556W        W15772   6.306  13.087  11.804
 8557W        W15773   5.561  10.216  11.523
 8558W        W15774  13.475   7.847   2.762
 8559W        W15775   6.396   5.281   9.495
 8560W        W15776   4.543   5.667   9.173
 8561W        W15777   7.813   1.092   2.672
 8562W        W15778   7.167   3.207   1.728
 8563W        W15779   0.064  10.473  10.126
 8564W        W15780   0.270  12.199  11.377
 8565W        W15781   7.791   0.003  11.364
 8566W        W15782   2.271   4.677   1.778
 8567W        W15783   3.179   9.989   2.344
 8568W        W15784   1.270  10.567   1.215
 8569W        W15785   2.256   7.908  11.861
 8570W        W15786   4.710   5.163   2.219
 8571W        W15787  11.464   5.657  10.377
 8572W        W15788   8.350   0.546   3.430
 8573W        W15789   2.139   2.057   2.698
 8574W        W15790   6.274   2.880   3.372
 8575W        W15791   3.384   9.496   0.512
 8576W        W15792   0.849   6.678   2.892
 8577W        W15793  10.931   8.087   1.882
 8578W        W15794   1.989   4.882   9.725
 8579W        W15795  10.244  13.573  10.087
 8580W        W15796   9.400  11.994   9.038
 8581W        W15797   8.203   5.160   3.521
 8582W        W15798   9.924   8.954   3.092
 8583W        W15799   4.330   1.490  11.498
 8584W        W15800   9.887   3.788   9.438
 8585W        W15801   6.306   7.444   0.237
 8586W        W15802  12.013  12.712  10.234
 8587W        W15803   8.821   4.088   2.250
 8588W        W15804   8.020   8.422   0.708
 8589W        W15805   6.195   3.788   2.458
 8590W        W15806   8.637  11.016   3.325
 8591W        W15807   7.290   9.918   9.128
 8592W        W15808  12.573  13.964   3.780
 8593W        W15809   4.349   2.626   1.971
 8594W        W15810   4.408  11.298   1.802
 8595W        W15811   3.127  13.524   1.724
 8596W        W15812   6.275  10.668   9.397
 8597W        W15813   3.871   6.393   2.629
 8598W        W15814  12.810  13.498   3.145
 8599W        W15815   6.465   9.880   3.836
 8600W        W15816   2.728   1.202   8.047
 8601W        W15817   8.650   1.840  10.789
 8602W        W15818   3.523   5.503   0.110
 8603W        W15819   9.413   3.555   0.579
 8604W        W15820  12.043   0.802   0.277
 8605W        W15821   7.607   0.570   0.650
 8606W        W15822  12.138   9.821  11.661
 8607W        W15823   5.325   9.664  10.389
 8608W        W15824   9.477   9.697   3.631
 8609W        W15825  12.144   4.724   7.669
 8610W        W15826   3.556   1.156   9.631
 8611W        W15827   2.132   3.133   0.111
 8612W        W15828  12.570   8.687   9.868
 8613W        W15829  13.538   8.152   9.011
 8614W        W15830   3.147  10.219   0.197
 8615W        W15831  12.951   6.263   3.592
 8616W        W15832  11.296  11.820  11.009
 8617W        W15833   0.500   4.176   9.849
 8618W        W15834   5.468   8.506   2.181
 8619W        W15835   7.298   8.501   8.181
 8620W        W15836   9.886  12.716   8.595
 8621W        W15837   1.621   4.502   7.871
 8622W        W15838   0.628   7.365  11.906
 8623W        W15839   4.441  10.995   8.972
 8624W        W15840   0.478   2.640   3.524
 8625W        W15841  12.541  13.809   1.037
 8626W        W15842   5.769   8.085   9.805
 8627W        W15843  11.404   2.204  11.457
 8628W        W15844  11.822  11.037  10.918
 8629W        W15845  10.121   2.872   0.305
 8630W        W15846   2.268   2.718   1.576
 8631W        W15847   1.808   4.548   0.886
 8632W        W15848   4.485   6.349   3.185
 8633W        W15849  10.150   2.094   8.625
 8634W        W15850   2.971   8.916   1.597
 8635W        W15851   4.809  12.533   9.647
 8636W        W15852   7.089   4.551   1.694
 8637W        W15853   3.092  12.810   0.066
 8638W        W15854   2.825   3.522   0.398
 8639W        W15855  11.707  11.786   0.544
 8640W        W15856  10.439   6.874   9.787
 8641W        W15857   2.823   8.318   2.637
 8642W        W15858   2.906   9.953  11.730
 8643W        W15859   0.236   4.298  10.251
 8644W        W15860  11.319   9.461   8.778
 8645W        W15861   1.114   4.743   1.249
 8646W        W15862   6.560   1.003  10.097
 8647W        W15863   1.808   3.668  10.560
 8648W        W15864   7.601   5.658   1.386
 8649W        W15865   0.223   5.843   9.176
 8650W        W15866  12.839   5.388   9.361
 8651W        W15867  10.604  12.919   3.402
 8652W        W15868   1.876   1.908   3.933
 8653W        W15869   7.463   0.354  10.401
 8654W        W15870   0.223   8.790  10.538
 8655W        W15871   0.013   0.592  11.650
 8656W        W15872   3.227   6.576   9.723
 8657W        W15873   3.470   7.898   9.021
 8658W        W15874   4.968  11.552   3.312
 8659W        W15875   5.557   4.997   0.702
 8660W        W15876   4.835   9.101   8.189
 8661W        W15877  12.143   3.358   0.193
 8662W        W15878   9.814   7.057  10.378
 8663W        W15879   8.082  13.665   3.615
 8664W        W15880   3.420   3.679   9.601
 8665W        W15881   7.930   2.693   0.021
 8666W        W15882   8.882   7.095   2.904
 8667W        W15883   1.390   0.619   1.236
 8668W        W15884   8.971   9.300   3.179
 8669W        W15885  13.216   5.829   7.704
 8670W        W15886  13.899  12.089   1.230
 8671W        W15887   2.233  12.350   3.365
 8672W        W15888   1.673   1.973   3.477
 8673W        W15889   4.851   2.430   8.512
 8674W        W15890   7.228  10.365   9.507
 8675W        W15891   9.154   3.273   2.569
 8676W        W15892   9.345  11.444   2.070
 8677W        W15893   1.858   9.814  11.410
 8678W        W15894  10.619  11.507   8.581
 8679W        W15895   4.756   6.562   0.808
 8680W        W15896   5.006  11.755  10.175
 8681W        W15897   9.531   7.019   4.152
 8682W        W15898   2.355  11.924   2.584
 8683W        W15899   6.008   7.845   3.238
 8684W        W15900   0.114   7.541  10.461
 8685W        W15901   9.037   5.118   3.334
 8686W        W15902   7.289   5.015   9.487
 8687W        W15903   3.563   8.219   3.351
 8688W        W15904   4.591   0.593   9.329
 8689W        W15905   2.701   8.172   9.331
 8690W        W15906   1.229   7.563   2.941
 8691W        W15907  12.896   0.179   7.768
 8692W        W15908   9.538   0.043   2.109
 8693W        W15909   7.967   4.170  10.937
 8694W        W15910   8.052   1.950   2.674
 8695W        W15911  12.655   9.900   4.307
 8696W        W15912  12.346   5.265  11.124
 8697W        W15913   4.451   5.855   8.698
 8698W        W15914  11.828   4.494   9.048
 8699W        W15915   7.682   9.074   1.643
 8700W        W15916  11.004  11.170   0.403
 8701W        W15917  13.513   5.387   7.716
 8702W        W15918   3.545   7.036   9.011
 8703W        W15919   7.295   9.465   0.023
 8704W        W15920   2.158  13.306   9.254
 8705W        W15921  10.027   0.756   2.092
 8706W        W15922   2.344   5.758   4.563
 8707W        W15923   4.953   6.468   2.553
 8708W        W15924   3.979   9.497   9.599
 8709W        W15925   5.184   9.352   0.190
 8710W        W15926   4.902   2.361   3.089
 8711W        W15927  12.649   1.983  11.861
 8712W        W15928   2.268   7.414  11.756
 8713W        W15929   7.673  13.156   1.920
 8714W        W15930  13.889  13.991  11.107
 8715W        W15931  11.238   8.574   3.573
 8716W        W15932   6.694  12.521   9.821
 8717W        W15933   6.940   3.817   3.631
 8718W        W15934   6.085  13.969   4.230
 8719W        W15935   5.335  13.182   2.060
 8720W        W15936   5.939  11.869   0.547
 8721W        W15937   4.241  12.997  10.242
 8722W        W15938   6.347   6.257  11.714
 8723W        W15939   6.145   4.226  11.414
 8724W        W15940  13.998   5.525   7.740
 8725W        W15941  11.377   4.004   1.407
 8726W        W15942   8.188   4.501   3.137
 8727W        W15943   3.887  12.019   3.551
 8728W        W15944  10.313   6.893   3.853
 8729W        W15945   6.466   3.940   3.550
 8730W        W15946   2.202   7.173  10.034
 8731W        W15947   7.820  11.103   0.783
 8732W        W15948   6.568   2.822   0.556
 8733W        W15949   2.102  12.097  11.624
 8734W        W15950   4.156   6.218   8.554
 8735W        W15951   9.548   1.891   9.646
 8736W        W15952   0.684   7.144   2.822
 8737W        W15953   6.485   5.237  10.741
 8738W        W15954   3.265   8.561   0.784
 8739W        W15955   1.726  12.912  10.552
 8740W        W15956  13.250  12.977  10.306
 8741W        W15957   9.181   7.877   8.611
 8742W        W15958  10.887   3.312  11.475
 8743W        W15959  12.404   2.186  10.881
 8744W        W15960   4.279   1.266   0.910
 8745W        W15961   4.217   3.691  11.624
 8746W        W15962  12.843   6.163   1.006
 8747W        W15963   8.443   7.516   0.339
 8748W        W15964  12.441   1.744   2.840
 8749W        W15965   9.435   6.772   1.772
 8750W        W15966  11.556   4.634   1.055
 8751W        W15967   6.053   3.840   9.791
 8752W        W15968   1.342   1.955   1.590
 8753W        W15969   9.822  10.950   9.718
 8754W        W15970   0.838  13.805  10.406
 8755W        W15971   0.984   8.342   3.511
 8756W        W15972  10.954   6.171  11.450
 8757W        W15973   2.689   0.892  10.627
 8758W        W15974   6.622  13.277   2.447
 8759W        W15975   7.944   8.135   1.697
 8760W        W15976   7.033   5.193  11.442
 8761W        W15977   0.839   7.676   0.270
 8762W        W15978   0.562   1.077   9.790
 8763W        W15979   6.966  12.099   9.842
 8764W        W15980   6.214   5.263   0.475
 8765W        W15981   7.726   8.555  11.951
 8766W        W15982  13.525   6.563   1.028
 8767W        W15983   3.180  13.090   0.834
 8768W        W15984   9.732   9.313   9.592
 8769W        W15985   2.639   0.716   7.910
 8770W        W15986  12.102   4.302   3.304
 8771W        W15987   2.759  13.580   8.638
 8772W        W15988  13.453   9.844   0.485
 8773W        W15989   6.640  10.801  11.122
 8774W        W15990   7.907   2.390  10.509
 8775W        W15991  12.494   5.046  11.641
 8776W        W15992   8.546   1.189   3.952
 8777W        W15993   1.844   4.072  11.773
 8778W        W15994   1.803   5.543   0.241
 8779W        W15995  12.392   4.540   9.513
 8780W        W15996   0.168   4.218   7.574
 8781W        W15997   3.188   6.813   2.438
 8782W        W15998   9.631  13.816  10.784
 8783W        W15999   0.122   5.030   9.596
 8784W        W16000  10.683   2.706   3.118
 8785W        W16001   9.184   9.976  10.852
 8786W        W16002   1.362   0.976   0.860
 8787W        W16003   2.734   7.833   7.988
 8788W        W16004  13.822   9.610  10.706
 8789W        W16005   1.344  13.559   0.079
 8790W        W16006   4.714   6.477   9.334
 8791W        W16007   2.468  12.178  11.983
 8792W        W16008  13.965   9.853  11.161
 8793W        W16009   1.381   9.836   0.707
 8794W        W16010   0.258  10.563   8.867
 8795W        W16011   6.231   1.953  11.819
 8796W        W16012   0.316  12.570  10.140
 8797W        W16013   1.621  10.325  10.793
 8798W        W16014   2.885   2.359  11.444
 8799W        W16015   2.757   5.767   3.763
 8800W        W16016   4.913  10.902  11.489
 8801W        W16017   2.057   7.899  11.043
 8802W        W16018  11.351   9.400   2.621
 8803W        W16019  13.784   7.807   2.020
 8804W        W16020   5.187   6.129   0.018
 8805W        W16021   6.964   5.856   1.907
 8806W        W16022   5.141  13.874   0.191
 8807W        W16023   8.218   6.152   3.522
 8808W        W16024   7.640   3.083   1.597
 8809W        W16025   2.389   0.992   9.680
 8810W        W16026   8.841   5.861   0.697
 8811W        W16027   1.476   9.886  11.766
 8812W        W16028   5.087  12.408  11.135
 8813W        W16029   9.543   2.123  11.238
 8814W        W16030   1.955  13.862   8.388
 8815W        W16031   7.838   9.577   3.312
 8816W        W16032   0.984   9.902  11.103
 8817W        W16033  11.469  11.617   1.342
 8818W        W16034   2.002   0.733  10.438
 8819W        W16035   6.446   9.209  10.934
 8820W        W16036  11.890  13.424   1.660
 8821W        W16037   6.102   2.981  11.196
 8822W        W16038   3.093  12.078   2.353
 8823W        W16039  13.822   9.502   0.678
 8824W        W16040   3.673   7.179  11.881
 8825W        W16041  13.924  10.900   9.068
 8826W        W16042   5.752  12.005  10.671
 8827W        W16043   2.304   9.483   7.971
 8828W        W16044  13.891   3.369   3.048
 8829W        W16045   0.666   5.635  11.480
 8830W        W16046  12.887  13.726   9.100
 8831W        W16047  11.085   3.139   0.278
 8832W        W16048   6.634   2.703   2.969
 8833W        W16049   8.899   4.281   2.754
 8834W        W16050   9.277   6.784   8.955
 8835W        W16051   6.845   7.364   3.510
 8836W        W16052   1.700   5.691   8.588
 8837W        W16053   3.750   9.495  10.820
 8838W        W16054  12.186  12.338  10.540
 8839W        W16055   7.552   4.117   0.882
 8840W        W16056  12.449   7.261   8.087
 8841W        W16057   9.126   1.401   9.969
 8842W        W16058   6.920   0.041   3.216
 8843W        W16059   2.134   5.202   2.014
 8844W        W16060   1.046   2.818   2.874
 8845W        W16061   6.325   7.273   0.725
 8846W        W16062   5.760   4.159   8.711
 8847W        W16063   8.983  13.186   3.040
 8848W        W16064   0.239   3.062   8.848
 8849W        W16065  11.239   1.114   0.729
 8850W        W16066  13.168   1.598   8.153
 8851W        W16067  11.499   7.588   2.710
 8852W        W16068   6.297  11.503   8.347
 8853W        W16069   3.604  12.246  11.370
 8854W        W16070   4.285   8.991   8.118
 8855W        W16071  11.584  13.701  11.892
 8856W        W16072  11.703  12.559   1.353
 8857W        W16073   8.429   6.984  10.128
 8858W        W16074   7.550   9.324  11.579
 8859W        W16075  10.826   6.908   3.912
 8860W        W16076   6.003   8.102   9.109
 8861W        W16077   0.177  13.653   1.239
 8862W        W16078   0.889  11.349  10.434
 8863W        W16079   8.716  11.068   0.261
 8864W        W16080  13.758  12.707   8.656
 8865W        W16081   8.145   5.845   2.370
 8866W        W16082   3.577   7.999  11.685
 8867W        W16083   4.962   1.679   2.432
 8868W        W16084   9.888   2.960   8.906
 8869W        W16085   2.744   3.574  10.816
 8870W        W16086   8.166   4.418   9.140
 8871W        W16087   6.319   8.965   8.706
 8872W        W16088  12.716  12.786   1.062
 8873W        W16089  11.336  10.074   0.590
 8874W        W16090   7.934  10.129   9.899
 8875W        W16091   8.255   8.145   8.912
 8876W        W16092   8.491   9.450  10.281
 8877W        W16093   2.039  13.806   3.646
 8878W        W16094   9.132   9.692  10.064
 8879W        W16095   2.362   7.701   3.224
 8880W        W16096   6.566   4.558   0.444
 8881W        W16097   1.458   8.960   8.846
 8882W        W16098  10.552   0.801  11.892
 8883W        W16099   5.955  12.989   9.230
 8884W        W16100  10.605   2.172  11.248
 8885W        W16101   7.323   2.939   1.228
 8886W        W16102  13.561   0.397   2.656
 8887W        W16103   0.292   6.519   3.446
 8888W        W16104   4.711   8.239   0.015
 8889W        W16105   5.829   2.614   9.998
 8890W        W16106  13.601  13.756   8.881
 8891W        W16107   7.149  13.944   0.444
 8892W        W16108  12.944   2.604   8.969
 8893W        W16109   7.339  10.871   9.644
 8894W        W16110   2.299  13.507   1.370
 8895W        W16111   5.654   7.951   0.894
 8896W        W16112   1.100   2.752   2.020
 8897W        W16113  11.444  13.108  11.144
 8898W        W16114  12.848  13.815   2.305
 8899W        W16115   7.334   7.278   0.999
 8900W        W16116  12.659   6.936  10.762
 8901W        W16117   3.103   1.502  10.957
 8902W        W16118   4.100   6.081   9.797
 8903W        W16119   7.805  12.758   9.641
 8904W        W16120   4.972  13.470   2.356
 8905W        W16121   2.191   6.785   2.323
 8906W        W16122   3.144   8.336   3.063
 8907W        W16123   0.966   7.554   1.492
 8908W        W16124   4.854   8.638   8.908
 8909W        W16125  13.275   9.758   0.941
 8910W        W16126   4.711  12.828   0.804
 8911W        W16127   5.942   2.581   2.108
 8912W        W16128   3.399   7.726   1.277
 8913W        W16129  13.534  10.932   1.536
 8914W        W16130  12.483   6.315  10.151
 8915W        W16131   3.767   7.462   8.874
 8916W        W16132   6.911  12.277  11.128
 8917W        W16133   7.843   9.756  11.870
 8918W        W16134   7.397  12.228   2.896
 8919W        W16135   4.481   9.321   8.872
 8920W        W16136   5.175  11.021   8.893
 8921W        W16137  13.534   6.684   1.519
 8922W        W16138   1.569   3.057  11.224
 8923W        W16139  11.693   1.700   3.116
 8924W        W16140   1.459  12.233   2.688
 8925W        W16141   2.118   4.133   0.192
 8926W        W16142   8.715  12.630   1.162
 8927W        W16143  12.630  10.142   1.732
 8928W        W16144  11.059   9.186   0.478
 8929W        W16145   9.253   8.441  10.313
 8930W        W16146   8.046   4.774   1.441
 8931W        W16147  10.123   1.372   2.754
 8932W        W16148   0.286   3.189  10.537
 8933W        W16149  12.264   7.208   9.881
 8934W        W16150   1.931  12.961  10.035
 8935W        W16151   2.683   2.587   8.937
 8936W        W16152  10.396   3.456   9.831
 8937W        W16153   6.621  11.015   9.163
 8938W        W16154  11.062   5.533   8.880
 8939W        W16155   1.448  10.945   2.036
 8940W        W16156   5.611  10.687   9.825
 8941W        W16157  11.357   0.922   2.206
 8942W        W16158   3.127   1.168  10.586
 8943W        W16159   1.058  10.423  11.260
 8944W        W16160   5.015   7.862   3.114
 8945W        W16161  13.803   2.329   1.322
 8946W        W16162   2.174   2.968   0.650
 8947W        W16163   4.222   4.192   2.684
 8948W        W16164   7.354   2.286  11.351
 8949W        W16165   2.051   9.266   3.053
 8950W        W16166   6.507   9.133   3.379
 8951W        W16167  13.154   6.009  11.983
 8952W        W16168  13.673  13.339  11.595
 8953W        W16169   8.798   7.722   1.716
 8954W        W16170  13.391  10.219   1.728
 8955W        W16171  12.835   9.413   4.248
 8956W        W16172   0.321   8.193  11.244
 8957W        W16173   7.544   7.268   0.028
 8958W        W16174   0.174   8.876   2.498
 8959W        W16175   9.436   3.815   0.046
 8960W        W16176   2.649   7.558  10.494
 8961W        W16177   7.822  10.736  11.878
 8962W        W16178   7.551   2.140   2.729
 8963W        W16179  12.020  12.560  11.664
 8964W        W16180   6.404  11.877   9.190
 8965W        W16181   9.797   4.181  10.191
 8966W        W16182  11.839   0.399  11.288
 8967W        W16183   1.621   3.969   0.214
 8968W        W16184   1.063  11.204   3.207
 8969W        W16185   1.225   3.823   3.195
 8970W        W16186  12.787   7.873   2.213
 8971W        W16187   8.525   0.937  11.248
 8972W        W16188   3.983   4.426  10.310
 8973W        W16189  13.566   9.076   3.801
 8974W        W16190   3.458  10.973   0.807
 8975W        W16191   6.727   6.950   8.852
 8976W        W16192  12.261   9.956   3.635
 8977W        W16193   2.537   7.913   4.118
 8978W        W16194  10.957   4.315   1.843
 8979W        W16195   2.039   1.305   1.362
 8980W        W16196   4.762   1.454  10.441
 8981W        W16197  12.089   1.919   9.271
 8982W        W16198  12.627   8.303   9.557
 8983W        W16199  12.336   4.994   9.738
 8984W        W16200   4.876   8.419   9.669
 8985W        W16201   3.216   6.826   1.580
 8986W        W16202   7.864   7.204   2.704
 8987W        W16203   6.927   4.752   3.151
 8988W        W16204   7.867   8.869   3.033
 8989W        W16205   7.064  11.698   0.373
 8990W        W16206   4.206   4.791   1.073
 8991W        W16207   1.642  13.139   3.263
 8992W        W16208   7.431   9.610  11.137
 8993W        W16209   2.711   6.883  11.236
 8994W        W16210   5.402   7.451   3.743
 8995W        W16211  13.032  13.623   0.991
 8996W        W16212  11.284   0.064   0.663
 8997W        W16213   0.125  13.290   9.407
 8998W        W16214   4.216   0.996  11.314
 8999W        W16215   9.317  12.118  10.492
 9000W        W16216  11.259  12.099   2.401
 9001W        W16217  13.143  11.725   8.500
 9002W        W16218   9.396   3.112  10.446
 9003W        W16219   1.142   9.450  10.892
 9004W        W16220   4.545  10.273   3.980
 9005W        W16221  10.070   3.411   1.364
 9006W        W16222   0.647  10.311   1.230
 9007W        W16223   9.223   1.686   3.425
 9008W        W16224   8.316   5.456   8.452
 9009W        W16225  12.479   9.725   8.350
 9010W        W16226   0.842   5.670   2.079
 9011W        W16227   2.163   4.231   9.125
 9012W        W16228  12.738   7.829  10.553
 9013W        W16229   6.444   5.377   0.899
 9014W        W16230   4.238  12.492   0.629
 9015W        W16231   7.334   0.104   9.373
 9016W        W16232   1.512  13.327   2.829
 9017W        W16233   7.257   5.723   9.714
 9018W        W16234   7.635   5.223   3.358
 9019W        W16235  12.024  11.329   1.979
 9020W        W16236   6.701   1.248  11.920
 9021W        W16237   7.057   2.234   0.169
 9022W        W16238   1.952   9.699  11.887
 9023W        W16239   2.084  11.303  11.043
 9024W        W16240  11.428   5.398   1.763
 9025W        W16241   8.330   1.199   9.173
 9026W        W16242   0.977   7.688  11.776
 9027W        W16243   2.751   3.970   1.329
 9028W        W16244  10.731  11.021   1.072
 9029W        W16245   3.840   0.658   0.460
 9030W        W16246   3.663   4.345  11.992
 9031W        W16247   2.994   1.037   0.676
 9032W        W16248  13.708   8.117   3.659
 9033W        W16249   7.637   3.639   0.924
 9034W        W16250   1.071   5.114   2.824
 9035W        W16251   5.170  13.168   7.774
 9036W        W16252   1.963  10.273  11.214
 9037W        W16253  13.360   5.412   1.500
 9038W        W16254   4.950   4.650   3.240
 9039W        W16255   1.882   2.336  10.130
 9040W        W16256   9.608   2.700   9.748
 9041W        W16257  10.463   8.310   1.063
 9042W        W16258   6.285   7.574  11.732
 9043W        W16259   6.711   3.962   1.066
 9044W        W16260   2.248  12.225  10.665
 9045W        W16261   5.573   0.355   0.969
 9046W        W16262   0.426   9.942  10.065
 9047W        W16263  10.938   6.793  11.309
 9048W        W16264   3.528  12.922   0.270
 9049W        W16265   5.488   5.494   2.082
 9050W        W16266   7.039   4.705   0.540
 9051W        W16267  10.102   5.538   9.804
 9052W        W16268  11.327   7.067  11.146
 9053W        W16269   8.407   5.556   9.302
 9054W        W16270   9.439  12.692   3.581
 9055W        W16271  10.687   2.373  10.733
 9056W        W16272   5.874   8.333   1.157
 9057W        W16273   3.498   5.225   3.104
 9058W        W16274   4.210   5.861  11.026
 9059W        W16275  13.448   6.183   2.163
 9060W        W16276   0.909  11.092   9.482
 9061W        W16277   2.563   4.009   8.637
 9062W        W16278   0.265   4.739   7.492
 9063W        W16279  10.457   5.543   8.703
 9064W        W16280  13.766   9.022   9.324
 9065W        W16281  12.935   9.947   8.423
 9066W        W16282   8.431   7.472   2.404
 9067W        W16283   9.767  11.470  11.529
 9068W        W16284  10.246  12.595   2.190
 9069W        W16285   1.808   3.304   0.462
 9070W        W16286  12.807   0.215   2.620
 9071W        W16287   0.338   3.030   0.873
 9072W        W16288   8.332  11.871   0.673
 9073W        W16289  12.972   9.092   8.741
 9074W        W16290   7.496   5.858  11.047
 9075W        W16291   2.138  13.139   0.691
 9076W        W16292   1.248   3.188   2.575
 9077W        W16293   5.416   1.344   8.696
 9078W        W16294   2.621   2.065  11.778
 9079W        W16295   2.608   8.048   0.197
 9080W        W16296   4.385   1.795   0.712
 9081W        W16297  10.605   7.892   8.834
 9082W        W16298  13.125  13.722   8.650
 9083W        W16299  13.042   8.092   0.331
 9084W        W16300  10.390   3.317   3.702
 9085W        W16301   5.435   7.709   2.818
 9086W        W16302  11.456  12.634   3.437
 9087W        W16303   9.558   4.583   9.416
 9088W        W16304   7.015   3.832   9.260
 9089W        W16305   1.123   7.270   0.059
 9090W        W16306   6.713  12.381   0.812
 9091W        W16307   4.965   2.655  11.407
 9092W        W16308   8.197   3.450   9.134
 9093W        W16309   2.749   5.419   0.327
 9094W        W16310   0.623   9.215   2.017
 9095W        W16311   9.668   6.220  10.339
 9096W        W16312   1.389   5.602  11.930
 9097W        W16313   8.656   3.369   2.440
 9098W        W16314   6.041   2.484   8.537
 9099W        W16315   9.069   4.517   1.956
 9100W        W16316   4.775   3.920  11.228
 9101W        W16317   5.418   0.941   9.916
 9102W        W16318   3.310   0.777   1.486
 9103W        W16319   7.050  13.053   0.699
 9104W        W16320  11.166   1.823   3.949
 9105W        W16321   9.928   0.581   8.448
 9106W        W16322   4.176  13.794  11.599
 9107W        W16323   2.061  12.271  10.192
 9108W        W16324   7.070   6.220  11.412
 9109W        W16325  10.771  11.419   1.834
 9110W        W16326   3.335   0.969   2.508
 9111W        W16327   3.725   7.100  10.120
 9112W        W16328  11.677   1.680  10.034
 9113W        W16329   6.294  13.718   8.969
 9114W        W16330   0.293   0.337   1.828
 9115W        W16331   6.081  12.885   9.781
 9116W        W16332  13.672  10.716  10.323
 9117W        W16333   6.712   5.176   8.578
 9118W        W16334  12.593   1.801   8.475
 9119W        W16335  11.702   1.313   1.387
 9120W        W16336   4.832  10.649   9.851
 9121W        W16337   2.880   2.048   0.564
 9122W        W16338   3.649   5.205  11.156
 9123W        W16339   7.370   1.691   4.166
 9124W        W16340  12.623   0.577   0.772
 9125W        W16341   0.205  11.815  10.123
 9126W        W16342   2.060  10.763   1.329
 9127W        W16343   1.083  11.873   3.704
 9128W        W16344   1.394   7.010   2.520
 9129W        W16345  10.785  12.078   3.505
 9130W        W16346  12.083   6.580   0.397
 9131W        W16347   0.263   5.216   3.185
 9132W        W16348  10.340   3.016   8.722
 9133W        W16349   1.845  11.883  10.528
 9134W        W16350   9.432   4.605   1.579
 9135W        W16351   7.410   3.936  11.485
 9136W        W16352   8.175  11.594   2.937
 9137W        W16353   7.785   5.657   3.535
 9138W        W16354   0.292   4.932   9.145
 9139W        W16355   2.947   3.136  10.299
 9140W        W16356   9.592   4.775   2.406
 9141W        W16357   0.221   1.051   8.410
 9142W        W16358   1.243   1.778   9.572
 9143W        W16359   7.188   4.728   4.129
 9144W        W16360   9.417   7.080   0.539
 9145W        W16361  11.035   2.459   8.498
 9146W        W16362   7.578   0.454  11.395
 9147W        W16363   6.373   2.212   3.793
 9148W        W16364  10.876   5.607   8.438
 9149W        W16365   9.046   1.273   4.213
 9150W        W16366   3.515  10.487   2.384
 9151W        W16367   1.261   5.247   1.303
 9152W        W16368   1.988  13.023   0.231
 9153W        W16369  13.288   2.439   0.250
 9154W        W16370  10.469   9.714   2.874
 9155W        W16371   8.696  13.813   9.990
 9156W        W16372   8.712   6.944  11.963
 9157W        W16373   3.016   3.734   1.683
 9158W        W16374   1.163   4.271   7.712
 9159W        W16375   8.393   6.051  11.942
 9160W        W16376   6.401   5.190   2.351
 9161W        W16377   6.884   9.053   0.634
 9162W        W16378   2.499  13.102   8.722
 9163W        W16379   7.168  10.399   2.101
 9164W        W16380  12.484   9.898  11.297
 9165W        W16381   4.615   5.537   8.369
 9166W        W16382   3.872  13.734   0.251
 9167W        W16383  12.824   7.122   2.804
 9168W        W16384   5.065  13.978   2.278
 9169W        W16385   2.061  10.497   9.372
 9170W        W16386  10.239   3.270   1.844
 9171W        W16387   3.149  11.446   3.345
 9172W        W16388   5.813   6.459  10.774
 9173W        W16389   0.730   0.700  11.561
 9174W        W16390   8.757   1.373  11.162
 9175W        W16391   2.279   3.579   2.490
 9176W        W16392  10.598   4.273   0.209
 9177W        W16393   3.259   7.924  10.981
 9178W        W16394  13.064   1.724   0.438
 9179W        W16395   4.360   5.885   0.510
 9180W        W16396  12.271   0.088   8.625
 9181W        W16397   8.255  13.569   0.292
 9182W        W16398  10.982   5.492  10.320
 9183W        W16399   8.718   6.366   0.708
 9184W        W16400   1.919   1.454  11.803
 9185W        W16401   1.966   2.844  10.062
 9186W        W16402  10.803   3.764   9.862
 9187W        W16403   5.038   4.200   9.240
 9188W        W16404   2.204   0.522   2.925
 9189W        W16405   5.710   5.418   0.464
 9190W        W16406  10.957   0.138  10.461
 9191W        W16407   8.999   5.015   2.120
 9192W        W16408  10.322   5.870   2.648
 9193W        W16409   8.577  13.827   1.165
 9194W        W16410  10.768  10.696  11.113
 9195W        W16411  13.411   2.670   0.690
 9196W        W16412   7.281  10.095  11.109
 9197W        W16413   8.272   7.819  11.001
 9198W        W16414   3.435   3.303  10.278
 9199W        W16415  10.908   6.087  10.099
 9200W        W16416   6.137   0.397   8.483
 9201W        W16417   3.083   3.638  10.449
 9202W        W16418   8.706  11.834   1.857
 9203W        W16419   0.326   2.949   2.381
 9204W        W16420   1.866   4.243  10.495
 9205W        W16421  13.574   4.189   7.602
 9206W        W16422   2.518   8.080  10.322
 9207W        W16423  13.332   3.539   1.877
 9208W        W16424  11.345   9.567   0.613
 9209W        W16425   1.871   4.524   0.014
 9210W        W16426   8.613   2.889   0.655
 9211W        W16427   3.547   0.897  10.618
 9212W        W16428  13.946  11.654   2.625
 9213W        W16429   9.157   3.333   8.741
 9214W        W16430  10.138   2.909  10.470
 9215W        W16431  11.158   9.060   2.965
 9216W        W16432  13.913   4.838   8.296
 9217W        W16433   1.514   8.352   0.352
 9218W        W16434   3.658  12.969   2.356
 9219W        W16435   0.319   4.565   9.590
 9220W        W16436   5.203  13.610  11.757
 9221W        W16437  11.628   6.760   0.521
 9222W        W16438   4.520   0.579   3.068
 9223W        W16439  13.629  11.681   1.479
 9224W        W16440   1.544   6.153   8.680
 9225W        W16441  12.951  11.782   3.210
 9226W        W16442   6.560   8.303   9.104
 9227W        W16443   1.881   7.679  11.572
 9228W        W16444  13.198   2.634  11.292
 9229W        W16445  11.166   4.461   1.375
 9230W        W16446   2.040   6.985   3.221
 9231W        W16447   8.217   9.406   8.346
 9232W        W16448  11.450  11.404   0.377
 9233W        W16449   6.878   0.135   9.126
 9234W        W16450   7.520   7.847   1.642
 9235W        W16451   9.169  12.597   0.965
 9236W        W16452   0.457  11.446   9.784
 9237W        W16453   6.838   2.431  11.408
 9238W        W16454   2.856  10.986   1.870
 9239W        W16455   9.991   9.230   0.382
 9240W        W16456   0.270  11.890   9.626
 9241W        W16457  12.219   0.757   3.789
 9242W        W16458   1.552   1.505   2.111
 9243W        W16459  11.711   0.536   9.936
 9244W        W16460  11.960   3.004   3.331
 9245W        W16461   6.622  11.484   0.424
 9246W        W16462  13.292  10.106   3.269
 9247W        W16463   1.553  13.094  11.982
 9248W        W16464   2.458  11.253  10.720
 9249W        W16465   8.926  13.050   0.936
 9250W        W16466  13.928  12.842   7.848
 9251W        W16467   7.681   1.341  11.589
 9252W        W16468   7.651   1.849  10.749
 9253W        W16469   0.780   5.366   1.336
 9254W        W16470   1.142   5.775   1.321
 9255W        W16471   2.660   3.324   2.695
 9256W        W16472  10.814   6.774   8.841
 9257W        W16473   8.424  13.152  10.894
 9258W        W16474   1.447   5.708  10.453
 9259W        W16475   4.474  12.840   9.429
 9260W        W16476   3.142   0.533   2.677
 9261W        W16477   6.629   6.486   8.602
 9262W        W16478   9.645  13.224   8.458
 9263W        W16479  12.505  11.999   0.697
 9264W        W16480   8.764  12.972  10.154
 9265W        W16481  10.718   7.308   9.674
 9266W        W16482   3.227   6.978   0.674
 9267W        W16483  10.564  12.769   0.869
 9268W        W16484   6.641  13.740   9.399
 9269W        W16485   0.116   6.740   0.359
 9270W        W16486   7.804   2.068   9.752
 9271W        W16487  13.886  12.833   1.710
 9272W        W16488   2.412   1.095   3.714
 9273W        W16489   9.908  10.703   0.020
 9274W        W16490  12.805   9.050  10.888
 9275W        W16491   0.553   2.967  11.346
 9276W        W16492   5.960   0.832   8.662
 9277W        W16493   8.336  11.267   9.414
 9278W        W16494  11.682   8.089   1.462
 9279W        W16495  11.235   9.873  10.678
 9280W        W16496   6.140  11.621   0.947
 9281W        W16497   7.141  10.240  11.552
 9282W        W16498  11.529  12.565  11.579
 9283W        W16499   1.553   1.054   4.301
 9284W        W16500  13.422   4.515   3.618
 9285W        W16501   5.230   7.259   0.794
 9286W        W16502   3.234   6.105   1.950
 9287W        W16503  10.382   5.344   3.368
 9288W        W16504   6.337   4.390  10.338
 9289W        W16505   7.652   2.701  11.234
 9290W        W16506   5.544   3.548   9.790
 9291W        W16507   9.249   4.357   2.396
 9292W        W16508   6.495   9.447   0.750
 9293W        W16509   5.410   4.489  10.721
 9294W        W16510   6.218   5.197  11.186
 9295W        W16511  11.003  13.777   0.190
 9296W        W16512  10.275  11.060  10.611
 9297W        W16513   5.789   3.192   8.935
 9298W        W16514   0.972   9.662   0.917
 9299W        W16515   8.981   7.093  10.967
 9300W        W16516   8.589   7.379  11.095
 9301W        W16517  13.999   2.402   9.384
 9302W        W16518   5.219  11.245   1.842
 9303W        W16519   1.350   0.480  11.170
 9304W        W16520   0.338   6.771   1.179
 9305W        W16521   7.519   2.375   3.178
 9306W        W16522   2.426   3.027  10.392
 9307W        W16523   5.345   3.001   0.049
 9308W        W16524   4.704   6.721   2.910
 9309W        W16525  11.046   3.736   0.762
 9310W        W16526  13.711   6.291  10.708
 9311W        W16527   2.029   1.390   2.221
 9312W        W16528   0.152   7.606  11.794
 9313W        W16529   7.092   3.335   3.488
 9314W        W16530   3.156  12.899   2.220
 9315W        W16531   1.953   8.612   9.462
 9316W        W16532  13.855   3.486  11.365
 9317W        W16533   1.429  11.813   1.913
 9318W        W16534  11.609   9.809   0.249
 9319W        W16535   7.503   2.100   8.257
 9320W        W16536   6.743  13.392   0.981
 9321W        W16537   7.753   4.063   2.055
 9322W        W16538   0.538   6.885  11.998
 9323W        W16539  12.168   9.555   8.735
 9324W        W16540  11.388  12.917   0.052
 9325W        W16541   4.136   4.548   7.862
 9326W        W16542   9.045  10.704   0.084
 9327W        W16543   4.833   1.999   0.705
 9328W        W16544  13.779   7.973  11.371
 9329W        W16545  12.949   5.386   1.779
 9330W        W16546   6.921   6.303   1.680
 9331W        W16547   8.074   0.694   2.914
 9332W        W16548   9.279  12.267   2.545
 9333W        W16549  12.636   2.424   2.237
 9334W        W16550  13.435   1.023   0.670
 9335W        W16551   1.859   8.393  11.104
 9336W        W16552  10.216   4.795   0.968
 9337W        W16553  11.691   0.826   1.505
 9338W        W16554   1.451   3.640   0.569
 9339W        W16555  12.504  12.720  10.681
 9340W        W16556  10.793  11.721   3.147
 9341W        W16557   0.718   4.722   9.324
 9342W        W16558  13.760   4.841   9.220
 9343W        W16559   9.947   9.311  11.096
 9344W        W16560   8.329   4.119   3.464
 9345W        W16561  10.654   6.627   1.231
 9346W        W16562   5.669  10.663   8.200
 9347W        W16563  10.538   7.311  10.613
 9348W        W16564   5.411   5.286   0.063
 9349W        W16565   2.979   6.828   7.742
 9350W        W16566   4.760   2.089   2.235
 9351W        W16567   0.554  13.458   3.655
 9352W        W16568   5.539   4.975  10.659
 9353W        W16569   0.461   4.841  11.692
 9354W        W16570   6.819   9.065   9.153
 9355W        W16571  11.103   7.346   3.009
 9356W        W16572  13.316   9.332   4.361
 9357W        W16573   8.948   8.009   2.639
 9358W        W16574  11.890   5.483   7.696
 9359W        W16575   0.345   0.492  11.288
 9360W        W16576   9.394   5.259  11.035
 9361W        W16577   5.372  13.250   2.569
 9362W        W16578   0.150  10.126  11.557
 9363W        W16579   3.553   3.189  11.111
 9364W        W16580  13.620   5.051   1.295
 9365W        W16581  12.566   4.032  11.538
 9366W        W16582  13.853   4.199  11.093
 9367W        W16583   6.937  13.605   1.770
 9368W        W16584   0.135   4.481  11.785
 9369W        W16585   1.762   7.722   7.970
 9370W        W16586   4.810  10.661   9.099
 9371W        W16587   6.971   1.368   9.432
 9372W        W16588   6.595   8.995  10.420
 9373W        W16589   0.339   7.191   8.498
 9374W        W16590   0.112   9.157   3.245
 9375W        W16591   8.500   8.190   1.900
 9376W        W16592  13.685   7.434   2.950
 9377W        W16593   8.661   9.023   9.963
 9378W        W16594   4.227   9.514   3.070
 9379W        W16595   2.884   9.694   8.731
 9380W        W16596   0.374   3.264   9.697
 9381W        W16597   2.600   6.560   9.490
 9382W        W16598   2.116  13.984  11.231
 9383W        W16599   3.252  12.581   0.519
 9384W        W16600   7.611  12.040   2.456
 9385W        W16601   8.520   4.759  11.496
 9386W        W16602   6.052   1.284  10.967
 9387W        W16603   3.809   7.175   1.631
 9388W        W16604   9.856   9.726   1.571
 9389W        W16605  12.022  13.552  10.430
 9390W        W16606   6.811   7.612   3.066
 9391W        W16607   6.859   3.751   2.355
 9392W        W16608   7.405   1.703  11.360
 9393W        W16609   2.162   8.266  10.701
 9394W        W16610   0.122   8.305   3.412
 9395W        W16611   6.367   8.706  10.756
 9396W        W16612   7.637   5.250   8.193
 9397W        W16613  13.798  10.400   2.169
 9398W        W16614   3.055   7.822   0.595
 9399W        W16615  10.862   8.761   3.254
 9400W        W16616   9.386   4.446  10.390
 9401W        W16617   3.754   0.034   1.103
 9402W        W16618   9.320   1.392   3.026
 9403W        W16619   4.531   7.566  11.295
 9404W        W16620   9.685  13.424   1.012
 9405W        W16621   9.477   3.643   1.811
 9406W        W16622   9.623   6.497  11.781
 9407W        W16623   2.551   8.573   0.295
 9408W        W16624   0.867   6.018   8.450
 9409W        W16625   1.387   8.612   3.328
 9410W        W16626   7.323   0.469   9.019
 9411W        W16627  12.163  10.652  10.771
 9412W        W16628   8.475   1.477   1.002
 9413W        W16629  11.916   5.007   1.180
 9414W        W16630  11.984   4.345   8.517
 9415W        W16631   3.367   1.851   2.248
 9416W        W16632  13.648   5.271   2.523
 9417W        W16633   9.384   4.036   2.760
 9418W        W16634  10.904   7.928  11.316
 9419W        W16635   5.467   7.182   9.424
 9420W        W16636   3.242   8.992   2.058
 9421W        W16637   0.558  10.384  11.336
 9422W        W16638  12.165  11.631   9.364
 9423W        W16639   1.324   3.719  10.651
 9424W        W16640   3.038   5.034   3.262
 9425W        W16641  10.953  12.518   3.349
 9426W        W16642   7.520  10.834   8.235
 9427W        W16643   2.933  10.490   1.067
 9428W        W16644   5.232   0.283   8.878
 9429W        W16645   3.422   3.551   8.433
 9430W        W16646  11.066   5.430   1.391
 9431W        W16647   5.455   6.627   3.335
 9432W        W16648   1.343   1.938   0.898
 9433W        W16649  11.855   2.967   1.373
 9434W        W16650   3.372   8.480   2.151
 9435W        W16651   9.043   7.448  11.341
 9436W        W16652   4.453   4.409   1.859
 9437W        W16653   0.821  13.050  11.502
 9438W        W16654   2.484   6.589   0.589
 9439W        W16655   7.489  10.127   0.745
 9440W        W16656  10.567   2.088  11.791
 9441W        W16657  13.819   7.246   9.457
 9442W        W16658   8.828   3.997   3.451
 9443W        W16659   0.914   0.977   2.263
 9444W        W16660   3.894   7.638  11.828
 9445W        W16661   9.064  13.482  11.315
 9446W        W16662   7.198   5.112   2.915
 9447W        W16663   1.647   5.887   3.422
 9448W        W16664   0.024   6.071  11.035
 9449W        W16665   6.857  13.216   1.474
 9450W        W16666  10.715   8.031   8.357
 9451W        W16667  10.871   0.578  10.213
 9452W        W16668  10.925  11.005   2.739
 9453W        W16669   3.463   9.723   2.694
 9454W        W16670   0.263   5.348  10.499
 9455W        W16671   8.396  11.869   1.174
 9456W        W16672  13.360   0.125   0.773
 9457W        W16673   4.175   2.717   8.322
 9458W        W16674   9.234  11.004   9.878
 9459W        W16675   2.034   7.310   2.082
 9460W        W16676  12.007   1.377   1.794
 9461W        W16677   8.037   6.440  11.831
 9462W        W16678  13.386   4.043   1.846
 9463W        W16679   0.659   1.717   0.052
 9464W        W16680   3.795   1.074   2.101
 9465W        W16681   9.729   2.435  11.609
 9466W        W16682   3.210   3.220  10.736
 9467W        W16683   7.995   0.479   0.274
 9468W        W16684  10.453   8.465   8.404
 9469W        W16685   7.549   0.079   1.858
 9470W        W16686  12.411  10.128   2.209
 9471W        W16687   6.452   5.826  11.952
 9472W        W16688   2.539  13.938   3.485
 9473W        W16689   6.354   8.534   1.173
 9474W        W16690   5.976   6.429   2.224
 9475W        W16691   3.669  10.669   2.950
 9476W        W16692   9.454  10.996   2.809
 9477W        W16693  13.033   6.740   2.153
 9478W        W16694   5.566   3.771   0.782
 9479W        W16695   5.515  13.568   9.985
 9480W        W16696   9.543  11.367   3.401
 9481W        W16697  13.535   7.842   0.591
 9482W        W16698   7.914  10.609  10.535
 9483W        W16699   9.292  11.474  11.731
 9484W        W16700   5.496   8.158  11.810
 9485W        W16701   1.126   5.030   0.845
 9486W        W16702  10.338  10.582   9.945
 9487W        W16703   2.213   3.958  10.778
 9488W        W16704   7.676  10.161   9.368
 9489W        W16705   0.128   4.397   2.625
 9490W        W16706  13.390   6.538  11.045
 9491W        W16707   0.720   2.991  10.404
 9492W        W16708   1.548   6.666   9.594
 9493W        W16709   1.700   9.786   0.299
 9494W        W16710   6.104   9.181   0.499
 9495W        W16711   3.651   0.333   7.969
 9496W        W16712  11.365  12.093  10.419
 9497W        W16713   4.388   0.374  11.037
 9498W        W16714  13.814   4.486  10.512
 9499W        W16715   5.401  12.130   1.911
 9500W        W16716   6.041  12.307   1.309
 9501W        W16717  13.577   1.501   3.276
 9502W        W16718  13.481   7.312  10.345
 9503W        W16719   6.537   3.112   8.369
 9504W        W16720   4.387  12.677   2.009
 9505W        W16721   4.499   5.647  11.455
 9506W        W16722   7.903   1.338   8.346
 9507W        W16723   5.593   9.118  11.181
 9508W        W16724   5.262  13.676   3.280
 9509W        W16725   1.711   3.931   8.603
 9510W        W16726   8.570   4.929   3.266
 9511W        W16727   4.444   4.071   2.226
 9512W        W16728   4.259   0.905   2.375
 9513W        W16729   2.892   2.001   2.211
 9514W        W16730   9.013   5.929  10.641
 9515W        W16731   1.199   1.017   1.612
 9516W        W16732  13.158   5.404   3.153
 9517W        W16733   1.904   5.746  11.806
 9518W        W16734  11.093   4.730   8.520
 9519W        W16735  10.804   9.035   1.312
 9520W        W16736  11.605   7.716   3.798
 9521W        W16737   3.474   4.237   2.216
 9522W        W16738  13.572   6.626   2.328
 9523W        W16739  12.327   5.360   9.394
 9524W        W16740  13.268   9.087   9.163
 9525W        W16741  13.752   0.286   8.679
 9526W        W16742   7.150   1.876   9.147
 9527W        W16743  10.644   8.181  11.659
 9528W        W16744   7.751   3.253   2.057
 9529W        W16745   7.191  13.307   3.468
 9530W        W16746   6.045   8.582   1.593
 9531W        W16747   3.010   6.542   2.057
 9532W        W16748  11.085   5.573   3.040
 9533W        W16749   4.821   0.092   3.751
 9534W        W16750  12.739   2.120   2.659
 9535W        W16751   7.726   5.892   9.720
 9536W        W16752   6.275  10.209  10.932
 9537W        W16753   5.897   8.670  10.527
 9538W        W16754  12.558   3.327   9.829
 9539W        W16755   4.867  10.158   0.691
 9540W        W16756   8.609   7.427   9.368
 9541W        W16757   6.596   2.516  10.730
 9542W        W16758   5.437   8.655   9.727
 9543W        W16759   2.090   1.885   2.105
 9544W        W16760   1.114   4.982   9.492
 9545W        W16761   6.766   5.558   3.539
 9546W        W16762   2.928  11.629   2.579
 9547W        W16763   8.682  10.087  11.558
 9548W        W16764   8.267   6.193  11.445
 9549W        W16765  12.959   9.800   3.523
 9550W        W16766  12.812   3.178   3.257
 9551W        W16767  12.527  12.318   1.096
 9552W        W16768   5.552  13.085   0.304
 9553W        W16769  13.413   5.351   2.014
 9554W        W16770   0.379   2.651   9.139
 9555W        W16771   0.783  12.091   8.372
 9556W        W16772   3.288   7.864   2.946
 9557W        W16773  13.692   7.759  10.298
 9558W        W16774   6.987   2.445  10.086
 9559W        W16775  11.254   8.538   3.013
 9560W        W16776  11.955  12.513   1.802
 9561W        W16777  13.415   9.290   8.456
 9562W        W16778   0.699  13.423   2.703
 9563W        W16779   6.495  11.313  11.953
 9564W        W16780   6.051   1.274   2.316
 9565W        W16781   6.372  12.599   0.506
 9566W        W16782   1.612   7.544   0.890
 9567W        W16783  10.537   1.813   3.247
 9568W        W16784   9.924   2.301   2.805
 9569W        W16785  12.875   5.140   8.891
 9570W        W16786   2.017   8.150  11.501
 9571W        W16787   4.778   3.849   9.456
 9572W        W16788   9.315   3.794   1.030
 9573W        W16789  13.397   9.769   2.901
 9574W        W16790   0.635   8.084   8.699
 9575W        W16791   9.070   2.716   0.810
 9576W        W16792   2.953   5.741   0.879
 9577W        W16793   8.224   7.444  10.148
 9578W        W16794   0.400   5.391  11.833
 9579W        W16795   4.481   9.405   1.820
 9580W        W16796   7.278   7.394   0.455
 9581W        W16797  12.740   1.813   1.535
 9582W        W16798   0.593   2.476  10.113
 9583W        W16799   3.209   5.690   0.451
 9584W        W16800   7.097   9.061  10.441
 9585W        W16801   6.942   9.067   3.625
 9586W        W16802   9.078   5.156  10.025
 9587W        W16803  12.116   4.618   9.986
 9588W        W16804  12.459   0.865   2.926
 9589W        W16805  13.152   6.945  10.762
 9590W        W16806  13.451   3.052   9.452
 9591W        W16807  10.379   1.270  10.105
 9592W        W16808   5.559   4.161   9.245
 9593W        W16809   9.707  13.852   9.925
 9594W        W16810  10.663   5.541   9.944
 9595W        W16811  11.800   0.806  10.743
 9596W        W16812  12.811  12.232   2.920
 9597W        W16813   7.292   1.644   8.212
 9598W        W16814   8.992   2.791   8.525
 9599W        W16815   5.737  13.015   2.339
 9600W        W16816   7.454   2.466  11.834
 9601W        W16817   6.502   7.473  11.297
 9602W        W16818  10.485  12.350   0.432
 9603W        W16819   8.262   2.246   9.584
 9604W        W16820   8.531   5.368   9.993
 9605W        W16821   2.354  12.622   9.990
 9606W        W16822   1.026  12.574  11.636
 9607W        W16823   1.666  13.983   0.115
 9608W        W16824  12.844   9.743   7.974
 9609W        W16825   1.140   8.760   3.740
 9610W        W16826   9.196   1.175   2.013
 9611W        W16827   6.856  12.260   0.044
 9612W        W16828  10.561   2.249   9.826
 9613W        W16829   8.085   0.364   0.760
 9614W        W16830  13.020   3.851   1.536
 9615W        W16831   8.363  11.517   2.467
 9616W        W16832   9.914   6.696   0.154
 9617W        W16833  10.770  11.004  10.723
 9618W        W16834  11.724  12.673   9.817
 9619W        W16835   6.860  11.927  11.548
 9620W        W16836   8.377   4.240   2.712
 9621W        W16837  13.038  13.986   8.221
 9622W        W16838   4.932  12.688   7.755
 9623W        W16839   0.762   6.381  11.928
 9624W        W16840   0.227  13.729   0.721
 9625W        W16841   5.065  10.732  11.045
 9626W        W16842   2.147  11.762  10.122
 9627W        W16843   8.103   0.872   1.466
 9628W        W16844   9.654  11.234  10.650
 9629W        W16845  10.040  12.206   4.209
 9630W        W16846   4.449  11.726   3.198
 9631W        W16847   3.583   9.385   3.765
 9632W        W16848   4.679  13.876   9.705
 9633W        W16849   1.343   7.683  10.853
 9634W        W16850   9.034   8.075   9.976
 9635W        W16851   1.966   0.151   0.494
 9636W        W16852  13.421  11.099   9.671
 9637W        W16853   6.996   2.869   2.607
 9638W        W16854   8.383   2.930  11.898
 9639W        W16855   4.101   8.537   0.527
 9640W        W16856  13.660   1.340   2.253
 9641W        W16857   6.967  12.533  10.700
 9642W        W16858  12.052  12.663   2.730
 9643W        W16859   7.168   5.456   3.827
 9644W        W16860   1.228   4.375   8.199
 9645W        W16861  10.389  13.986  11.318
 9646W        W16862   9.810   5.470  11.807
 9647W        W16863   4.977   4.465  10.484
 9648W        W16864  13.076  12.269   3.376
 9649W        W16865   8.064   1.499   8.818
 9650W        W16866   4.038   9.795  10.067
 9651W        W16867   9.228   4.979   9.230
 9652W        W16868   8.807   0.103  11.959
 9653W        W16869   6.953   5.969  11.897
 9654W        W16870  12.928   9.260   3.246
 9655W        W16871   8.046   7.816   9.247
 9656W        W16872   5.721  12.975   7.794
 9657W        W16873   1.419   8.008   2.783
 9658W        W16874  10.028   4.624   9.999
 9659W        W16875   1.203  11.444   9.287
 9660W        W16876  13.749   5.010   4.271
 9661W        W16877   2.230   6.291   9.264
 9662W        W16878  12.562   0.507   1.662
 9663W        W16879   8.486   7.747  11.835
 9664W        W16880   5.626  10.575   0.470
 9665W        W16881   9.237   1.211  11.245
 9666W        W16882  13.302   5.567   9.419
 9667W        W16883   6.872  12.672   0.405
 9668W        W16884   8.853   9.296   1.287
 9669W        W16885   3.279   9.991   8.627
 9670W        W16886  11.381   8.450   8.000
 9671W        W16887   9.579  12.325   8.653
 9672W        W16888   8.469  11.180   2.873
 9673W        W16889  11.473   0.449   2.299
 9674W        W16890   3.046   5.189   8.780
 9675W        W16891   1.996   6.239  11.730
 9676W        W16892  12.783   3.921   2.507
 9677W        W16893   8.389   6.680  10.565
 9678W        W16894   4.030   6.715  10.209
 9679W        W16895   1.238  11.728  10.258
 9680W        W16896   3.972   5.983   3.952
 9681W        W16897   3.776   7.999   1.067
 9682W        W16898   5.228   5.795   3.288
 9683W        W16899   5.458   7.906  10.203
 9684W        W16900   4.745   3.188   0.617
 9685W        W16901   7.402   5.941   3.700
 9686W        W16902  13.165   6.862   9.051
 9687W        W16903   1.413   9.640  11.252
 9688W        W16904   6.951  11.177   8.808
 9689W        W16905   5.860  13.991   1.167
 9690W        W16906   7.405  12.189   9.392
 9691W        W16907   3.429   1.458   0.784
 9692W        W16908   1.650  13.425  10.578
 9693W        W16909   8.920  10.521   1.677
 9694W        W16910  12.886   3.007  11.180
 9695W        W16911  12.374  10.499   3.785
 9696W        W16912   4.053  12.833   8.634
 9697W        W16913   1.522   7.228   9.706
 9698W        W16914   6.655   7.728   8.601
 9699W        W16915   1.262   1.447   1.122
 9700W        W16916   0.636  13.494   1.396
 9701W        W16917   3.857  13.452  11.802
 9702W        W16918  11.596  11.853   9.681
 9703W        W16919  12.901   7.183   2.314
 9704W        W16920   6.327  11.784  11.675
 9705W        W16921   8.737   0.170   1.507
 9706W        W16922  10.493   2.144   9.010
 9707W        W16923   8.171   6.136  10.579
 9708W        W16924   3.777   4.613  10.742
 9709W        W16925   7.807  12.655   0.859
 9710W        W16926  10.913   3.568  10.343
 9711W        W16927   8.273   1.712   0.008
 9712W        W16928   3.089   5.472   8.329
 9713W        W16929   3.159  13.231   2.943
 9714W        W16930   1.796  13.488   1.548
 9715W        W16931  10.146  10.353   0.925
 9716W        W16932   4.946   3.389   8.983
 9717W        W16933   3.013   3.276   0.783
 9718W        W16934   3.488  12.982   1.500
 9719W        W16935   5.667   2.683  10.493
 9720W        W16936   5.921   9.630   0.115
 9721W        W16937   9.033   0.976   2.933
 9722W        W16938  11.555   1.337   0.397
 9723W        W16939   8.536  12.510   4.057
 9724W        W16940   4.541   0.568   2.072
 9725W        W16941   9.593   4.294   0.092
 9726W        W16942   0.195   6.827   8.925
 9727W        W16943   1.305   9.472   1.975
 9728W        W16944  13.151   3.678   9.940
 9729W        W16945   6.180  10.920   3.594
 9730W        W16946  11.521   5.569   9.039
 9731W        W16947   6.229   1.023   7.671
 9732W        W16948   1.418   6.345   3.456
 9733W        W16949   5.257   1.415  10.535
 9734W        W16950   2.867   0.655   7.460
 9735W        W16951   7.704   4.363   3.262
 9736W        W16952   7.517   8.293   0.619
 9737W        W16953   9.550  11.061   1.786
 9738W        W16954   9.249   5.472  10.581
 9739W        W16955  12.461   2.687   0.220
 9740W        W16956  12.007   1.387   2.826
 9741W        W16957   4.375  10.104   0.630
 9742W        W16958   1.806  12.290   1.250
 9743W        W16959   0.150   2.292   0.717
 9744W        W16960  13.413   9.418   9.980
 9745W        W16961  11.207   7.598  11.054
 9746W        W16962   4.583  13.403   8.863
 9747W        W16963   2.873  10.247   0.620
 9748W        W16964   3.701   5.099  11.895
 9749W        W16965   0.183   4.822   2.906
 9750W        W16966   4.362   1.847   2.425
 9751W        W16967   3.716   4.623   3.406
 9752W        W16968   3.158   1.960  10.201
 9753W        W16969   1.206  13.885   3.712
 9754W        W16970   2.088  13.687  11.638
 9755W        W16971   1.914  10.423  10.378
 9756W        W16972  10.076   9.949   8.971
 9757W        W16973   8.102   3.420  11.458
 9758W        W16974  11.034   3.035   1.125
 9759W        W16975   1.947  11.011   0.907
 9760W        W16976  11.935   5.578   8.199
 9761W        W16977  12.344   7.887   9.801
 9762W        W16978  13.230   4.337   8.580
 9763W        W16979   0.287  10.050  10.794
 9764W        W16980   0.235   5.727   1.797
 9765W        W16981  13.721  13.353  11.079
 9766W        W16982  13.667  12.816  10.498
 9767W        W16983   2.045   2.484   0.632
 9768W        W16984   0.743  12.112   3.358
 9769W        W16985   3.518   8.922   2.970
 9770W        W16986   7.769   6.325  10.901
 9771W        W16987   7.492   7.137   2.376
 9772W        W16988   8.921   6.247   9.052
 9773W        W16989   8.200   6.171   9.737
 9774W        W16990  12.245   6.364   1.352
 9775W        W16991  10.466   5.663   9.497
 9776W        W16992   4.192  13.411  10.957
 9777W        W16993   0.064  12.208  10.889
 9778W        W16994  13.393   2.338  10.907
 9779W        W16995   5.608   1.968  10.393
 9780W        W16996   5.668  12.273   9.702
 9781W        W16997   5.421   6.819   9.047
 9782W        W16998   7.841  12.896  10.545
 9783W        W16999   8.550   4.744   1.438
 9784W        W17000   0.299   1.458   9.573
 9785W        W17001   1.468   5.480   3.730
 9786W        W17002   6.636  12.405   2.262
 9787W        W17003   0.330   4.139   3.424
 9788W        W17004   7.743  13.922   3.288
 9789W        W17005  10.487   1.709   7.703
 9790W        W17006   4.847   8.964   0.249
 9791W        W17007   8.535   9.021   3.158
 9792W        W17008   4.453   3.121   0.195
 9793W        W17009  13.910   1.074   1.339
 9794W        W17010   4.378   5.555   2.173
 9795W        W17011   6.909   6.080   9.841
 9796W        W17012   3.356   9.351  11.085
 9797W        W17013   0.175   5.837  10.593
 9798W        W17014   7.037   1.137   9.910
 9799W        W17015  13.421   5.475   0.471
 9800W        W17016   5.793   2.315   9.515
 9801W        W17017  10.105  11.547   8.499
 9802W        W17018   1.862   7.580   9.954
 9803W        W17019  10.199   8.913   8.506
 9804W        W17020   9.477   1.743   8.445
 9805W        W17021   0.330   8.762   3.468
 9806W        W17022   5.826   3.198   0.207
 9807W        W17023   1.067   9.082   8.565
 9808W        W17024   6.042   4.789   2.327
 9809W        W17025   7.955   7.304   0.335
 9810W        W17026  13.451   5.581   0.956
 9811W        W17027   6.973   6.182  10.348
 9812W        W17028   0.532   6.072   2.086
 9813W        W17029   8.113  12.476   4.362
 9814W        W17030  10.576   5.250   2.917
 9815W        W17031  13.256   5.815   1.850
 9816W        W17032   5.257   8.726  10.580
 9817W        W17033   6.194   2.832   0.194
 9818W        W17034   6.844   8.884  10.860
 9819W        W17035  12.209   6.100   8.708
 9820W        W17036  11.449   4.480   1.805
 9821W        W17037   2.949   7.986  10.566
 9822W        W17038   2.243   7.826   7.845
 9823W        W17039   4.809  10.652   0.751
 9824W        W17040   7.342   1.437   7.769
 9825W        W17041   9.752   9.833   3.224
 9826W        W17042   9.668   0.474   2.348
 9827W        W17043   1.161  12.044   0.067
 9828W        W17044   4.333   5.313   1.685
 9829W        W17045   4.646  10.443  11.216
 9830W        W17046  11.798  10.024   8.950
 9831W        W17047   6.042   8.875   0.043
 9832W        W17048   8.591  10.221   3.066
 9833W        W17049   0.300   0.985  11.480
 9834W        W17050  12.762  11.044  11.841
 9835W        W17051  12.208   0.772   4.307
 9836W        W17052   7.856   4.852   3.039
 9837W        W17053   4.255  12.117  11.231
 9838W        W17054   7.439  13.953   1.213
 9839W        W17055   4.942   5.253   8.603
 9840W        W17056   5.214   9.857   2.992
 9841W        W17057  11.484  11.678  11.529
 9842W        W17058   7.778   8.400   8.068
 9843W        W17059  11.896   8.280   3.077
 9844W        W17060  12.660   8.410   4.169
 9845W        W17061   0.590   2.936   3.930
 9846W        W17062   7.260  11.841   0.809
 9847W        W17063   3.470   5.823   0.892
 9848W        W17064   2.099   1.904  11.564
 9849W        W17065   8.334   4.335  11.309
 9850W        W17066   1.249   9.786   1.342
 9851W        W17067   8.985   0.129   2.954
 9852W        W17068   6.312   9.051   9.253
 9853W        W17069   5.436  11.180   2.290
 9854W        W17070   9.193   4.255   3.183
 9855W        W17071   4.659  11.860  11.450
 9856W        W17072   8.624   5.556  11.517
 9857W        W17073   1.679   0.747  11.749
 9858W        W17074   1.406   1.632   3.236
 9859W        W17075  13.780  13.497   8.351
 9860W        W17076   8.251   9.792  11.086
 9861W        W17077  13.198   9.832   4.504
 9862W        W17078  13.803   9.044   2.818
 9863W        W17079   0.451   2.588   0.160
 9864W        W17080   0.705   7.110   3.334
 9865W        W17081   1.450   8.325  11.858
 9866W        W17082   8.154   0.727  10.961
 9867W        W17083  10.976   2.308   4.060
 9868W        W17084   9.678   9.271   3.832
 9869W        W17085   6.390  10.235   2.028
 9870W        W17086   4.662   8.707  11.771
 9871W        W17087   4.462   1.397   9.430
 9872W        W17088   4.769  13.896  11.855
 9873W        W17089  11.469  13.604  10.998
 9874W        W17090   9.191  11.181   0.114
 9875W        W17091   5.884   5.797   9.490
 9876W        W17092   0.083   3.663  10.397
 9877W        W17093   9.651  11.744  10.585
 9878W        W17094   6.112   1.854  10.432
 9879W        W17095  12.356  12.057   3.796
 9880W        W17096   0.725  11.359   7.766
 9881W        W17097   4.701   6.613   1.648
 9882W        W17098   2.085   2.291   1.807
 9883W        W17099  11.325   3.546   2.184
 9884W        W17100   7.407   9.944   2.794
 9885W        W17101   3.619   8.337   2.863
 9886W        W17102   7.705   3.312  10.835
 9887W        W17103   1.752   2.608   1.550
 9888W        W17104  10.634   8.174   1.502
 9889W        W17105   8.601   5.469   0.977
 9890W        W17106   7.502   5.405   2.417
 9891W        W17107   9.857   5.025  11.041
 9892W        W17108   4.698  11.404  10.334
 9893W        W17109   8.642  13.056   0.523
 9894W        W17110  12.266   5.553   3.524
 9895W        W17111   3.599  10.852   8.612
 9896W        W17112   2.094   8.069   2.257
 9897W        W17113   9.926   4.647   2.785
 9898W        W17114  13.630  11.931  10.986
 9899W        W17115   2.477   3.995   9.674
 9900W        W17116   7.486   8.487   9.519
 9901W        W17117   7.275   3.779   3.269
 9902W        W17118  13.159   4.067   9.566
 9903W        W17119   3.778   7.373   2.101
 9904W        W17120  12.124  12.351   9.903
 9905W        W17121  10.877  13.020   1.321
 9906W        W17122   2.415   5.200   1.592
 9907W        W17123   4.552  12.156   0.329
 9908W        W17124  13.720   0.031   0.404
 9909W        W17125  10.761   7.208   2.601
 9910W        W17126   7.829  12.602   3.550
 9911W        W17127   1.358  11.616  11.721
 9912W        W17128  12.654   7.461   9.647
 9913W        W17129   6.283   0.146   2.651
 9914W        W17130   2.434   4.294   3.564
 9915W        W17131   7.873  12.301   2.092
 9916W        W17132  13.710   3.054   8.819
 9917W        W17133   2.456   9.895   0.611
 9918W        W17134  11.322   6.116   3.961
 9919W        W17135   5.778   0.820   2.235
 9920W        W17136   8.255  11.209   0.044
 9921W        W17137   4.668  11.143   1.397
 9922W        W17138   6.901  12.951   3.014
 9923W        W17139   1.532   8.541   9.702
 9924W        W17140   5.323   5.220   2.487
 9925W        W17141   4.898   4.428   1.063
 9926W        W17142   6.601   0.490   8.348
 9927W        W17143   5.427   9.965   3.474
 9928W        W17144   3.423  11.283  10.345
 9929W        W17145   4.096   7.599   1.772
 9930W        W17146  11.718   3.076  11.594
 9931W        W17147   8.788   0.999   9.858
 9932W        W17148   6.301   6.854   8.599
 9933W        W17149   6.990  12.406   3.179
 9934W        W17150  10.400   1.245   8.786
 9935W        W17151   0.705  10.375   8.778
 9936W        W17152   9.616   2.247   9.975
 9937W        W17153   9.995  13.730   9.193
 9938W        W17154   3.161   6.406   8.348
 9939W        W17155   4.940   8.355   3.240
 9940W        W17156   7.345  12.553  11.073
 9941W        W17157   6.552   1.450   4.049
 9942W        W17158  12.770   7.228  11.422
 9943W        W17159   7.615   7.622   2.488
 9944W        W17160   9.180   5.773   0.323
 9945W        W17161   6.281   4.148   1.255
 9946W        W17162   1.618   6.718   1.289
 9947W        W17163   9.405  10.488   1.504
 9948W        W17164  10.894   0.964   2.013
 9949W        W17165   5.959   9.848   2.751
 9950W        W17166   0.618   2.882   1.982
 9951W        W17167   2.503  10.244   1.005
 9952W        W17168  13.098  12.666   2.747
 9953W        W17169  10.924   4.557  11.916
 9954W        W17170  13.611   6.261   0.067
 9955W        W17171   5.956   0.138   3.574
 9956W        W17172  10.735  12.472  11.449
 9957W        W17173   6.636   1.641   1.798
 9958W        W17174  10.170   7.303   1.766
 9959W        W17175   4.159   4.690   2.820
 9960W        W17176   6.666   5.934  11.487
 9961W        W17177   1.500   4.843   8.237
 9962W        W17178   7.262   0.908  10.781
 9963W        W17179   8.213  12.293   3.711
 9964W        W17180   3.900  13.956   1.591
 9965W        W17181   0.083   0.527  10.460
 9966W        W17182   7.112   9.598  11.551
 9967W        W17183   9.062  12.140   2.093
 9968W        W17184   3.739  10.329   1.568
 9969W        W17185  13.402   8.596  11.529
 9970W        W17186   6.658  12.255   8.929
 9971W        W17187   2.385  11.957   1.821
 9972W        W17188  12.763   7.651   8.751
 9973W        W17189   9.180  13.472   1.011
 9974W        W17190  11.206   6.639   1.948
 9975W        W17191   8.437   3.420  11.839
 9976W        W17192  11.617   6.336   0.784
 9977W        W17193  11.222   7.889   0.742
 9978W        W17194  12.770   6.320  11.908
 9979W        W17195   2.013   4.987  10.846
 9980W        W17196   6.711   7.012  10.623
 9981W        W17197   0.310   7.176  11.571
 9982W        W17198   9.172  10.091  10.367
 9983W        W17199   7.400   5.361  11.157
 9984W        W17200   7.124   2.128   4.417
 9985W        W17201   3.638   6.817   4.078
 9986W        W17202   9.435   5.227   9.648
 9987W        W17203   1.850   8.789   1.020
 9988W        W17204   5.953   0.321   0.581
 9989W        W17205   8.388  13.460   7.849
 9990W        W17206   9.715  11.771   0.850
 9991W        W17207  12.805  12.816   2.358
 9992W        W17208  10.893   6.675  11.786
 9993W        W17209  13.163  11.086   1.200
 9994W        W17210   8.480  12.306   9.835
 9995W        W17211   5.170   6.873  11.496
 9996W        W17212   4.946   6.843   2.033
 9997W        W17213   5.098  12.213   3.890
 9998W        W17214  11.075   6.152   1.895
 9999W        W17215   5.472   3.411  10.263
10000W        W17216   2.991   4.693   0.361
10001W        W17217   2.761  11.586   0.988
10002W        W17218   0.084   2.076   3.036
10003W        W17219   7.446   3.964   8.509
10004W        W17220   5.779   6.587   7.814
10005W        W17221   8.410   7.477   1.234
10006W        W17222   9.792  10.614   3.402
10007W        W17223   4.730   1.729   1.187
10008W        W17224   5.898   2.122   2.317
10009W        W17225   8.568   0.460  11.125
10010W        W17226   2.136   8.837   0.153
10011W        W17227   8.230   3.502  10.293
10012W        W17228   3.669  13.569   2.718
10013W        W17229   3.958   9.933  11.043
10014W        W17230   4.853   1.834   1.728
10015W        W17231  11.177  11.438  11.875
10016W        W17232   6.401   3.285   0.464
10017W        W17233   9.215   7.013   8.056
10018W        W17234   0.724   9.713  10.711
10019W        W17235  13.942   6.566  10.335
10020W        W17236  12.614   9.902   8.813
10021W        W17237   6.117   0.420   3.952
10022W        W17238  12.820   5.074   9.789
10023W        W17239   5.928   7.996   8.384
10024W        W17240   8.499   2.170   2.936
10025W        W17241  10.993   1.789   3.464
10026W        W17242   9.786   3.918   0.854
10027W        W17243   6.672  12.972  10.798
10028W        W17244   8.737   4.140   9.346
10029W        W17245   0.839   3.270  11.635
10030W        W17246   1.163  13.928   4.234
10031W        W17247  12.077   3.809  10.096
10032W        W17248  11.890  11.405   9.781
10033W        W17249  11.773   4.134   0.073
10034W        W17250   4.346  11.914   9.528
10035W        W17251   7.397   0.733   9.735
10036W        W17252   4.683   6.122   9.849
10037W        W17253  12.766   1.112   1.253
10038W        W17254  13.449  13.349   1.040
10039W        W17255   9.781  13.545   1.474
10040W        W17256  13.136   2.015   0.024
10041W        W17257   6.723  12.250   1.769
10042W        W17258  12.079  13.071   3.036
10043W        W17259   6.036   8.269   7.927
10044W        W17260   3.315   1.916   3.128
10045W        W17261   8.483  10.835  10.226
10046W        W17262   6.711  12.025   3.375
10047W        W17263  13.034   3.198  10.743
10048W        W17264   5.113   4.302   0.034
10049W        W17265  11.180   7.838   3.099
10050W        W17266  12.884   7.234  11.923
10051W        W17267   3.974  13.091   1.408
10052W        W17268   0.620   6.412   2.480
10053W        W17269   9.316   2.220   0.412
10054W        W17270   0.045   8.735   0.982
10055W        W17271   3.941  12.599   1.093
10056W        W17272  11.034  13.711  10.720
10057W        W17273   3.414   3.776  10.109
10058W        W17274   0.400   3.544   0.152
10059W        W17275   1.067   9.970   3.315
10060W        W17276  13.464   1.618   2.617
10061W        W17277  10.998  13.350  11.060
10062W        W17278   7.408   6.535  11.203
10063W        W17279   5.862  13.282  11.952
10064W        W17280  12.306  12.651   3.213
10065W        W17281  12.901   0.725   7.671
10066W        W17282  13.024  10.800   9.660
10067W        W17283  13.413   9.717   1.621
10068W        W17284  11.205  11.694   9.207
10069W        W17285  11.873  10.193   9.901
10070W        W17286   4.422  12.527   8.577
10071W        W17287  11.331   8.596  11.955
10072W        W17288   2.665   6.402   9.010
10073W        W17289   9.943  13.044   0.390
10074W        W17290   3.377  11.316  11.136
10075W        W17291  12.317   8.615   8.722
10076W        W17292   2.182  12.713  10.452
10077W        W17293  12.636   7.027   1.939
10078W        W17294   4.794   8.088  11.010
10079W        W17295   8.338  12.220   7.596
10080W        W17296   8.523   7.866  10.176
10081W        W17297  12.753   3.565   9.059
10082W        W17298   0.767   3.731  11.858
10083W        W17299   2.116   4.656   0.438
10084W        W17300   8.038   4.386   1.776
10085W        W17301  10.546  13.397   2.463
10086W        W17302  10.922   1.508   8.775
10087W        W17303   4.113  11.754   9.957
10088W        W17304   4.352   3.297   3.773
10089W        W17305   9.982   6.819   1.897
10090W        W17306   6.366   6.923   1.519
10091W        W17307   7.454  13.608  11.368
10092W        W17308  13.629  12.518   1.339
10093W        W17309   6.498   2.789   9.280
10094W        W17310   0.606  11.172   2.974
10095W        W17311  10.072   3.005   7.774
10096W        W17312  12.114   8.856  10.020
10097W        W17313   8.016   1.524  10.646
10098W        W17314   8.315   0.460  11.864
10099W        W17315  11.085  13.706   9.250
10100W        W17316  13.295   5.074  11.150
10101W        W17317   7.502   5.647   4.538
10102W        W17318   0.573  10.082  11.830
10103W        W17319   3.886   0.872   1.001
10104W        W17320   7.966   0.209   2.121
10105W        W17321  13.049   9.917   1.959
10106W        W17322  10.269   9.934   0.659
10107W        W17323  11.946  10.661   7.998
10108W        W17324   3.077   3.353  11.305
10109W        W17325   5.132  12.665   0.474
10110W        W17326  12.267   9.033   3.395
10111W        W17327   9.821   0.703  10.157
10112W        W17328   7.320   4.942   2.168
10113W        W17329   6.763   5.105   3.801
10114W        W17330  11.515  13.161   3.332
10115W        W17331  10.447   6.440   0.790
10116W        W17332   4.304  11.002   8.445
10117W        W17333   1.470   9.006   1.907
10118W        W17334  13.776   6.220   2.546
10119W        W17335  12.257   5.879   9.980
10120W        W17336  10.901   1.634   7.981
10121W        W17337   1.459   6.622   8.837
10122W        W17338   8.847   2.541   3.038
10123W        W17339   7.189   6.544   1.330
10124W        W17340   1.795   3.136  11.699
10125W        W17341   1.459   2.577   9.169
10126W        W17342   4.317   8.880  10.364
10127W        W17343   5.178   8.157  11.419
10128W        W17344   3.148   6.737   9.107
10129W        W17345  10.480   6.871   1.848
10130W        W17346   6.214  12.761  10.833
10131W        W17347  13.743   7.338   1.858
10132W        W17348   8.965   9.279  10.281
10133W        W17349  12.171  11.074   1.463
10134W        W17350   0.671   9.182   0.480
10135W        W17351   2.918   1.067   3.801
10136W        W17352   7.743  12.116   3.491
10137W        W17353   5.708   8.747   3.461
10138W        W17354   1.460  12.647   1.165
10139W        W17355   4.623   7.743  10.074
10140W        W17356  12.530   4.333  10.783
10141W        W17357   5.891   0.713  11.730
10142W        W17358   5.561   6.657  11.191
10143W        W17359  10.101   8.976   1.513
10144W        W17360  12.887   2.620   0.482
10145W        W17361  11.628  11.389   8.529
10146W        W17362  11.218   0.134  10.901
10147W        W17363   1.394  11.059   2.878
10148W        W17364  12.129   0.833   9.955
10149W        W17365  10.052   5.313  11.397
10150W        W17366   3.195   8.249   9.338
10151W        W17367  10.222   5.757   2.167
10152W        W17368   5.273   1.590  11.290
10153W        W17369   9.973   3.657   8.391
10154W        W17370   8.222   8.978   9.671
10155W        W17371   4.303   6.078   2.243
10156W        W17372   0.899   5.559  11.045
10157W        W17373   1.708  11.515  10.155
10158W        W17374  11.694   9.229   1.571
10159W        W17375   6.605   8.961  11.710
10160W        W17376   3.844   3.249   3.078
10161W        W17377   6.119   7.162   2.853
10162W        W17378   1.104   2.382   1.064
10163W        W17379   3.757   0.207   2.618
10164W        W17380   2.186  13.910   0.087
10165W        W17381   4.618   2.897   9.769
10166W        W17382   9.512   5.405  10.136
10167W        W17383   2.238   7.625   4.423
10168W        W17384   4.423   3.472  11.181
10169W        W17385   1.958   0.432   9.218
10170W        W17386   3.209   1.524   7.915
10171W        W17387   4.565   7.739   2.909
10172W        W17388   1.426  11.407   0.997
10173W        W17389  11.190   8.570  10.190
10174W        W17390   7.421   4.265   4.192
10175W        W17391   4.528  12.465   3.095
10176W        W17392   2.704   5.760   2.634
10177W        W17393   1.216   0.827   0.376
10178W        W17394   4.198  11.415   9.185
10179W        W17395   8.324   1.108   1.886
10180W        W17396   9.107   3.567   9.921
10181W        W17397   5.418   0.825   8.663
10182W        W17398   3.222   5.258  11.757
10183W        W17399   8.753   6.235   1.400
10184W        W17400   5.971  12.946   1.917
10185W        W17401   5.251   8.231   1.130
10186W        W17402   7.715  11.725   2.048
10187W        W17403   2.183   0.509   0.765
10188W        W17404   6.369   5.450   3.018
10189W        W17405   5.292   5.417   7.801
10190W        W17406   4.316   8.135   1.645
10191W        W17407  12.071   4.807  11.471
10192W        W17408   2.130   8.302   0.206
10193W        W17409  13.143  11.505   9.403
10194W        W17410   9.158   2.439   1.258
10195W        W17411   2.009   6.338   2.158
10196W        W17412  11.230  12.059   1.894
10197W        W17413  10.432  11.040   2.563
10198W        W17414  13.217   1.318   2.977
10199W        W17415   8.902   6.889  11.457
10200W        W17416   2.991  10.958  11.894
10201W        W17417   4.818  12.395  11.954
10202W        W17418  12.171  11.155   0.606
10203W        W17419   1.009   2.341   2.656
10204W        W17420   3.789   8.405  11.919
10205W        W17421  12.117  11.677   0.818
10206W        W17422  12.095  11.431  11.799
10207W        W17423   3.023   7.998   3.450
10208W        W17424  13.500   7.039  11.096
10209W        W17425   4.619   6.928  10.951
10210W        W17426   5.589  12.022   2.383
10211W        W17427   5.909   2.255   1.286
10212W        W17428  12.231  11.003   8.279
10213W        W17429  13.268  10.551   1.339
10214W        W17430  11.633   3.633   9.947
10215W        W17431   1.177  10.579   0.474
10216W        W17432   9.682   3.423   8.772
10217W        W17433  10.656   1.421   9.704
10218W        W17434   5.215   3.688   3.059
10219W        W17435   0.078  11.568   1.312
10220W        W17436   6.806   6.113   2.386
10221W        W17437   6.534  10.445   0.327
10222W        W17438   0.596   5.210  10.839
10223W        W17439  10.816   0.052   8.610
10224W        W17440   7.083   0.561  11.313
10225W        W17441  10.368  12.934   2.612
10226W        W17442   0.747   8.036  10.976
10227W        W17443  12.577   4.925   0.343
10228W        W17444  13.921   0.473  10.973
10229W        W17445   5.969   2.050   8.235
10230W        W17446   4.069   5.709   9.418
10231W        W17447   5.688   0.386   8.697
10232W        W17448   7.992   4.670  11.497
10233W        W17449   5.268   8.005   9.209
10234W        W17450   7.550   5.243   0.177
10235W        W17451   4.376   6.461   8.950
10236W        W17452   2.772   5.452  11.319
10237W        W17453   7.747   1.714   7.993
10238W        W17454   7.190   4.406  10.817
10239W        W17455   3.198   4.000   1.095
10240W        W17456   9.639  10.917   0.774
10241W        W17457  12.997   9.078   0.334
10242W        W17458   3.096   6.836  10.417
10243W        W17459   7.197  10.117   1.675
10244W        W17460   5.787   4.964   8.158
10245W        W17461   5.728   6.181  11.272
10246W        W17462   1.873   1.436  10.285
10247W        W17463   1.988   5.076   2.495
10248W        W17464   3.360   5.484   4.449
10249W        W17465   5.637   7.581   8.459
10250W        W17466   2.592   7.146   1.449
10251W        W17467   6.179   2.936  11.697
10252W        W17468   6.198   7.764   1.967
10253W        W17469   7.759   5.786   2.733
10254W        W17470   6.638   0.653   0.162
10255W        W17471   4.976   8.497   0.407
10256W        W17472   8.692  10.367  11.980
10257W        W17473   7.515   8.954   9.814
10258W        W17474  13.279   8.695   8.827
10259W        W17475   0.783  10.720  10.566
10260W        W17476   3.623   2.692  11.292
10261W        W17477   6.598   3.456   3.482
10262W        W17478   7.262  11.546   3.158
10263W        W17479   6.208  12.167   3.117
10264W        W17480   8.794   8.748   1.290
10265W        W17481  10.603  12.591   1.352
10266W        W17482   0.000   2.871  10.794
10267W        W17483   5.479   3.903  10.164
10268W        W17484   3.391  10.741   3.476
10269W        W17485   3.507   0.353   9.655
10270W        W17486   1.200   5.238   9.960
10271W        W17487   4.045   8.471  10.157
10272W        W17488  11.083  10.759  10.290
10273W        W17489   6.659   3.419  11.677
10274W        W17490  10.450  11.221  11.046
10275W        W17491   3.808   8.981   1.530
10276W        W17492  11.723   5.839   0.896
10277W        W17493   8.561   1.849   9.567
10278W        W17494   0.499   6.179   0.327
10279W        W17495  11.315   4.887  11.822
10280W        W17496  11.389  10.286   0.143
10281W        W17497   3.768   2.197  10.814
10282W        W17498   9.575   4.879   7.817
10283W        W17499   5.367   0.569   3.197
10284W        W17500  11.468   0.525   3.954
10285W        W17501   9.058   9.515   0.361
10286W        W17502   3.897   8.309  11.438
10287W        W17503  11.543   3.600   8.625
10288W        W17504   8.390  10.288  11.183
10289W        W17505   8.480   3.111  11.426
10290W        W17506   2.918  12.922  11.069
10291W        W17507   7.647   7.768   8.325
10292W        W17508   3.052   7.750   9.266
10293W        W17509  13.067   3.429   0.171
10294W        W17510   7.357  13.420   9.926
10295W        W17511   4.858  11.561   1.634
10296W        W17512   1.895   0.697   8.501
10297W        W17513   3.955   3.734   1.750
10298W        W17514   4.109   1.177  11.830
10299W        W17515   3.530  11.682   3.592
10300W        W17516  12.621   8.323   2.433
10301W        W17517   0.093   4.770  11.326
10302W        W17518  10.622  10.148  11.723
10303W        W17519  11.268   7.476  11.559
10304W        W17520   0.877   0.119   2.699
10305W        W17521   0.727   3.952   3.155
10306W        W17522   9.510   9.775   1.930
10307W        W17523   5.490   3.281   9.345
10308W        W17524  11.746   0.218   3.619
10309W        W17525  10.444  12.888   0.385
10310W        W17526   8.814  10.791   1.055
10311W        W17527   4.285   9.106   1.453
10312W        W17528   9.150  12.065   8.603
10313W        W17529  12.117   0.118   8.068
10314W        W17530   0.858   9.597   2.232
10315W        W17531  10.408   2.978   9.530
10316W        W17532   0.605   9.144   2.498
10317W        W17533   2.834   4.996  11.974
10318W        W17534  10.461   1.193  11.179
10319W        W17535   0.781   3.672   7.380
10320W        W17536   6.712   1.637   8.497
10321W        W17537   1.547   5.876  10.955
10322W        W17538   8.467   6.221   2.590
10323W        W17539   1.755   3.867   1.984
10324W        W17540   3.094  13.117   3.836
10325W        W17541   6.153   8.604   9.023
10326W        W17542   7.497   6.247   1.622
10327W        W17543  13.960   6.998   1.543
10328W        W17544  10.502   8.656   1.518
10329W        W17545   7.272   9.902   2.280
10330W        W17546   9.594   1.253  10.886
10331W        W17547   2.132  13.767   2.323
10332W        W17548   6.245  12.089   1.748
10333W        W17549   6.212   6.198  10.908
10334W        W17550   4.583   0.852   8.378
10335W        W17551   6.149   4.981   7.786
10336W        W17552  11.677   3.638  11.864
10337W        W17553   6.224   1.329   1.843
10338W        W17554  13.670  13.552   9.757
10339W        W17555   9.869   8.451   9.719
10340W        W17556   2.720  10.869   2.521
10341W        W17557  12.348   3.740   9.591
10342W        W17558  12.086   2.783  11.428
10343W        W17559   9.144   0.894   3.408
10344W        W17560   5.353  13.739   2.626
10345W        W17561   0.591   7.160   8.948
10346W        W17562   5.165   2.925   0.552
10347W        W17563   2.805   5.647   4.362
10348W        W17564   1.908   0.469   0.108
10349W        W17565   4.717   5.927  11.073
10350W        W17566   2.395   0.481   1.637
10351W        W17567  11.825   4.863   0.670
10352W        W17568   1.545   4.191   2.763
10353W        W17569   5.637   7.513   1.187
10354W        W17570   2.955   3.471   1.250
10355W        W17571  10.441   2.642  11.090
10356W        W17572   1.324   6.895  11.419
10357W        W17573   8.911  11.858   3.359
10358W        W17574   9.753   9.045   8.161
10359W        W17575  10.500   5.826   0.156
10360W        W17576   6.262   3.830   8.351
10361W        W17577   0.677   9.131   2.988
10362W        W17578  10.070   4.322   0.989
10363W        W17579  10.876   9.242   8.888
10364W        W17580   7.209   7.126  10.677
10365W        W17581  10.261   1.577   9.143
10366W        W17582   4.125   3.699   8.505
10367W        W17583  13.201   1.462  10.180
10368W        W17584   6.800  13.678   8.911
10369W        W17585   4.273   1.796   0.163
10370W        W17586  13.734   3.259   1.188
10371W        W17587  13.471  12.120   0.379
10372W        W17588   3.638   9.818   1.435
10373W        W17589   8.217  10.575   0.846
10374W        W17590   8.601   5.975   3.226
10375W        W17591  11.234   7.929   2.385
10376W        W17592  13.726   8.993   2.301
10377W        W17593   7.320   9.112   0.939
10378W        W17594   2.942   7.676   0.129
10379W        W17595   4.282   9.111   0.406
10380W        W17596   1.991   1.687   3.212
10381W        W17597   6.222   6.931  10.457
10382W        W17598   5.149  12.683   0.999
10383W        W17599  12.861  11.073   0.339
10384W        W17600   2.720   0.268   8.163
10385W        W17601   6.204  10.718  10.866
10386W        W17602   4.979   6.058   2.213
10387W        W17603  10.928   6.874   1.596
10388W        W17604  13.409   6.853   8.605
10389W        W17605  12.052  11.849   9.895
10390W        W17606  10.745   4.700   1.530
10391W        W17607   5.055  10.687   3.143
10392W        W17608  11.658   7.518   9.524
10393W        W17609   4.969   1.022  10.645
10394W        W17610   4.327   4.660   9.986
10395W        W17611  12.737   5.893   1.842
10396W        W17612  11.378   4.582   9.470
10397W        W17613   2.581  12.825   1.551
10398W        W17614   4.647  13.817   2.753
10399W        W17615  10.600  12.393  10.482
10400W        W17616   1.693   1.102  10.650
10401W        W17617   9.570   1.050  10.435
10402W        W17618  12.410   8.570   1.215
10403W        W17619   5.356  10.687  11.682
10404W        W17620  11.999  10.353   2.825
10405W        W17621  12.089   1.559   0.986
10406W        W17622   9.798   4.269  10.690
10407W        W17623   0.608   8.089   8.189
10408W        W17624   8.149   2.603   1.038
10409W        W17625   8.805   8.225  11.590
10410W        W17626   8.095   4.000   3.036
10411W        W17627  12.752  11.413  10.913
10412W        W17628   1.373   2.434   2.975
10413W        W17629   1.521  12.723   2.894
10414W        W17630   2.315   3.200   2.117
10415W        W17631   7.922  12.801   2.180
10416W        W17632  10.763   1.140   0.643
10417W        W17633   1.341   2.687   2.467
10418W        W17634   7.412   9.693   1.026
10419W        W17635   0.093   0.833   2.190
10420W        W17636   7.735  10.786   8.732
10421W        W17637  10.131   5.520   2.957
10422W        W17638   0.209   9.133   0.710
10423W        W17639  11.150  13.530   9.723
10424W        W17640  10.677   8.599  10.330
10425W        W17641  10.523   4.609  10.092
10426W        W17642   5.468  13.800   8.926
10427W        W17643  13.895   0.921   8.035
10428W        W17644   5.051   4.240   8.001
10429W        W17645   8.353   5.215   1.354
10430W        W17646   3.130   0.619  10.683
10431W        W17647   3.326   8.124   2.507
10432W        W17648   7.369  12.420   3.711
10433W        W17649   2.515   9.785   9.068
10434W        W17650   0.722   9.647   9.710
10435W        W17651   7.768   8.429   3.329
10436W        W17652   4.036  10.886   9.253
10437W        W17653  11.589  12.002   9.192
10438W        W17654   2.902   5.697  10.379
10439W        W17655  12.046   9.434   3.171
10440W        W17656   6.091  10.819   0.495
10441W        W17657   5.900   6.317   1.365
10442W        W17658   1.950   6.382   3.502
10443W        W17659   6.562  10.683   1.377
10444W        W17660   7.806  11.095   2.603
10445W        W17661  11.399  13.182   2.135
10446W        W17662   2.476   5.850  10.627
10447W        W17663  10.209   7.957   3.333
10448W        W17664   9.789  12.510   3.899
10449W        W17665  12.037   5.105   8.015
10450W        W17666  12.222   6.318   3.529
10451W        W17667   0.615  13.389  10.784
10452W        W17668   7.215   8.623   2.112
10453W        W17669   7.224   1.212   3.527
10454W        W17670   2.294  11.692   1.263
10455W        W17671   5.513   8.499   1.507
10456W        W17672   7.640   9.981   1.936
10457W        W17673   7.696   2.664   0.842
10458W        W17674  11.295   6.936  11.624
10459W        W17675  11.107  13.459   1.242
10460W        W17676   0.010   7.765   2.721
10461W        W17677   9.897  11.701   9.479
10462W        W17678   7.592   6.329   0.104
10463W        W17679   9.891   1.193  10.073
10464W        W17680  12.724   4.941   1.591
10465W        W17681  13.711  12.856  11.007
10466W        W17682   8.960  13.588   8.381
10467W        W17683   5.358   5.305   9.769
10468W        W17684   7.627   2.659   9.153
10469W        W17685   6.983  12.904   2.437
10470W        W17686  12.896  12.007   1.281
10471W        W17687   6.854  13.160   0.054
10472W        W17688   9.310   5.621   9.372
10473W        W17689   5.589   5.078   1.208
10474W        W17690   9.566  13.820   3.577
10475W        W17691   8.666   0.699  10.272
10476W        W17692   2.991  12.855   1.249
10477W        W17693   9.636   2.002   2.386
10478W        W17694   0.715  12.253   0.212
10479W        W17695  12.950   4.774   7.918
10480W        W17696   4.696   9.231  10.141
10481W        W17697   9.558   0.927   8.253
10482W        W17698  12.367   1.454   8.182
10483W        W17699  12.581   3.583   1.409
10484W        W17700  13.437  10.300   0.243
10485W        W17701   9.110  13.702   9.208
10486W        W17702   8.417   6.490   1.108
10487W        W17703  12.091   7.441   8.641
10488W        W17704   8.860  10.448  11.058
10489W        W17705   8.907  12.811   4.272
10490W        W17706  13.788  12.896   1.041
10491W        W17707   7.589  10.836  10.119
10492W        W17708   6.511   0.594   2.502
10493W        W17709   2.377  12.419   9.518
10494W        W17710  11.303   3.972  11.958
10495W        W17711   0.706   7.532  11.022
10496W        W17712   9.860   8.141  11.668
10497W        W17713  12.231   8.102   9.339
10498W        W17714   9.367   0.127   9.670
10499W        W17715   0.283   9.560   3.621
10500W        W17716  13.394  10.774   8.444
10501W        W17717   1.216  10.834   9.852
10502W        W17718   9.939  13.530   0.575
10503W        W17719   9.254   6.168   1.493
10504W        W17720  12.406  12.579   0.671
10505W        W17721  12.252  12.939   0.977
10506W        W17722   1.009  13.996   0.768
10507W        W17723   6.727   4.130  10.106
10508W        W17724  11.182   8.521   1.966
10509W        W17725   5.450   9.258   7.861
10510W        W17726  10.445   3.084  11.383
10511W        W17727   5.213   1.931   2.048
10512W        W17728   4.981   9.638  10.002
10513W        W17729   5.761   3.884   0.314
10514W        W17730   8.118  13.239   7.465
10515W        W17731   2.687  13.230   1.145
10516W        W17732   4.483  12.219   2.221
10517W        W17733   9.641   8.087  11.193
10518W        W17734  12.411   8.135   0.918
10519W        W17735  11.980   7.567   0.437
10520W        W17736   5.440   0.141   9.301
10521W        W17737   3.739  10.955  11.188
10522W        W17738  12.441   2.782   0.740
10523W        W17739  11.161   3.610   2.651
10524W        W17740   3.382  10.229   3.294
10525W        W17741   2.366  12.532  11.647
10526W        W17742   5.148   0.392   0.164
10527W        W17743   7.403   5.002  10.765
10528W        W17744   1.567   5.217   9.613
10529W        W17745  11.787   8.766   4.224
10530W        W17746   3.374   4.517   1.172
10531W        W17747   2.861   1.261   8.539
10532W        W17748   9.489   4.092   9.323
10533W        W17749   4.124  12.541  10.066
10534W        W17750   9.866  12.447   1.522
10535W        W17751  11.926   7.128   0.774
10536W        W17752   0.524   3.760   9.541
10537W        W17753   2.851   5.860   3.273
10538W        W17754   0.894   3.910   9.023
10539W        W17755   3.448  10.922   9.717
10540W        W17756   2.652   5.308   2.051
10541W        W17757  12.390   0.046   9.596
10542W        W17758  12.030   4.360  10.774
10543W        W17759   9.586  10.640   8.795
10544W        W17760  12.306   9.611   2.261
10545W        W17761   1.166   5.507  11.487
10546W        W17762   1.087  12.010  11.575
10547W        W17763   2.494  10.515   1.441
10548W        W17764   0.254   7.013   3.560
10549W        W17765  11.681   0.893   0.615
10550W        W17766   6.139   3.422  11.510
10551W        W17767  11.023  11.746   1.537
10552W        W17768   9.293  10.687   1.051
10553W        W17769  10.196   0.570  10.443
10554W        W17770   4.003   7.019   1.144
10555W        W17771  12.538  13.094   3.227
10556W        W17772   7.253  13.891   8.306
10557W        W17773   0.530   0.354  10.313
10558W        W17774   4.579   1.235   3.234
10559W        W17775   8.929   5.846   1.721
10560W        W17776   9.806   4.778   1.296
10561W        W17777  12.983   8.649  10.656
10562W        W17778  10.716   4.327   2.323
10563W        W17779  12.192   1.031  10.965
10564W        W17780   0.361   1.805   0.725
10565W        W17781   3.229   7.167   0.178
10566W        W17782   0.279  13.252   2.918
10567W        W17783  13.090   9.343   1.801
10568W        W17784  12.111   7.844   1.430
10569W        W17785   4.197   1.008   9.712
10570W        W17786   7.656   5.099  10.311
10571W        W17787  13.766  12.228   7.852
10572W        W17788  13.424  10.450  11.754
10573W        W17789   8.074  10.654  11.031
10574W        W17790  13.891  10.435   1.034
10575W        W17791  13.170   8.882   8.319
10576W        W17792   9.353  11.043   3.777
10577W        W17793  10.421   3.833   8.143
10578W        W17794   5.750   7.117  10.458
10579W        W17795  11.034   6.579  10.129
10580W        W17796   8.610   6.876   0.793
10581W        W17797  10.252   0.060   0.759
10582W        W17798   4.189   8.307   9.235
10583W        W17799   7.789  12.430  10.838
10584W        W17800  11.705   4.998   1.634
10585W        W17801   4.047   2.059   3.515
10586W        W17802  11.086  12.171   0.574
10587W        W17803   8.450   5.890  10.105
10588W        W17804  10.505   6.354   8.928
10589W        W17805   0.189   3.232  11.079
10590W        W17806   5.898   8.800   9.443
10591W        W17807   6.988  10.679   0.372
10592W        W17808   6.258   8.156   9.946
10593W        W17809   0.066  13.521   8.953
10594W        W17810  10.574   1.686  11.407
10595W        W17811  11.455   6.800   9.648
10596W        W17812   4.381   2.890   2.543
10597W        W17813   0.073   3.920   3.787
10598W        W17814  11.706  11.838  10.677
10599W        W17815   9.670  12.068   9.750
10600W        W17816   7.183   6.987  11.158
10601W        W17817   1.709   0.272   1.481
10602W        W17818   3.545   6.070  11.472
10603W        W17819   7.481  12.476   8.460
10604W        W17820  13.959   9.578   8.875
10605W        W17821  13.488   6.553   2.825
10606W        W17822   7.148   9.944   3.910
10607W        W17823  11.655  13.510   1.231
10608W        W17824   1.845   2.390   3.749
10609W        W17825   4.900  10.264  10.792
10610W        W17826   6.478  10.982  11.553
10611W        W17827   5.626  11.512  11.756
10612W        W17828  10.779   5.146   1.790
10613W        W17829   8.820   3.759  11.832
10614W        W17830  12.660   9.183   3.666
10615W        W17831  13.299   3.281   3.221
10616W        W17832   7.643   4.184  10.520
10617W        W17833   9.781   2.979  10.136
10618W        W17834   8.128   6.856   8.944
10619W        W17835   4.053  12.159   2.491
10620W        W17836   0.620   6.651  11.535
10621W        W17837   1.599   2.026   2.026
10622W        W17838  10.562  13.786  10.439
10623W        W17839  12.401   6.710   0.035
10624W        W17840   1.221  13.102   1.073
10625W        W17841   4.445   2.568   8.775
10626W        W17842  10.759   0.859  11.426
10627W        W17843   9.159   7.968  11.281
10628W        W17844  10.846   4.075  11.821
10629W        W17845   4.000  13.469   1.766
10630W        W17846   6.442  13.521   0.591
10631W        W17847  11.652  10.995   0.618
10632W        W17848   0.114   0.217   0.616
10633W        W17849   2.826  13.409   7.789
10634W        W17850   5.866   3.627  11.898
10635W        W17851  12.928  12.815   9.543
10636W        W17852   4.852   5.288   2.695
10637W        W17853  13.111   7.585   3.056
10638W        W17854   7.857   8.368  11.496
10639W        W17855   4.707   2.585   2.338
10640W        W17856   9.114  12.601   8.581
10641W        W17857   1.593   7.184   3.616
10642W        W17858   1.016  12.100   1.793
10643W        W17859   6.375   2.361   8.929
10644W        W17860   8.200  11.031   1.658
10645W        W17861  13.432   4.527   2.035
10646W        W17862  11.528   3.215   8.993
10647W        W17863   1.542   7.125   0.361
10648W        W17864   9.668   2.092   8.752
10649W        W17865  10.937  13.107   8.280
10650W        W17866   0.096   9.535   4.138
10651W        W17867   7.548   0.926   9.212
10652W        W17868   4.902   6.314  10.754
10653W        W17869  10.048   4.919  10.500
10654W        W17870   0.157   9.151   9.036
10655W        W17871   6.191   5.931  10.506
10656W        W17872   8.914   8.712   3.113
10657W        W17873   6.364   5.132   1.834
10658W        W17874   4.946   9.994  10.372
10659W        W17875  13.806   7.939   1.531
10660W        W17876   2.646   3.035   0.485
10661W        W17877   1.973   7.964   3.498
10662W        W17878   4.119   4.808   0.565
10663W        W17879   3.972   7.451  11.257
10664W        W17880   7.124   6.442  11.937
10665W        W17881   5.070   1.876  10.423
10666W        W17882   5.621   8.673  10.961
10667W        W17883   8.654   6.208  10.427
10668W        W17884   7.136   7.696   8.431
10669W        W17885   4.215   3.155   9.908
10670W        W17886  11.547   8.042   8.862
10671W        W17887   0.151   8.138  11.715
10672W        W17888   0.902   2.022   9.067
10673W        W17889   1.297   4.526   0.805
10674W        W17890   2.194   4.479   2.475
10675W        W17891   7.835  13.326   0.165
10676W        W17892   4.645  13.621  11.450
10677W        W17893  10.951  10.091  11.331
10678W        W17894   4.485  12.883   8.927
10679W        W17895   6.313  12.391   2.690
10680W        W17896   8.528   5.732  10.583
10681W        W17897   4.212   9.449  11.013
10682W        W17898  11.571   4.825  11.371
10683W        W17899   7.772   4.915   9.489
10684W        W17900   8.995   0.766  11.185
10685W        W17901   4.905   4.063   0.705
10686W        W17902   0.335   2.954  10.089
10687W        W17903  12.103   7.088   2.071
10688W        W17904   1.700   8.066  10.724
10689W        W17905   0.398   4.437   9.082
10690W        W17906   5.936   9.066   1.750
10691W        W17907  13.720   5.748  10.803
10692W        W17908   7.493   3.080   2.490
10693W        W17909   6.710   7.407   2.620
10694W        W17910  10.802   2.583   3.605
10695W        W17911   1.579  10.125   8.859
10696W        W17912  13.768   2.712   3.512
10697W        W17913   6.861   4.143   1.927
10698W        W17914  11.420   7.957  11.363
10699W        W17915  11.821  11.210   3.230
10700W        W17916   7.309   4.425   2.112
10701W        W17917   8.431   5.052   0.129
10702W        W17918   7.140  11.380   1.887
10703W        W17919  12.789  11.305   3.380
10704W        W17920  12.947   7.591   0.280
10705W        W17921   7.424   6.822   2.776
10706W        W17922   7.808   9.697  10.791
10707W        W17923   9.551  13.446   1.919
10708W        W17924   4.086   9.799  10.582
10709W        W17925  13.640   6.208   1.703
10710W        W17926   3.358   0.973  11.733
10711W        W17927   8.267   3.579   2.804
10712W        W17928   9.797   8.770   0.509
10713W        W17929   8.900   8.357   0.452
10714W        W17930   9.785   0.578  11.634
10715W        W17931   0.564  13.357   9.660
10716W        W17932   1.305  13.522   2.052
10717W        W17933  13.275  11.404   3.342
10718W        W17934   4.695  11.140   0.828
10719W        W17935  13.877   7.024   2.254
10720W        W17936   2.173   5.189   3.257
10721W        W17937   5.222   4.851  10.277
10722W        W17938  12.314   8.760   4.308
10723W        W17939   7.971   9.871   3.699
10724W        W17940  12.876   5.185   8.197
10725W        W17941  11.857   0.136   9.627
10726W        W17942  12.795  11.979   2.136
10727W        W17943   9.379   7.541   0.073
10728W        W17944  12.415  10.293  10.503
10729W        W17945   9.171   8.690   2.254
10730W        W17946   7.991  13.976   0.417
10731W        W17947   3.175   7.169   8.649
10732W        W17948   5.061   3.802   3.541
10733W        W17949   7.198  10.516  10.007
10734W        W17950   0.185   5.778   0.265
10735W        W17951   9.769   9.445   2.201
10736W        W17952   5.348   2.555  11.728
10737W        W17953   3.343   4.359   3.197
10738W        W17954   6.010   9.212   3.429
10739W        W17955   8.933   6.793   3.308
10740W        W17956   0.984   1.379   9.809
10741W        W17957   4.816   5.545   3.133
10742W        W17958   7.115  10.065  10.282
10743W        W17959  11.751   9.643   2.338
10744W        W17960  11.744  13.921   4.055
10745W        W17961   5.532   4.864   9.324
10746W        W17962   5.096   6.234   8.613
10747W        W17963  13.903  12.196   9.836
10748W        W17964   9.837   3.281  10.643
10749W        W17965  10.636   5.385   9.126
10750W        W17966  10.302   3.905   9.138
10751W        W17967  10.050   8.824  11.201
10752W        W17968  13.216  13.346   8.976
10753W        W17969  12.319   8.728  10.841
10754W        W17970  13.547   2.567   9.528
10755W        W17971   3.723   8.836   2.044
10756W        W17972  13.601   4.446   8.928
10757W        W17973  13.921  10.577  11.589
10758W        W17974   0.126   9.877   0.502
10759W        W17975   6.641   7.209   1.175
10760W        W17976  10.610   9.617   0.921
10761W        W17977   4.860  10.674  11.934
10762W        W17978   0.155   8.818   8.679
10763W        W17979   2.835   1.749   0.143
10764W        W17980   9.398   3.214   2.089
10765W        W17981  13.059  10.606   0.508
10766W        W17982   2.622  10.894   8.885
10767W        W17983   8.939   6.590   1.688
10768W        W17984   7.687  13.263   8.595
10769W        W17985   1.469   2.186   2.510
10770W        W17986  12.577   8.362   1.915
10771W        W17987  12.459   8.267  10.116
10772W        W17988   5.287   8.153   9.715
10773W        W17989  13.627   0.830   2.384
10774W        W17990  13.359   1.831   0.895
10775W        W17991   8.800   5.116   2.855
10776W        W17992   2.369  11.263   0.990
10777W        W17993   6.657   9.565   9.339
10778W        W17994   7.234   2.138   3.523
10779W        W17995   5.779   6.085   7.968
10780W        W17996  13.152  12.191  10.919
10781W        W17997   3.161  13.329   1.277
10782W        W17998  11.198   2.783   2.097
10783W        W17999  10.419   8.704   8.916
10784W        W18000   8.500   3.235   3.644
10785W        W18001   4.564   0.486   2.580
10786W        W18002   6.463  13.757  11.304
10787W        W18003   4.369  12.452   4.309
10788W        W18004   0.034  13.198   0.111
10789W        W18005   1.838   2.838   2.396
10790W        W18006   3.889   1.182   0.603
10791W        W18007   8.914  12.296   4.330
10792W        W18008   9.866   3.801  10.914
10793W        W18009   7.406  11.455   0.076
10794W        W18010  12.167  10.046   8.620
10795W        W18011   2.913  11.356  10.432
10796W        W18012  12.917   3.480   0.689
10797W        W18013  10.641   2.225   2.404
10798W        W18014   5.603   0.603   9.141
10799W        W18015   8.039   7.319   8.745
10800W        W18016   6.335   3.799  11.795
10801W        W18017  11.708   1.946   3.992
10802W        W18018  13.470  10.592   3.589
10803W        W18019  11.738   5.728  11.411
10804W        W18020  12.156  13.000   1.797
10805W        W18021  12.787   6.142  10.608
10806W        W18022   4.554  12.241   1.681
10807W        W18023  12.288   9.020   1.060
10808W        W18024   1.929   3.608   3.484
10809W        W18025  13.416   3.178  11.907
10810W        W18026   0.017   0.537   1.390
10811W        W18027  11.681   9.240   0.759
10812W        W18028   0.214   0.988   0.431
10813W        W18029   9.585   1.878  11.661
10814W        W18030   7.177   0.323   0.784
10815W        W18031   3.533   6.508   9.320
10816W        W18032   1.154   8.908   2.962
10817W        W18033   0.927   9.491   3.211
10818W        W18034   8.867   5.690  11.098
10819W        W18035   4.266   9.952   2.388
10820W        W18036  11.848   0.130   2.228
10821W        W18037   0.841   8.794   3.341
10822W        W18038   8.442   0.666   1.106
10823W        W18039  11.738   3.482   2.464
10824W        W18040   2.004   4.620  10.153
10825W        W18041  10.003   3.716   1.755
10826W        W18042   8.344   3.639   3.315
10827W        W18043   1.267   5.733   9.849
10828W        W18044  13.747   5.168   0.821
10829W        W18045  11.051   4.723   7.646
10830W        W18046   5.296   6.568  10.044
10831W        W18047   4.140   2.954   3.379
10832W        W18048  11.712   2.243   1.762
10833W        W18049   3.925   2.567   3.590
10834W        W18050   7.863   2.748   3.236
10835W        W18051   2.764   9.820  10.407
10836W        W18052   2.749   2.189   9.973
10837W        W18053  11.440   8.074  11.878
10838W        W18054   2.435  13.111  10.008
10839W        W18055   7.878   0.420   1.611
10840W        W18056  13.109   4.278   0.629
10841W        W18057   9.283   8.016   0.522
10842W        W18058   8.977   1.538   0.974
10843W        W18059   6.405  12.860   9.401
10844W        W18060   9.074   2.672   0.308
10845W        W18061   2.854   5.875   0.110
10846W        W18062   8.210   1.095   4.335
10847W        W18063  10.068   8.382   3.031
10848W        W18064   3.162  10.527   9.974
10849W        W18065   4.100   8.665   8.486
10850W        W18066   3.823   4.312   2.997
10851W        W18067   7.282   2.341   0.689
10852W        W18068   5.854   5.394   2.927
10853W        W18069   6.839   1.048  11.032
10854W        W18070   7.537  11.297   9.442
10855W        W18071   8.661  10.925   1.521
10856W        W18072  13.026   1.892   3.088
10857W        W18073   7.460   9.832   3.524
10858W        W18074   0.872   1.627   2.799
10859W        W18075   2.850   8.553   8.998
10860W        W18076   1.341   7.055  10.167
10861W        W18077   5.499  13.050   9.954
10862W        W18078   7.494   7.154   9.520
10863W        W18079  12.168  11.998  10.917
10864W        W18080   5.536   7.797  11.470
10865W        W18081  11.662  11.974   3.047
10866W        W18082   9.760   8.476   0.095
10867W        W18083  11.628   1.758   1.136
10868W        W18084  13.302   2.928   2.362
10869W        W18085   7.465   3.979   0.015
10870W        W18086   7.164   0.404   1.273
10871W        W18087   4.458   3.303  10.643
10872W        W18088  11.892  10.017   2.057
10873W        W18089   6.040  12.394  10.520
10874W        W18090  10.884   8.772   2.269
10875W        W18091   9.564   7.190   9.967
10876W        W18092   7.536   2.515   3.675
10877W        W18093  10.176   4.597   8.452
10878W        W18094  10.177   9.261   0.856
10879W        W18095   9.844   2.168   1.959
10880W        W18096   2.434  12.184   0.487
10881W        W18097   9.894   7.063   9.528
10882W        W18098  10.506   0.768   2.273
10883W        W18099   4.234   2.103  10.979
10884W        W18100   7.113   2.679   9.298
10885W        W18101   5.506   4.426  10.218
10886W        W18102   6.908   4.255   9.543
10887W        W18103  10.150   1.387  11.512
10888W        W18104   3.110   2.669   1.752
10889W        W18105  12.024   8.468   7.874
10890W        W18106   8.176  12.046   3.222
10891W        W18107   0.704  11.388   0.236
10892W        W18108   2.877   0.640   1.673
10893W        W18109   4.555   8.904   8.560
10894W        W18110  12.780   1.216   2.196
10895W        W18111  12.689   0.846  11.497
10896W        W18112  12.411  13.491   2.227
10897W        W18113   7.718  11.865   3.035
10898W        W18114  13.272  10.274  11.061
10899W        W18115  13.394  13.156   2.934
10900W        W18116   7.866   8.099   9.672
10901W        W18117   0.600   6.328   7.750
10902W        W18118   7.355   1.407   9.092
10903W        W18119  10.513  12.878  10.647
10904W        W18120   5.385  10.410   9.478
10905W        W18121   6.601   0.561   9.217
10906W        W18122   1.563   9.506  10.111
10907W        W18123  12.019   8.688  11.279
10908W        W18124   2.858  11.391   0.123
10909W        W18125  12.465   9.198   2.967
10910W        W18126   6.110   9.052  10.238
10911W        W18127   9.819  11.527   2.975
10912W        W18128   4.288   1.130   2.841
10913W        W18129   9.811   6.496   8.691
10914W        W18130   2.692   9.330   9.873
10915W        W18131   8.817  13.721   2.446
10916W        W18132  13.836   5.787   3.641
10917W        W18133   6.823   9.040   8.648
10918W        W18134  10.064  10.135  10.005
10919W        W18135   1.903  12.197   1.741
10920W        W18136   7.297   8.176   9.050
10921W        W18137   2.433   6.769   3.435
10922W        W18138   4.896   2.472  10.942
10923W        W18139  11.345   0.491  11.501
10924W        W18140   7.426  10.921   0.505
10925W        W18141   0.888  10.451  11.745
10926W        W18142   5.724   0.329   0.068
10927W        W18143   7.901   9.866   2.866
10928W        W18144   7.114   0.277  10.004
10929W        W18145   5.587   6.560   2.556
10930W        W18146   7.405   2.823   2.944
10931W        W18147   4.232   0.055   9.858
10932W        W18148  10.414   0.911   0.363
10933W        W18149  10.232   7.041   3.173
10934W        W18150   8.243  13.397  11.798
10935W        W18151  13.461   9.107  11.498
10936W        W18152   8.721  10.148  10.646
10937W        W18153   0.741   7.562   3.092
10938W        W18154   1.334   0.214   9.161
10939W        W18155   1.410   5.373  11.051
10940W        W18156   1.615   3.734   1.023
10941W        W18157   5.873  10.437  11.156
10942W        W18158  12.805   1.587  10.461
10943W        W18159  11.688   9.085   2.858
10944W        W18160   4.934   7.296   2.266
10945W        W18161   4.161   1.162   1.399
10946W        W18162   1.948   6.532  10.816
10947W        W18163   6.839   5.571   0.213
10948W        W18164   3.247  13.739   8.863
10949W        W18165  13.686   0.522   0.575
10950W        W18166   1.855  13.602   3.166
10951W        W18167   9.191   4.325  11.370
10952W        W18168   9.210   9.955   8.564
10953W        W18169   0.246   2.535   2.108
10954W        W18170   4.146   7.158   3.222
10955W        W18171  13.970   0.351   3.874
10956W        W18172   7.462   3.848   9.021
10957W        W18173   4.305   0.001   0.052
10958W        W18174   2.206   8.664  11.427
10959W        W18175   1.123   7.453  10.385
10960W        W18176   1.607   4.909   1.170
10961W        W18177  11.434   8.817   9.252
10962W        W18178   2.806  13.730   3.116
10963W        W18179   7.274   3.414  10.074
10964W        W18180   2.928   4.831   8.457
10965W        W18181   9.044   9.802   2.097
10966W        W18182   9.138   9.522   1.668
10967W        W18183  13.629   1.742   7.962
10968W        W18184   8.420  13.002   4.247
10969W        W18185  10.708  11.547   0.231
10970W        W18186   9.367   5.655   1.429
10971W        W18187  13.830  10.514   8.598
10972W        W18188   0.798   3.167   0.700
10973W        W18189   0.090   5.729   8.226
10974W        W18190   6.429   3.009  10.794
10975W        W18191   0.705  12.086   0.813
10976W        W18192   2.606  11.259  11.724
10977W        W18193   7.159   0.503   0.317
10978W        W18194  10.796   5.901   9.105
10979W        W18195   0.974   3.365  10.143
10980W        W18196  13.710   9.689   4.471
10981W        W18197  11.968   8.920   1.932
10982W        W18198  10.908  12.395   0.979
10983W        W18199   2.326   0.916   1.085
10984W        W18200   1.062  12.506   1.459
10985W        W18201  12.917   2.253   1.733
10986W        W18202   9.059   6.306   3.376
10987W        W18203  12.054   9.152  11.521
10988W        W18204  12.761   0.078   1.431
10989W        W18205   6.264   7.349   2.383
10990W        W18206  12.937  11.937   0.408
10991W        W18207   1.422   7.932   0.619
10992W        W18208   6.869   3.711  11.280
10993W        W18209   7.653   0.641  10.930
10994W        W18210   8.325   7.881   0.915
10995W        W18211   6.224   4.435   0.829
10996W        W18212   0.034  13.343   7.892
10997W        W18213   4.150   7.695   0.284
10998W        W18214   7.105   7.051   1.382
10999W        W18215   7.701   3.515   9.824
11000W        W18216  11.108   8.983  11.017
11001W        W18217   9.774   5.540   2.024
11002W        W18218   9.557   9.483   0.335
11003W        W18219   7.240   0.727   3.408
11004W        W18220   7.440   8.481   7.684
11005W        W18221   5.867  12.922  11.616
11006W        W18222   7.064   3.249  11.360
11007W        W18223   1.538   4.066  11.374
11008W        W18224   9.760   8.220   0.533
11009W        W18225   5.201   8.676   3.547
11010W        W18226  13.775   6.964   2.752
11011W        W18227  13.805   1.538  10.803
11012W        W18228   2.166   2.085   3.489
11013W        W18229   3.280   1.174   2.026
11014W        W18230   9.149   1.660   1.837
11015W        W18231  10.592   1.597   3.740
11016W        W18232  11.917   1.327   8.576
11017W        W18233  10.694   4.867   0.697
11018W        W18234   4.865   1.542  11.580
11019W        W18235  11.145   7.322   1.461
11020W        W18236   5.660   8.028   0.275
11021W        W18237  11.686   6.033  11.824
11022W        W18238  12.582  13.926   1.891
11023W        W18239   7.887  13.250   3.916
11024W        W18240  10.404   2.524   8.638
11025W        W18241   1.224  10.674  10.865
11026W        W18242   8.309   3.446   1.163
11027W        W18243   2.778   6.378  11.308
11028W        W18244   9.589   2.633   0.260
11029W        W18245  13.638   8.029   1.049
11030W        W18246   1.215  11.608  10.737
11031W        W18247  11.643   6.303   0.252
11032W        W18248   1.870   2.652   1.064
11033W        W18249   3.921  11.066  10.413
11034W        W18250   2.816  12.547   9.262
11035W        W18251   7.824   4.564   0.202
11036W        W18252   3.357   8.996   0.561
11037W        W18253   4.557   1.889  10.299
11038W        W18254   0.159  11.248   0.947
11039W        W18255   1.375   4.368  10.701
11040W        W18256   4.366  10.451   9.886
11041W        W18257   8.681   1.919   1.925
11042W        W18258  13.598   2.173  11.920
11043W        W18259   1.281   7.370  11.548
11044W        W18260   2.516   0.970   1.558
11045W        W18261   8.567  12.300   1.966
11046W        W18262   2.966   1.555   0.593
11047W        W18263   3.475   4.879  11.490
11048W        W18264   2.739   6.711   3.040
11049W        W18265  12.826  10.005  10.481
11050W        W18266   8.696  11.701  10.099
11051W        W18267   0.293  13.014   7.541
11052W        W18268   8.046   2.991  11.076
11053W        W18269   2.570  10.214   8.200
11054W        W18270   6.404   6.361   1.507
11055W        W18271   7.894  13.116  10.078
11056W        W18272   5.129   2.452   2.095
11057W        W18273  10.424   2.530  11.571
11058W        W18274  13.414  12.887   4.023
11059W        W18275   1.784   4.254   2.292
11060W        W18276  13.698   7.935   8.561
11061W        W18277  12.864  11.269  11.382
11062W        W18278   9.078   8.461  11.211
11063W        W18279   1.884   4.233   3.546
11064W        W18280   2.278   1.462  11.380
11065W        W18281   6.868  12.010  10.675
11066W        W18282  10.011   6.664   2.400
11067W        W18283   6.395   2.363   2.116
11068W        W18284  13.163   4.648   9.793
11069W        W18285   5.929   5.758   2.173
11070W        W18286   3.120   2.790   2.616
11071W        W18287   0.204  10.071   1.145
11072W        W18288  10.406   3.887  11.081
11073W        W18289  13.339   7.308   9.263
11074W        W18290  13.787   5.157   2.995
11075W        W18291   1.558   0.378   9.568
11076W        W18292   4.148   3.752   3.780
11077W        W18293   1.939   1.146   7.466
11078W        W18294   6.799   8.731   2.419
11079W        W18295   7.086  11.427   9.251
11080W        W18296  11.174   0.544   1.908
11081W        W18297   4.683  12.050   1.195
11082W        W18298  13.193  11.287  11.816
11083W        W18299  12.960   8.992   9.890
11084W        W18300   0.934   1.261   0.766
11085W        W18301   7.183   6.852   7.925
11086W        W18302  12.218   5.774  11.291
11087W        W18303   0.146   9.245   2.154
11088W        W18304   5.484  13.272   3.493
11089W        W18305   3.687   6.184   3.537
11090W        W18306   3.959   8.057   0.603
11091W        W18307   0.409   6.255   1.193
11092W        W18308   8.920   2.900  11.351
11093W        W18309   2.744   4.406  10.743
11094W        W18310   9.045   7.064   1.679
11095W        W18311  10.351   8.273   9.704
11096W        W18312   2.179   2.562   8.841
11097W        W18313   0.247   0.823  10.828
11098W        W18314   1.731   7.509   1.728
11099W        W18315  10.825   8.258   2.340
11100W        W18316   4.611   7.994   3.395
11101W        W18317  13.016   3.899  11.307
11102W        W18318   9.881   2.506  10.305
11103W        W18319   9.955   0.076  11.654
11104W        W18320   8.981  13.422  10.161
11105W        W18321   6.455   3.352   1.761
11106W        W18322   9.163  10.953   1.465
11107W        W18323  10.817   8.541   9.818
11108W        W18324  12.106   4.876   9.292
11109W        W18325   7.483   8.335   1.548
11110W        W18326   4.063  13.847   3.469
11111W        W18327   3.766  13.871   9.724
11112W        W18328   2.383  12.467   1.858
11113W        W18329  12.638   7.945   0.077
11114W        W18330   4.695   8.544  10.320
11115W        W18331   8.703   7.457   0.799
11116W        W18332   3.653   4.939   1.912
11117W        W18333  12.600   9.892   0.287
11118W        W18334   4.819   6.071   0.695
11119W        W18335   1.888   7.140   2.522
11120W        W18336   5.852   7.421  10.872
11121W        W18337   5.348   6.225   3.055
11122W        W18338  11.986   7.460  10.834
11123W        W18339   6.389   5.791   9.362
11124W        W18340   0.031  13.609  11.381
11125W        W18341   8.472   3.805  10.686
11126W        W18342   1.595  12.135   8.616
11127W        W18343   3.182  11.871   9.675
11128W        W18344   1.948   1.311  11.046
11129W        W18345   2.417   6.106   2.404
11130W        W18346  13.936  13.222   1.387
11131W        W18347  10.819   0.648   0.525
11132W        W18348   0.036   0.591   8.391
11133W        W18349  13.246   3.227   9.036
11134W        W18350   0.826  12.817   2.289
11135W        W18351  11.224  10.692   3.444
11136W        W18352   5.376  10.182  10.521
11137W        W18353  13.816   1.858  11.579
11138W        W18354  12.001   8.886   8.439
11139W        W18355   1.579  13.197   2.347
11140W        W18356   3.697   7.457   0.349
11141W        W18357   4.022  11.743  10.825
11142W        W18358  11.428  12.490   1.750
11143W        W18359  12.641   8.883   0.640
11144W        W18360   1.830  11.750   1.478
11145W        W18361   1.414  12.128   1.500
11146W        W18362   1.520   2.399   0.748
11147W        W18363   8.650   7.305  11.609
11148W        W18364   3.677   7.012   3.273
11149W        W18365   1.060   3.876   9.554
11150W        W18366   2.096  13.160   3.063
11151W        W18367  12.068  11.504  10.793
11152W        W18368   4.440   6.896   1.974
11153W        W18369  12.523   3.676   0.921
11154W        W18370  12.594   4.456   7.722
11155W        W18371   0.080   7.863   3.203
11156W        W18372   0.254  10.680   0.291
11157W        W18373   4.655   1.154   9.832
11158W        W18374   8.617  12.278   3.334
11159W        W18375   8.049   0.789   9.211
11160W        W18376   3.913   1.450   0.197
11161W        W18377  11.162   8.418   9.418
11162W        W18378  12.125   5.102  10.674
11163W        W18379   4.498   6.822   3.361
11164W        W18380  13.011   2.679   2.010
11165W        W18381  11.623   9.592   9.928
11166W        W18382   2.430   3.342   3.128
11167W        W18383   5.090  10.480   0.356
11168W        W18384  12.700   3.901   3.873
11169W        W18385  11.540   3.752   0.819
11170W        W18386  13.196   1.943  10.354
11171W        W18387   8.151   3.624   9.607
11172W        W18388  13.884   3.643  10.866
11173W        W18389   5.615   0.052  10.286
11174W        W18390   8.167   4.276   2.272
11175W        W18391   5.191   1.837   1.340
11176W        W18392   6.216   9.289  11.846
11177W        W18393  10.784  13.725   1.562
11178W        W18394   5.836  13.305   9.631
11179W        W18395   7.436   3.691  10.561
11180W        W18396   4.246  11.330  10.160
11181W        W18397  13.050   3.455   3.640
11182W        W18398   2.600   7.775   8.526
11183W        W18399   3.009  13.966   8.468
11184W        W18400  13.316   4.498   2.589
11185W        W18401   2.820   5.431   9.969
11186W        W18402   6.216   5.839   4.188
11187W        W18403   2.295   0.735   2.467
11188W        W18404   5.701  11.296  10.456
11189W        W18405  11.308   1.916   1.950
11190W        W18406   2.699  10.503   8.592
11191W        W18407  11.272  10.880   9.818
11192W        W18408  12.036   5.435   9.800
11193W        W18409   9.862   9.327   1.251
11194W        W18410  11.729   3.831  10.483
11195W        W18411   3.049   7.606  11.617
11196W        W18412  12.523   7.050  10.289
11197W        W18413  11.042   4.219   8.555
11198W        W18414   7.772   9.028   8.910
11199W        W18415  10.323   1.562   1.150
11200W        W18416  11.494  12.769  10.796
11201W        W18417   9.243   1.565   9.405
11202W        W18418  12.011   0.636   7.865
11203W        W18419   6.076   9.400  10.609
11204W        W18420   5.290   6.092   8.146
11205W        W18421  13.412  12.109  11.869
11206W        W18422   2.466  13.384   2.408
11207W        W18423   6.050   3.354   2.718
11208W        W18424  13.857   9.908   9.350
11209W        W18425   2.194   0.632   3.777
11210W        W18426   5.591  12.038   9.237
11211W        W18427   6.418   3.741  10.176
11212W        W18428   8.948  10.326   0.413
11213W        W18429  11.159   7.210   7.965
11214W        W18430   0.910   7.322   8.605
11215W        W18431   4.969   6.417   1.247
11216W        W18432   1.252  10.485   1.876
11217W        W18433   6.642  12.777   1.615
11218W        W18434   7.653   4.574  10.858
11219W        W18435   9.124   4.430   0.333
11220W        W18436   2.548   2.091  10.830
11221W        W18437   3.517   0.527   0.964
11222W        W18438   3.039   4.013  10.788
11223W        W18439   6.609   0.088  10.562
11224W        W18440   9.215  11.684   0.970
11225W        W18441  12.123   2.625  10.952
11226W        W18442  12.807   5.715   7.990
11227W        W18443  11.610   6.818   1.016
11228W        W18444   3.604   0.509  10.934
11229W        W18445   5.162  13.831   9.587
11230W        W18446   5.243  12.078  10.706
11231W        W18447   0.463  10.782  10.155
11232W        W18448   6.919   1.936  10.120
11233W        W18449   8.866  11.767   1.364
11234W        W18450   0.766   8.618   9.853
11235W        W18451  13.033   2.874   2.884
11236W        W18452   5.764   1.798   3.023
11237W        W18453   1.604  13.543   3.640
11238W        W18454  10.485  13.919   3.141
11239W        W18455  11.791   7.749  10.434
11240W        W18456  12.716   3.947  10.496
11241W        W18457   4.438   5.754   3.684
11242W        W18458   1.086   1.097  10.558
11243W        W18459  13.907   6.600  11.055
11244W        W18460   5.880   0.531   3.282
11245W        W18461   1.920   8.609   0.548
11246W        W18462  11.481   3.391   9.514
11247W        W18463   7.160   6.406   8.192
11248W        W18464   3.589  11.776  11.102
11249W        W18465   7.514  12.835   0.033
11250W        W18466   0.522  12.007  10.947
11251W        W18467   1.477  10.510  10.131
11252W        W18468   0.740   8.124  11.492
11253W        W18469  10.452   7.326   0.771
11254W        W18470   5.797  12.227   2.804
11255W        W18471   0.958   5.312   0.447
11256W        W18472   7.851   4.803   3.551
11257W        W18473   7.017   1.903   0.561
11258W        W18474   8.272  11.014   2.443
11259W        W18475   8.571   1.799   2.597
11260W        W18476  13.322   7.439  10.852
11261W        W18477   5.983  11.693  10.353
11262W        W18478   6.974   7.582   1.312
11263W        W18479   7.465   2.123  10.382
11264W        W18480  10.590   7.932   0.149
11265W        W18481   7.244   6.246  10.819
11266W        W18482  12.163   3.817  11.975
11267W        W18483  12.429   7.541   0.236
11268W        W18484   2.276   6.460   0.130
11269W        W18485  11.067   2.926   2.875
11270W        W18486   3.060   6.369  10.188
11271W        W18487   8.653   9.184   9.453
11272W        W18488   8.321   2.739   9.767
11273W        W18489   7.372  12.196   2.017
11274W        W18490   1.608   8.176   3.217
11275W        W18491   4.118   9.774   0.959
11276W        W18492   6.799   5.520   1.218
11277W        W18493  10.023  11.380   9.858
11278W        W18494  13.166  11.476   8.048
11279W        W18495   8.302  11.613   8.811
11280W        W18496   5.781   7.329   0.736
11281W        W18497   8.591   6.081  10.928
11282W        W18498   8.909   7.511   2.597
11283W        W18499   9.551  10.180  10.013
11284W        W18500   9.664   9.336   9.087
11285W        W18501   1.874  13.867   1.219
11286W        W18502  13.855  13.548   0.419
11287W        W18503  11.911  11.714   8.907
11288W        W18504   5.806  11.561   2.323
11289W        W18505   3.541  10.128   9.308
11290W        W18506   8.379   2.442  11.787
11291W        W18507   3.018   1.219   1.559
11292W        W18508  11.542   1.419   3.819
11293W        W18509   4.048   4.234   1.620
11294W        W18510   4.171   7.896  11.432
11295W        W18511   2.524   9.034  11.576
11296W        W18512   7.763  11.008  10.828
11297W        W18513   7.470   4.482   3.722
11298W        W18514  11.588  10.606   0.983
11299W        W18515   5.209   3.631   8.628
11300W        W18516   4.315   1.123   1.908
11301W        W18517   5.192  10.334   2.809
11302W        W18518  13.998  12.263   3.594
11303W        W18519   4.416   8.422   8.835
11304W        W18520  11.845   0.460   2.653
11305W        W18521  13.606  13.950   2.970
11306W        W18522   1.213   8.229   1.987
11307W        W18523   4.342   4.189   3.642
11308W        W18524  11.008  13.660  11.535
11309W        W18525  10.448   6.770   8.061
11310W        W18526   3.419   8.689   1.674
11311W        W18527   4.914   0.844   3.233
11312W        W18528   0.316  11.294   2.563
11313W        W18529  10.678   1.638   0.771
11314W        W18530  10.176  10.496  10.406
11315W        W18531   8.074   3.223   8.460
11316W        W18532   8.109   0.178   2.611
11317W        W18533   5.263   3.729   9.177
11318W        W18534   4.397   5.185   9.999
11319W        W18535  13.504   4.289   9.884
11320W        W18536   6.101   4.326   0.331
11321W        W18537   8.092   3.197   9.893
11322W        W18538   2.955  11.170   2.837
11323W        W18539   8.340   1.095   8.296
11324W        W18540   1.477   3.658   9.785
11325W        W18541  13.039  10.880   1.664
11326W        W18542   7.214   0.943   2.106
11327W        W18543   4.213  12.648   1.541
11328W        W18544   4.798   5.425   7.603
11329W        W18545   5.216   1.513   8.274
11330W        W18546   4.605   9.385   3.908
11331W        W18547   3.873   0.479   8.436
11332W        W18548  12.490   4.772   2.722
11333W        W18549  11.473  13.481  11.476
11334W        W18550   4.929   5.141   9.967
11335W        W18551   1.229   4.124   8.663
11336W        W18552   7.136   4.418   9.990
11337W        W18553   1.386   3.938   2.360
11338W        W18554   4.984   7.610   2.650
11339W        W18555   2.562   8.082   1.836
11340W        W18556   3.429   4.058   8.628
11341W        W18557   9.706   6.388   1.577
11342W        W18558   5.881   4.276   1.606
11343W        W18559  13.644   3.812   9.763
11344W        W18560  10.548  13.190   1.655
11345W        W18561   3.810   1.366   1.089
11346W        W18562   5.953   4.692  10.083
11347W        W18563   7.140   5.703  11.454
11348W        W18564  13.547   9.541   9.145
11349W        W18565   7.699  11.801  10.017
11350W        W18566   6.961  12.400   9.358
11351W        W18567   3.762   3.454   9.924
11352W        W18568   3.342  12.196   8.206
11353W        W18569   4.868  10.518   2.459
11354W        W18570   7.187  12.896   8.500
11355W        W18571   3.719   3.696   8.816
11356W        W18572   6.695   6.842   9.911
11357W        W18573   6.560   2.159   1.703
11358W        W18574   5.717   4.460   8.294
11359W        W18575   8.635   3.593   0.275
11360W        W18576   8.293   5.830   2.851
11361W        W18577   4.797  11.552   1.126
11362W        W18578  12.983   3.415   8.635
11363W        W18579   9.059  13.666   7.749
11364W        W18580   9.377   0.300   8.685
11365W        W18581  10.616   4.518   1.076
11366W        W18582   2.632   9.554   0.228
11367W        W18583  12.938   0.260  10.439
11368W        W18584   4.931   6.457   0.328
11369W        W18585   7.005   8.180  11.325
11370W        W18586  12.953  13.341  10.108
11371W        W18587   7.840   1.486   3.532
11372W        W18588   3.938   6.801   1.938
11373W        W18589  10.963   5.066  10.612
11374W        W18590   1.029  11.738   1.016
11375W        W18591   8.366   3.933   9.058
11376W        W18592   5.311   5.133   8.236
11377W        W18593   7.253   6.219   2.091
11378W        W18594   3.888   5.291   3.420
11379W        W18595  10.321   4.882   3.545
11380W        W18596   3.323   0.928   9.247
11381W        W18597  13.487   9.880   3.664
11382W        W18598   6.858  13.882  10.965
11383W        W18599   5.999  13.698   3.800
11384W        W18600   6.516   6.361   9.919
11385W        W18601   1.017  11.271   1.240
11386W        W18602   7.721   9.428   1.302
11387W        W18603  11.262   9.044   3.449
11388W        W18604   7.179   1.204   4.253
11389W        W18605  13.419  12.047  10.507
11390W        W18606   0.109  13.163   2.056
11391W        W18607   3.656   2.005   1.846
11392W        W18608   7.429   0.737   2.530
11393W        W18609  13.108   7.674   9.550
11394W        W18610  10.912   9.800   3.749
11395W        W18611  12.370   1.853   0.620
11396W        W18612  13.772   2.418   0.376
11397W        W18613   2.501  10.244   9.267
11398W        W18614   5.596   3.082   1.603
11399W        W18615   7.656   5.967  10.563
11400W        W18616   1.734   3.280   2.650
11401W        W18617   6.465   8.339   2.448
11402W        W18618   8.253   7.245  11.913
11403W        W18619   6.809  13.796   2.582
11404W        W18620   9.223   6.872   9.648
11405W        W18621  10.454   6.870   2.354
11406W        W18622   3.737  13.657   8.711
11407W        W18623   3.335   1.805   4.060
11408W        W18624   5.466  11.739  10.363
11409W        W18625   5.449   4.552   4.041
11410W        W18626  13.851  13.002   3.040
11411W        W18627  11.381   0.811   8.829
11412W        W18628   8.900   2.248   0.068
11413W        W18629  12.839   2.774  11.635
11414W        W18630   2.486   5.938   8.880
11415W        W18631   1.343   1.186   3.448
11416W        W18632  11.641   7.457  11.224
11417W        W18633   3.231  12.543   1.541
11418W        W18634   1.036   4.477  10.349
11419W        W18635   0.279  10.592   1.540
11420W        W18636   1.600   8.805   0.124
11421W        W18637   0.704   5.796   1.596
11422W        W18638   7.008   8.308   9.536
11423W        W18639   4.358   9.419   2.297
11424W        W18640   0.409  10.954   1.922
11425W        W18641   4.100   2.118   0.963
11426W        W18642   2.918   5.911   8.589
11427W        W18643   6.959   3.338  10.869
11428W        W18644   9.924  11.078   2.653
11429W        W18645   8.996   4.908   1.631
11430W        W18646   9.386   2.003   3.064
11431W        W18647   5.743   6.124  10.401
11432W        W18648   5.641   3.574   1.786
11433W        W18649   1.609   7.961   8.390
11434W        W18650   9.877   0.969   1.661
11435W        W18651   2.803   0.871   2.485
11436W        W18652   9.500   3.928   9.822
11437W        W18653   6.791   4.584  11.455
11438W        W18654   3.833  11.597  10.343
11439W        W18655   0.279   6.060   3.679
11440W        W18656   6.483   3.197   3.056
11441W        W18657   3.563   9.235   2.573
11442W        W18658  11.458   9.435   3.158
11443W        W18659   4.047   7.111   0.625
11444W        W18660   4.212   3.663   9.932
11445W        W18661   3.881   9.726   4.031
11446W        W18662  10.278   7.946   2.841
11447W        W18663  12.823   0.722  10.552
11448W        W18664   3.532   0.554  11.982
11449W        W18665   8.429  12.212   9.112
11450W        W18666  11.269   2.049   3.129
11451W        W18667  12.290   4.746  11.009
11452W        W18668  12.080   5.042   2.817
11453W        W18669   2.240   2.957  10.863
11454W        W18670  11.241   3.021  10.234
11455W        W18671   1.423  12.706   3.399
11456W        W18672  11.756   0.922  11.222
11457W        W18673   3.983  12.718   0.232
11458W        W18674   0.842  13.517  11.968
11459W        W18675  11.694  11.655   0.006
11460W        W18676  12.799   1.319   8.401
11461W        W18677   0.210   8.367   0.213
11462W        W18678   9.444  13.193   2.813
11463W        W18679   8.473   5.995   1.019
11464W        W18680   7.447   2.262   7.416
11465W        W18681   0.299   2.637  10.475
11466W        W18682   2.921  13.856  11.129
11467W        W18683   4.484  11.351   3.504
11468W        W18684   7.126  11.494  11.355
11469W        W18685   0.979   7.843   8.439
11470W        W18686  11.503   7.326  10.745
11471W        W18687   2.681   0.955   3.319
11472W        W18688   0.141  11.469   9.316
11473W        W18689   5.657   6.337   8.389
11474W        W18690   3.155   5.475   3.481
11475W        W18691  10.096   1.948   0.208
11476W        W18692  13.665   5.241   9.498
11477W        W18693   4.479   8.307   9.935
11478W        W18694  10.097   2.609   9.813
11479W        W18695   9.906   6.702   3.329
11480W        W18696   1.654   8.530   1.894
11481W        W18697   9.787   0.251  10.575
11482W        W18698   5.065  10.090   2.273
11483W        W18699   8.680   8.438   3.480
11484W        W18700   5.345   3.686   2.200
11485W        W18701   9.118  12.208   1.415
11486W        W18702   0.317   6.098   8.537
11487W        W18703   2.879   0.878   1.176
11488W        W18704   7.258  12.296   1.528
11489W        W18705  11.062   7.618   9.452
11490W        W18706  11.966   1.683   0.352
11491W        W18707  10.120   8.537   9.287
11492W        W18708   7.151   7.118   1.952
11493W        W18709   2.093   9.811   1.685
11494W        W18710  11.222   7.430   0.571
11495W        W18711   9.475  10.211   1.024
11496W        W18712   3.340  13.095  10.217
11497W        W18713   2.159   7.805   8.856
11498W        W18714   2.061   8.782   9.927
11499W        W18715   0.662   9.314   9.343
11500W        W18716   3.059   2.019   3.549
11501W        W18717  13.814   6.699  11.928
11502W        W18718   3.017   8.863  11.714
11503W        W18719   5.442  12.693   1.987
11504W        W18720  10.662   0.503  10.683
11505W        W18721   5.806   5.441  11.759
11506W        W18722  10.647   7.823   4.078
11507W        W18723   9.139   7.532   0.520
11508W        W18724   5.163  11.857   9.436
11509W        W18725   6.950   9.325   3.159
11510W        W18726   7.213   2.338   8.944
11511W        W18727  11.668  13.099   0.439
11512W        W18728  11.802   8.772   9.612
11513W        W18729   5.513   4.812   9.844
11514W        W18730  10.364   3.455   9.337
11515W        W18731  12.092   7.492   3.053
11516W        W18732   4.023   3.195  10.911
11517W        W18733  11.438   1.762   7.984
11518W        W18734   0.861   0.230  10.672
11519W        W18735  12.710   6.327   2.223
11520W        W18736   1.456   7.229  10.670
11521W        W18737  10.152   9.142   3.519
11522W        W18738  11.257   7.752  10.552
11523W        W18739   4.827   5.356   9.512
11524W        W18740   7.597  10.664   9.244
11525W        W18741   9.356   9.557  10.503
11526W        W18742  11.662   1.746   9.000
11527W        W18743  10.633  10.576   9.237
11528W        W18744   4.086   9.472   0.083
11529W        W18745   9.187  10.774   8.522
11530W        W18746   4.955   5.140   0.190
11531W        W18747   1.678   4.014  10.900
11532W        W18748  13.446   7.904   0.113
11533W        W18749   9.210  12.340   0.530
11534W        W18750   7.626   8.657   8.524
11535W        W18751  12.271  12.664   1.417
11536W        W18752   8.171   0.001   7.793
11537W        W18753   2.414   1.382   3.249
11538W        W18754   9.575  13.035   9.724
11539W        W18755   0.953   9.417   8.943
11540W        W18756   3.629   2.918   1.363
11541W        W18757   8.851   4.087   1.749
11542W        W18758   7.077  11.877   1.741
11543W        W18759   6.969   1.448  11.360
11544W        W18760   4.950   3.047   1.455
11545W        W18761   5.413  13.093   1.152
11546W        W18762   1.300   3.166   9.824
11547W        W18763  13.846   0.523   1.887
11548W        W18764   0.053  10.039   4.287
11549W        W18765   7.664   7.054  11.260
11550W        W18766   6.983  12.710   8.051
11551W        W18767   4.096   0.645   2.782
11552W        W18768   1.212   0.480   2.885
11553W        W18769   2.648   5.997   9.358
11554W        W18770   5.032   8.893  11.025
11555W        W18771   6.578   1.857   9.345
11556W        W18772  11.055  10.452   1.876
11557W        W18773   0.133   5.506   0.820
11558W        W18774   8.913  12.293   0.125
11559W        W18775  11.427   4.246   8.860
11560W        W18776  13.823   2.874   3.007
11561W        W18777   1.089  10.291   2.869
11562W        W18778  11.636   7.237  11.800
11563W        W18779   8.880   9.980   1.626
11564W        W18780   7.640  14.000   7.934
11565W        W18781   4.951   2.140   3.528
11566W        W18782   4.994  12.511  10.633
11567W        W18783   5.482   9.595  11.235
11568W        W18784   4.584   0.214   1.420
11569W        W18785   0.508   1.772   3.647
11570W        W18786   9.145  13.845  10.949
11571W        W18787   5.881   4.696   1.092
11572W        W18788   6.762  12.437  11.593
11573W        W18789   0.632   4.940   7.795
11574W        W18790   6.334   4.848   0.120
11575W        W18791   0.131   6.113  10.184
11576W        W18792   0.040  12.203   9.268
11577W        W18793   2.170  10.284   2.202
11578W        W18794  12.449   7.601  11.243
11579W        W18795   7.449   6.019   3.131
11580W        W18796   1.762   1.303   0.907
11581W        W18797   0.545   3.859  10.427
11582W        W18798   7.462  12.213   9.879
11583W        W18799   4.759   5.568   0.489
11584W        W18800   7.815   7.748  10.065
11585W        W18801   9.596   3.120   3.790
11586W        W18802   7.377   3.445   1.339
11587W        W18803   4.074   6.080   7.777
11588W        W18804   4.028  11.685   1.743
11589W        W18805  11.762   7.719  11.642
11590W        W18806   3.564   9.527  11.849
11591W        W18807   6.822   6.797   1.708
11592W        W18808   4.486   6.326   2.656
11593W        W18809   1.928   2.325   2.297
11594W        W18810   2.400  11.675   9.680
11595W        W18811  10.865   4.691  10.949
11596W        W18812   9.093  12.340   7.668
11597W        W18813   1.248   7.814   2.332
11598W        W18814   4.393  10.448   2.648
11599W        W18815  12.930  11.788   2.684
11600W        W18816   5.696   0.889   2.977
11601W        W18817  12.374   9.535   0.008
11602W        W18818   7.032  12.209   4.113
11603W        W18819   7.522   2.602   0.325
11604W        W18820   3.282   3.385   3.678
11605W        W18821  12.100   9.946   0.154
11606W        W18822  10.138   8.810   0.105
11607W        W18823   1.006   6.836  11.810
11608W        W18824   8.614   9.581  11.455
11609W        W18825  10.578   0.749   3.173
11610W        W18826   6.172   5.579   2.574
11611W        W18827   6.564  13.660   2.128
11612W        W18828   4.756   0.978   2.222
11613W        W18829   5.310   6.675   8.578
11614W        W18830  13.241   6.018   9.771
11615W        W18831   2.736   0.381   8.637
11616W        W18832   6.630  11.448  11.460
11617W        W18833   9.744   2.779   2.779
11618W        W18834   3.812   0.226   3.680
11619W        W18835   2.174   7.811   0.332
11620W        W18836  13.121  10.762  11.053
11621W        W18837   0.245  10.136   8.562
11622W        W18838   2.984   4.965  11.408
11623W        W18839   1.246   5.760   7.750
11624W        W18840   7.911  13.392   1.547
11625W        W18841   4.889  13.087   1.208
11626W        W18842   4.188  12.619  11.496
11627W        W18843  11.648  12.268   2.141
11628W        W18844  10.970   6.321   9.350
11629W        W18845  10.171   3.450   8.864
11630W        W18846   7.385   2.525   8.512
11631W        W18847   0.508   2.767   8.484
11632W        W18848   1.687   5.403   1.880
11633W        W18849   9.235   7.170   2.459
11634W        W18850   8.412   8.612  10.507
11635W        W18851   6.145   5.894   1.394
11636W        W18852  11.769   9.549   9.107
11637W        W18853  11.032   0.559   4.234
11638W        W18854  13.972  13.027   8.324
11639W        W18855   0.370   6.413  11.160
11640W        W18856   7.538   4.314   1.659
11641W        W18857   1.480   3.111   2.147
11642W        W18858   7.720   9.689   7.753
11643W        W18859   8.775  12.419   9.431
11644W        W18860  12.432  10.653   2.172
11645W        W18861   9.340   8.879   1.057
11646W        W18862   3.622  10.387   4.041
11647W        W18863   8.377   7.248   2.849
11648W        W18864   8.621   8.767   2.595
11649W        W18865   7.053   8.563   1.660
11650W        W18866  10.532   1.107   3.652
11651W        W18867   6.674  13.816   0.230
11652W        W18868   6.037   6.860   0.779
11653W        W18869  13.256   6.878  10.266
11654W        W18870   7.194   5.806   2.383
11655W        W18871   4.136   3.668  10.783
11656W        W18872  10.791  13.287   9.297
11657W        W18873  10.665   9.134   0.785
11658W        W18874   6.892   0.531   8.785
11659W        W18875  12.481   8.015  11.526
11660W        W18876   8.827   6.654   9.351
11661W        W18877  10.195   2.756   2.991
11662W        W18878  10.794   9.653   2.445
11663W        W18879   7.566   1.086   0.883
11664W        W18880  11.124   9.043   0.003
11665W        W18881   3.823  13.128  10.013
11666W        W18882  11.687   3.744   2.897
11667W        W18883   1.283   1.201   2.947
11668W        W18884  11.225   9.283   9.921
11669W        W18885   2.468   0.455   3.359
11670W        W18886  12.302   5.460   2.062
11671W        W18887   7.642  10.524   2.086
11672W        W18888   0.959   1.179  11.419
11673W        W18889   8.715  10.194   2.064
11674W        W18890  10.744  12.749   2.346
11675W        W18891   3.307  10.546   9.439
11676W        W18892   0.808   1.190   3.125
11677W        W18893  11.451   0.795   2.694
11678W        W18894  10.715  10.098   0.807
11679W        W18895   8.612   4.525   2.344
11680W        W18896   9.091   4.833   7.978
11681W        W18897   2.796   3.757   0.857
11682W        W18898   2.516   9.428   9.426
11683W        W18899   2.920  11.225  10.926
11684W        W18900  10.227   4.109   2.371
11685W        W18901   6.856   7.338  10.972
11686W        W18902   4.882  11.520  11.132
11687W        W18903  11.231   3.853  10.654
11688W        W18904   5.213   8.536   2.622
11689W        W18905   2.613  12.204   2.262
11690W        W18906   4.329   3.440   1.529
11691W        W18907   5.670  12.525   2.405
11692W        W18908  12.917   5.346  10.257
11693W        W18909   6.051   9.713   0.654
11694W        W18910   5.056  12.134  11.592
11695W        W18911   6.011   2.334  10.382
11696W        W18912  12.867  13.496   1.901
11697W        W18913   1.146   6.968   8.328
11698W        W18914   5.117  12.373   8.142
11699W        W18915  13.053   2.691   9.502
11700W        W18916   0.731  12.008   9.484
11701W        W18917  12.875   1.036   2.719
11702W        W18918   5.079  13.226  10.705
11703W        W18919   3.318   4.778  11.974
11704W        W18920   6.422   6.609   1.938
11705W        W18921   8.175   1.443   2.719
11706W        W18922   2.201   5.553   1.178
11707W        W18923   0.078  11.435   8.378
11708W        W18924   6.796   8.393   3.401
11709W        W18925  11.741  12.119   8.545
11710W        W18926   2.267  10.505   0.029
11711W        W18927  11.355   1.129   1.740
11712W        W18928   3.472   2.408   3.458
11713W        W18929   5.512  11.045   1.030
11714W        W18930   2.486   6.085   0.411
11715W        W18931   0.207   5.012   0.652
11716W        W18932  12.402   0.281   1.133
11717W        W18933  10.800   5.728  11.775
11718W        W18934   4.838   7.416   1.229
11719W        W18935   6.906  10.138   9.836
11720W        W18936   0.387   3.595  10.801
11721W        W18937   8.067  13.365  10.581
11722W        W18938   5.896   8.579   9.926
11723W        W18939   9.815   6.856   1.432
11724W        W18940  13.011   2.841  10.334
11725W        W18941   9.675  12.558   1.032
11726W        W18942   2.784  10.097   1.402
11727W        W18943   4.372   9.576   9.312
11728W        W18944   7.289  13.960   8.870
11729W        W18945   0.755  11.619   8.579
11730W        W18946   5.699  11.042   3.653
11731W        W18947  12.700  10.610   0.145
11732W        W18948   0.346   1.611   9.078
11733W        W18949   2.596   2.723  11.169
11734W        W18950   3.693  13.254  10.915
11735W        W18951   0.821  13.923   9.529
11736W        W18952  10.567   8.947  11.186
11737W        W18953  12.485  11.734  10.636
11738W        W18954   9.659   4.955   3.142
11739W        W18955   0.985  13.319  11.127
11740W        W18956   2.049   5.377   9.590
11741W        W18957   6.351   5.542   8.407
11742W        W18958  10.045  10.847   2.228
11743W        W18959   6.151  11.890   2.644
11744W        W18960   5.201   9.187  10.340
11745W        W18961   1.015   9.108   1.724
11746W        W18962  13.124   7.280   8.772
11747W        W18963   2.806   0.898   9.383
11748W        W18964   2.945   1.758   9.779
11749W        W18965  13.223  11.695  10.201
11750W        W18966  11.672   2.592  11.216
11751W        W18967   1.087   6.431  11.479
11752W        W18968  12.198   4.178   1.420
11753W        W18969   6.680   9.144   9.620
11754W        W18970   4.826  12.775   2.827
11755W        W18971   2.037   3.448   8.523
11756W        W18972   1.129   9.235  10.055
11757W        W18973   9.127  13.086   8.421
11758W        W18974  13.871  12.278  10.351
11759W        W18975   5.739   5.711   8.931
11760W        W18976   6.085   0.488   9.024
11761W        W18977   3.845   7.443   3.495
11762W        W18978   7.254  10.762   8.677
11763W        W18979   9.653   5.209   1.041
11764W        W18980   6.850  10.271   1.290
11765W        W18981  13.888   8.370   8.419
11766W        W18982   3.965   4.990  11.479
11767W        W18983   3.688  10.138  10.176
11768W        W18984   0.898  13.053   3.583
11769W        W18985   7.625   1.551  10.324
11770W        W18986   7.939   6.523   1.611
11771W        W18987   1.511  13.972   8.756
11772W        W18988  11.019   3.844   3.073
11773W        W18989   4.695   4.877   1.232
11774W        W18990   2.628   6.154   0.889
11775W        W18991   1.001  10.161   1.558
11776W        W18992  11.351   0.408   9.608
11777W        W18993   4.398   3.631   2.009
11778W        W18994   8.317   3.884   0.559
11779W        W18995   1.319  13.146  10.276
11780W        W18996   1.701  10.967   2.481
11781W        W18997  13.997   2.849   8.457
11782W        W18998   2.269   6.576  11.208
11783W        W18999   9.146  13.091   3.511
11784W        W19000   7.588   2.123   4.013
11785W        W19001   5.809  13.061  10.946
11786W        W19002   9.892   5.999  10.910
11787W        W19003  11.853   5.004  11.925
11788W        W19004   0.236   4.605   1.834
11789W        W19005   7.621   2.510  10.099
11790W        W19006  10.327  10.929  11.877
11791W        W19007   2.084   2.042   0.413
11792W        W19008  11.990  11.619   2.949
11793W        W19009   1.397   8.607  11.147
11794W        W19010  11.606   6.653  11.270
11795W        W19011  12.958   5.944   9.292
11796W        W19012  12.937   9.529   2.785
11797W        W19013  13.226   5.750  10.248
11798W        W19014   9.123   0.070   3.448
11799W        W19015   2.084   5.105  10.286
11800W        W19016  12.154   4.169   9.775
11801W        W19017  10.860  12.030  11.216
11802W        W19018   7.338   6.662   2.314
11803W        W19019  10.263   9.271  11.951
11804W        W19020  12.002   7.829  11.221
11805W        W19021   5.666   0.928   1.352
11806W        W19022  11.157   0.587  10.625
11807W        W19023   0.736   2.355   1.401
11808W        W19024  10.725   9.494   0.066
11809W        W19025   3.564   4.381  11.135
11810W        W19026   9.719   2.270  10.786
11811W        W19027   9.864   4.646   3.592
11812W        W19028   4.081   9.168   8.607
11813W        W19029  12.870   2.760   3.835
11814W        W19030   8.740   9.430  11.956
11815W        W19031  12.903   9.607  11.243
11816W        W19032  10.444   7.756   9.723
11817W        W19033   0.804  11.268  11.297
11818W        W19034   9.802   0.612   1.322
11819W        W19035   4.743   7.607  10.837
11820W        W19036   4.596  11.657   9.903
11821W        W19037   2.509  13.595   9.067
11822W        W19038   7.935   3.898   2.538
11823W        W19039  13.917   2.589   8.918
11824W        W19040   2.616   6.580   2.556
11825W        W19041   5.219   1.763   9.598
11826W        W19042   7.503   6.295   1.025
11827W        W19043   7.664   5.279   2.869
11828W        W19044  11.620   9.542   1.167
11829W        W19045   8.853   7.428   0.076
11830W        W19046   2.695   0.098   9.444
11831W        W19047   6.991   1.553   2.289
11832W        W19048  12.431   4.647   1.925
11833W        W19049  11.183  12.672   4.002
11834W        W19050   9.698  11.670  10.074
11835W        W19051  10.517   5.478   0.512
11836W        W19052   7.436  12.617   2.314
11837W        W19053   3.186  13.897  10.702
11838W        W19054   5.709   7.002   8.171
11839W        W19055   1.395   1.020   2.096
11840W        W19056   7.805   2.576   2.767
11841W        W19057   6.687  10.391   0.816
11842W        W19058  12.554   9.205   2.458
11843W        W19059   6.504  12.354  10.760
11844W        W19060   3.147   3.308   2.564
11845W        W19061   6.935   0.919   2.514
11846W        W19062  12.234  12.474  11.036
11847W        W19063   1.710   5.414   3.262
11848W        W19064   8.239   4.315   0.896
11849W        W19065   0.763  11.858   4.093
11850W        W19066   7.626   6.954   8.898
11851W        W19067   3.722   9.542   8.559
11852W        W19068   7.020  13.454   2.230
11853W        W19069   6.308  12.545   1.910
11854W        W19070  10.365   0.370  11.694
11855W        W19071   3.994   5.812   0.846
11856W        W19072   2.010   2.137   9.076
11857W        W19073   7.860   3.991   9.795
11858W        W19074   1.567  10.969   1.212
11859W        W19075   9.312  10.620  11.342
11860W        W19076  13.069  10.132   8.865
11861W        W19077   2.896   4.326   8.418
11862W        W19078   8.281  13.627   2.470
11863W        W19079  13.701  13.888   9.380
11864W        W19080  10.981  10.827   8.977
11865W        W19081   0.226   9.089   9.534
11866W        W19082   4.230  11.283   9.663
11867W        W19083   2.494  10.229   3.427
11868W        W19084  13.691  10.001   2.529
11869W        W19085   9.395   5.125   1.454
11870W        W19086   9.272   4.742   1.108
11871W        W19087   3.764   4.653   9.915
11872W        W19088  12.251  10.139   4.127
11873W        W19089   2.379  12.941   2.710
11874W        W19090  13.978   7.846   9.625
11875W        W19091   3.619   7.234   0.835
11876W        W19092   4.927   2.808   3.335
11877W        W19093   6.983   4.044   0.231
11878W        W19094   5.268   3.411  11.728
11879W        W19095   0.596   9.201   3.487
11880W        W19096  13.821  10.581   0.068
11881W        W19097   3.274  11.242   1.807
11882W        W19098   4.812   3.875   8.927
11883W        W19099   4.391   4.616   8.775
11884W        W19100   9.252   8.682  10.775
11885W        W19101   1.691  13.490   9.173
11886W        W19102   0.551   1.889   1.493
11887W        W19103  12.941   8.019   1.750
11888W        W19104   0.788   7.114  10.230
11889W        W19105   5.248  11.336   0.311
11890W        W19106  13.756   1.143   0.254
11891W        W19107   1.878  11.227   8.735
11892W        W19108   4.640  12.878   3.341
11893W        W19109   6.248  11.260   1.307
11894W        W19110   0.393  11.874   9.119
11895W        W19111  13.907   5.717   2.619
11896W        W19112   9.555  11.921   1.380
11897W        W19113  12.317   1.766  11.225
11898W        W19114  13.268   1.162   2.487
11899W        W19115   6.394  13.659  10.316
11900W        W19116   5.328   7.213   2.874
11901W        W19117   8.032   2.471  10.990
11902W        W19118   8.531  12.710   1.627
11903W        W19119   7.353  12.787   1.040
11904W        W19120   6.760   8.235  10.033
11905W        W19121  10.039   3.069   1.002
11906W        W19122  10.297   9.236   2.725
11907W        W19123   3.063   4.177  10.295
11908W        W19124   7.055   3.129  11.834
11909W        W19125   3.274   2.976   8.616
11910W        W19126  11.007   7.208  10.784
11911W        W19127   6.429   8.756   2.050
11912W        W19128   3.478   4.754  10.327
11913W        W19129  13.669   5.965  10.334
11914W        W19130   1.946   9.003  11.710
11915W        W19131   9.366  13.175   9.283
11916W        W19132   1.940   7.240   0.636
11917W        W19133   3.245   6.240   3.271
11918W        W19134   9.512  13.721  11.282
11919W        W19135   1.558   2.251   1.239
11920W        W19136   8.118  10.328   2.929
11921W        W19137  13.335  10.358   9.635
11922W        W19138   8.344   6.965   8.494
11923W        W19139   5.548   0.640   1.797
11924W        W19140  12.209   0.937   3.336
11925W        W19141  10.451   0.620   9.433
11926W        W19142   7.246   5.464   8.478
11927W        W19143   6.602  13.144   3.416
11928W        W19144   3.914  12.388   9.346
11929W        W19145   0.597   1.656   9.947
11930W        W19146   7.283   8.990   8.400
11931W        W19147  12.449   9.254   1.927
11932W        W19148  12.804  11.476   1.410
11933W        W19149   2.765  10.554   0.148
11934W        W19150   4.121   0.841   8.197
11935W        W19151   6.453   9.026   2.886
11936W        W19152   9.098  13.908  11.581
11937W        W19153   0.747   9.467  11.193
11938W        W19154   6.344   0.013   0.582
11939W        W19155   6.826   4.651   0.002
11940W        W19156   7.932  13.111  10.987
11941W        W19157  12.896   2.071   8.191
11942W        W19158   3.140   2.855  11.115
11943W        W19159   6.018   2.287  11.252
11944W        W19160  13.929   8.208  10.953
11945W        W19161   4.302   4.642  10.636
11946W        W19162   1.044   5.956  11.742
11947W        W19163   4.780   8.013   1.878
11948W        W19164   4.468  12.408   7.852
11949W        W19165   3.376   2.026   1.414
11950W        W19166  10.837  11.197   2.291
11951W        W19167   5.031   2.106   9.940
11952W        W19168   1.274  10.343   9.698
11953W        W19169   4.085   9.147   1.930
11954W        W19170  13.180   7.215   1.098
11955W        W19171  10.930   5.319   0.725
11956W        W19172   1.478   4.813   0.008
11957W        W19173  11.813   0.056   8.959
11958W        W19174   3.052  12.605   8.274
11959W        W19175   2.843   9.307  10.365
11960W        W19176  12.194   9.947   3.122
11961W        W19177  10.528  10.162   3.721
11962W        W19178   9.860   7.149  11.222
11963W        W19179  13.109   5.197  10.707
11964W        W19180  11.278   9.870   3.353
11965W        W19181   4.540   1.425  11.951
11966W        W19182   9.217  12.771   2.610
11967W        W19183   4.644   9.034  11.385
11968W        W19184  12.541   2.021   1.958
11969W        W19185   1.301   7.750   1.836
11970W        W19186   6.820   6.615   0.410
11971W        W19187   7.900   7.885  11.550
11972W        W19188   4.061   5.668   0.172
11973W        W19189   1.218   7.981   1.046
11974W        W19190   7.616   9.983   0.261
11975W        W19191  11.767   9.802   0.747
11976W        W19192   5.400   5.399   8.712
11977W        W19193  10.579   7.408   3.037
11978W        W19194   0.650   4.918   1.114
11979W        W19195   2.120   1.407   9.831
11980W        W19196  12.031   7.018   3.225
11981W        W19197   9.201   8.925  10.041
11982W        W19198   8.275   0.882   9.960
11983W        W19199   4.994   8.325   2.213
11984W        W19200   7.634   8.783   0.719
11985W        W19201   3.048   4.603   4.067
11986W        W19202   0.784  10.266  10.822
11987W        W19203   3.246   7.053   9.954
11988W        W19204   1.591   6.787   3.307
11989W        W19205  12.432   8.808   2.174
11990W        W19206   9.577   1.406   9.742
11991W        W19207   0.363   8.417  10.239
11992W        W19208  13.355  12.781   9.839
11993W        W19209  13.781  11.848   9.029
11994W        W19210   7.329   9.674   0.531
11995W        W19211   0.896   2.826   0.310
11996W        W19212   7.106   7.461   2.316
11997W        W19213  13.832   7.407   8.020
11998W        W19214  12.939   4.737   0.716
11999W        W19215   3.548   1.051   3.131
12000W        W19216  12.671   6.121   7.681
12001W        W19217   3.853   2.422   2.046
12002W        W19218   0.442   5.366   0.371
12003W        W19219   0.739   5.733   7.644
12004W        W19220   0.208  11.447   3.574
12005W        W19221   8.397  11.431   1.422
12006W        W19222  11.045   9.396  10.687
12007W        W19223   0.192  12.893   9.748
12008W        W19224   4.427   9.572   1.319
12009W        W19225   0.851  11.254   8.943
12010W        W19226   0.269   9.429   0.284
12011W        W19227   9.989   2.979   2.221
12012W        W19228   0.336   1.069   4.191
12013W        W19229  12.055  10.992   2.357
12014W        W19230  11.999   1.127   9.475
12015W        W19231   9.629   4.912  10.183
12016W        W19232  10.557   5.357   1.412
12017W        W19233  10.695  13.358   0.389
12018W        W19234   7.992   1.000   7.919
12019W        W19235   4.265   5.408   0.647
12020W        W19236   5.612   5.625   8.150
12021W        W19237   7.914   1.522   2.259
12022W        W19238  12.071   2.879   9.085
12023W        W19239   5.359   2.389  10.223
12024W        W19240   4.178   9.115   9.944
12025W        W19241  11.296   3.018   3.393
12026W        W19242   5.009   0.753  11.400
12027W        W19243  11.869   9.062   9.225
12028W        W19244   4.114   3.857   1.287
12029W        W19245  10.889   9.734   0.492
12030W        W19246   8.737   4.987  10.352
12031W        W19247   0.234  10.622   9.369
12032W        W19248   8.824   0.581   3.163
12033W        W19249   8.143   4.832   0.516
12034W        W19250   1.454   7.669   1.358
12035W        W19251  10.785   1.367   3.313
12036W        W19252   0.937   6.769  11.098
12037W        W19253   7.798  10.058  11.153
12038W        W19254   6.721   8.961   1.603
12039W        W19255  13.904   5.952   2.130
12040W        W19256   1.994   6.803   0.891
12041W        W19257   8.911  11.938   9.266
12042W        W19258  10.010   2.432   1.570
12043W        W19259   7.802  13.741   4.047
12044W        W19260   6.537  12.682   0.020
12045W        W19261   4.358   9.085   9.464
12046W        W19262   4.584  11.776   2.429
12047W        W19263   0.337   5.596   2.846
12048W        W19264   9.018   0.644   0.799
12049W        W19265  13.747  13.809   0.864
12050W        W19266  13.698   1.977   3.453
12051W        W19267   2.958   3.786  11.992
12052W        W19268   2.412  12.347   8.518
12053W        W19269   1.204   5.653   8.532
12054W        W19270   3.213   9.212   0.056
12055W        W19271   3.737  12.499   1.553
12056W        W19272   3.182  10.068  10.220
12057W        W19273   5.288   1.188   0.075
12058W        W19274   0.098   1.958  10.707
12059W        W19275   5.625   5.027   3.212
12060W        W19276  10.266   4.358  11.326
12061W        W19277   7.466  11.423   0.587
12062W        W19278   4.580   2.659   0.877
12063W        W19279   0.403   3.522   3.116
12064W        W19280  10.056   1.901   9.596
12065W        W19281   4.153   6.717   8.553
12066W        W19282   7.258   9.044   8.893
12067W        W19283   7.793   2.050  11.206
12068W        W19284   5.422   4.031   8.313
12069W        W19285   1.811   3.124   8.188
12070W        W19286   7.165  11.532  10.243
12071W        W19287   4.134   1.690   1.849
12072W        W19288   5.667  11.103   0.473
12073W        W19289   4.321  11.798   4.269
12074W        W19290   5.422   3.129  10.660
12075W        W19291   8.871   4.681   3.578
12076W        W19292   5.000   0.482   2.314
12077W        W19293   8.980   4.459   1.437
12078W        W19294  13.597  10.964  11.815
12079W        W19295  13.654   0.455  10.212
12080W        W19296   5.386   4.671   7.972
12081W        W19297  12.129   0.600   0.747
12082W        W19298   1.960   3.648   1.379
12083W        W19299   0.054   7.300   8.940
12084W        W19300   7.694   7.235  10.749
12085W        W19301  11.031   2.828   1.605
12086W        W19302  12.961   7.701  11.317
12087W        W19303   8.909  12.435   2.912
12088W        W19304   3.443   3.288   1.046
12089W        W19305   6.090   2.612  10.817
12090W        W19306  11.873  12.725   8.940
12091W        W19307   3.010   5.078   3.771
12092W        W19308   6.515   6.942   2.644
12093W        W19309   6.596   9.975   1.595
12094W        W19310   1.942   3.604  11.041
12095W        W19311   0.908   5.623   8.118
12096W        W19312   0.748  11.635   3.127
12097W        W19313  11.632   5.217  10.594
12098W        W19314  10.350  10.546   2.506
12099W        W19315   6.215   9.356   9.665
12100W        W19316   1.290   8.676   1.576
12101W        W19317   2.788  12.062   2.786
12102W        W19318  10.031  12.758   8.095
12103W        W19319  13.440   8.601   9.327
12104W        W19320  11.213   6.452   0.491
12105W        W19321   2.356   2.430   9.303
12106W        W19322   0.367   2.632   1.625
12107W        W19323   8.871   9.677  10.570
12108W        W19324  10.050  13.136   8.793
12109W        W19325  13.074   6.736   1.675
12110W        W19326   6.263   3.335  11.994
12111W        W19327   9.062  12.200  11.267
12112W        W19328   3.661   2.999  10.618
12113W        W19329   2.277   5.543   3.740
12114W        W19330   5.386   2.905  10.136
12115W        W19331   7.980   5.932   3.901
12116W        W19332  13.453  11.580   9.782
12117W        W19333  13.066   4.198  10.771
12118W        W19334   4.731   7.936   1.130
12119W        W19335   8.768   7.706   9.759
12120W        W19336  11.706   9.890  11.380
12121W        W19337   3.764  10.625   1.963
12122W        W19338   9.463  13.417  10.024
12123W        W19339   4.908   2.472   0.567
12124W        W19340   9.666   8.181   1.445
12125W        W19341   1.721   7.222   1.303
12126W        W19342   2.684  10.052   0.173
12127W        W19343   6.107   0.064  10.440
12128W        W19344   8.063   6.791   2.895
12129W        W19345   0.448   7.147   1.493
12130W        W19346   1.081   7.767  11.280
12131W        W19347   5.380   6.239  10.905
12132W        W19348  13.612   9.051   3.304
12133W        W19349  10.254   0.178   9.288
12134W        W19350   5.979  13.901   0.214
12135W        W19351   7.259   8.150   1.955
12136W        W19352   6.642   1.469   9.793
12137W        W19353   7.334   2.116   9.900
12138W        W19354  13.236   1.799   3.566
12139W        W19355   9.225   4.955  10.466
12140W        W19356  11.113   4.169   2.689
12141W        W19357  13.486   4.810   8.575
12142W        W19358  11.137   5.866   3.569
12143W        W19359  10.422   7.601   2.531
12144W        W19360  11.583   0.317  10.565
12145W        W19361   7.275  10.924   2.074
12146W        W19362   5.597  13.887   2.187
12147W        W19363   1.510  10.212   1.455
12148W        W19364   8.294  11.766   9.306
12149W        W19365   9.317   5.577  11.861
12150W        W19366   7.013   2.708   0.343
12151W        W19367  12.758  10.315  11.460
12152W        W19368   0.983   4.835   8.296
12153W        W19369   5.710   1.810   9.473
12154W        W19370   8.198   5.058  11.182
12155W        W19371   0.979   0.329   1.138
12156W        W19372   0.386   0.312  10.822
12157W        W19373  12.671  10.154   9.250
12158W        W19374  10.529   2.874   1.660
12159W        W19375   0.160   4.534  10.861
12160W        W19376   5.583  12.105   8.742
12161W        W19377   3.859   6.310   2.135
12162W        W19378   2.363   2.352   3.059
12163W        W19379  12.208   6.004   1.000
12164W        W19380  11.619  10.143   2.537
12165W        W19381   9.027   8.221   3.129
12166W        W19382  12.905  12.460   2.024
12167W        W19383   4.651   1.079  11.580
12168W        W19384   7.306   0.860   3.892
12169W        W19385   4.680  13.342  11.019
12170W        W19386   6.103   4.698   1.841
12171W        W19387   8.348   8.207   8.377
12172W        W19388   0.177   2.390   8.529
12173W        W19389   5.467  12.899  11.311
12174W        W19390   6.797   9.223  11.286
12175W        W19391   9.603   9.745  11.071
12176W        W19392   3.691   8.255   9.316
12177W        W19393  10.731   6.850   0.761
12178W        W19394   1.500  12.689   9.391
12179W        W19395  13.813   6.078   8.937
12180W        W19396   8.374  11.249   8.390
12181W        W19397  10.390   6.493  10.139
12182W        W19398   4.771   5.511   1.830
12183W        W19399  11.995   8.327   1.117
12184W        W19400  11.138   6.425   1.468
12185W        W19401  12.816  13.775   0.576
12186W        W19402   3.520   9.841  10.529
12187W        W19403   1.987  10.896  11.299
12188W        W19404  11.017   1.912  11.625
12189W        W19405   2.485  10.730   9.469
12190W        W19406  10.082   5.932   0.393
12191W        W19407   1.759  10.219   0.007
12192W        W19408  12.188   3.578   2.660
12193W        W19409   7.621   9.924   1.417
12194W        W19410   9.756  12.683   0.076
12195W        W19411   4.790  11.006   8.578
12196W        W19412  12.772   5.293  11.996
12197W        W19413  12.227   2.631   2.406
12198W        W19414   1.632   8.106   9.989
12199W        W19415   6.635   9.850  10.189
12200W        W19416   7.761  12.514  11.738
12201W        W19417   2.599   8.531   8.506
12202W        W19418  12.522   1.281  11.242
12203W        W19419   7.711   7.495   0.752
12204W        W19420   0.743   0.800   3.958
12205W        W19421   9.701   6.439   2.072
12206W        W19422  10.777  11.971   2.541
12207W        W19423  13.999  11.262   2.156
12208W        W19424   8.102  13.228   0.659
12209W        W19425   8.227  11.873   1.659
12210W        W19426  12.538  10.303   0.860
12211W        W19427   3.344   6.661   1.094
12212W        W19428   3.875   9.147  11.729
12213W        W19429   2.401   4.365   3.053
12214W        W19430   0.777   4.569   7.484
12215W        W19431  12.490  12.576  11.447
12216W        W19432   0.997   4.911   2.342
12217W        W19433   2.519   7.416  10.962
12218W        W19434   7.149  10.421   3.774
12219W        W19435   3.269   1.576   8.442
12220W        W19436   9.527  11.928   8.311
12221W        W19437   5.905  13.792   0.718
12222W        W19438   6.075   4.290   2.393
12223W        W19439   6.976  11.407   0.832
12224W        W19440   6.034  12.008   9.478
12225W        W19441   7.808   1.120  10.876
12226W        W19442   7.303  13.141   9.508
12227W        W19443   6.142  13.158   2.651
12228W        W19444   7.294   6.658   1.813
12229W        W19445   2.994   2.224   0.064
12230W        W19446  13.931  11.827  10.592
12231W        W19447   0.152   6.373   2.222
12232W        W19448   3.094  10.090  10.706
12233W        W19449  10.969  10.184   2.297
12234W        W19450   2.532   2.204   0.261
12235W        W19451  12.327  13.989   2.380
12236W        W19452  11.691   7.101   8.675
12237W        W19453   1.846   9.278   1.166
12238W        W19454  10.521   5.949   0.662
12239W        W19455   0.592   8.919   8.437
12240W        W19456   1.086   8.443   9.455
12241W        W19457   2.934   9.824  11.108
12242W        W19458  12.155   2.364   1.991
12243W        W19459   3.441  12.458   2.378
12244W        W19460   8.219   9.376   3.880
12245W        W19461  13.637   1.570   3.793
12246W        W19462   1.158   3.009   9.147
12247W        W19463  10.424  12.265   0.940
12248W        W19464   5.846   3.098  10.211
12249W        W19465   5.247   2.066  11.607
12250W        W19466   0.119   6.611   2.649
12251W        W19467   6.718   4.516   0.936
12252W        W19468  12.462  13.574   9.456
12253W        W19469  12.832   3.675   9.545
12254W        W19470  11.577   3.075  10.647
12255W        W19471   2.560   5.814   9.813
12256W        W19472  10.029   2.805  11.425
12257W        W19473   6.561  10.344   9.035
12258W        W19474   5.000   7.748  10.425
12259W        W19475   2.318   6.028   1.873
12260W        W19476  11.315   5.001   0.735
12261W        W19477   5.853   4.642  11.440
12262W        W19478   6.704   2.451   2.512
12263W        W19479   1.066   7.936   3.230
12264W        W19480   8.003  13.315   8.217
12265W        W19481   0.921   6.314   3.242
12266W        W19482   7.614   7.740  10.697
12267W        W19483   2.550   2.533   0.640
12268W        W19484   3.822   0.824  11.629
12269W        W19485   9.706  12.232   0.604
12270W        W19486   9.863   5.135   2.672
12271W        W19487   1.881   8.741   8.994
12272W        W19488   3.098   3.107   0.268
12273W        W19489   8.229   0.333   9.067
12274W        W19490   7.667   0.863  10.472
12275W        W19491   7.539   4.832   2.637
12276W        W19492  12.264   5.614   8.586
12277W        W19493   7.873   2.232   9.258
12278W        W19494   9.157   1.973   8.789
12279W        W19495   6.114  10.302   2.989
12280W        W19496   2.202   3.254   9.527
12281W        W19497  12.109   8.882   3.843
12282W        W19498   2.697   6.926   2.180
12283W        W19499  10.476  13.974   1.238
12284W        W19500   6.713  13.481  10.677
12285W        W19501   8.600   3.335  10.567
12286W        W19502   2.057   8.282  10.217
12287W        W19503   8.889   7.942   9.012
12288W        W19504   7.693   1.591   2.711
12289W        W19505   8.882   5.580  10.268
12290W        W19506  13.755  10.039   8.818
12291W        W19507  10.196   1.648   4.058
12292W        W19508  10.886   5.019   1.154
12293W        W19509   3.007   8.107   8.882
12294W        W19510   0.440   1.305   3.424
12295W        W19511  11.934   2.079  10.225
12296W        W19512   4.296   8.871   8.993
12297W        W19513   7.422   5.007   3.773
12298W        W19514   6.089  11.372   2.694
12299W        W19515   7.243   7.679   8.918
12300W        W19516   9.211  11.806   1.749
12301W        W19517   7.130  13.585   9.286
12302W        W19518  12.575   1.533   1.104
12303W        W19519   9.027  13.409   0.514
12304W        W19520   9.970   0.629   9.309
12305W        W19521   6.174  13.654   1.794
12306W        W19522  13.631  13.280   1.807
12307W        W19523   7.254   1.462   0.739
12308W        W19524   4.426   2.010   1.522
12309W        W19525   2.256   6.628   8.328
12310W        W19526   8.641  13.928   7.531
12311W        W19527  10.425   0.974   2.731
12312W        W19528  11.031   1.337   3.775
12313W        W19529   3.741  12.506   3.577
12314W        W19530   1.430   7.861  11.669
12315W        W19531   1.957   5.554   0.730
12316W        W19532   9.934  12.237   2.001
12317W        W19533   0.185   0.839   3.768
12318W        W19534   7.565   6.996   0.473
12319W        W19535   9.783   7.957   8.725
12320W        W19536  13.024   9.672   9.101
12321W        W19537   1.213  13.421  11.608
12322W        W19538  12.331  11.113  10.971
12323W        W19539   5.247  12.834   8.961
12324W        W19540  13.294  13.093  11.228
12325W        W19541   5.655   4.736   1.588
12326W        W19542  10.595   6.975  10.985
12327W        W19543   1.111  13.936  11.777
12328W        W19544   8.289   9.474   3.088
12329W        W19545  11.579   5.541   1.300
12330W        W19546   5.861  10.292   8.577
12331W        W19547   7.375   7.881  10.265
12332W        W19548   7.749   4.709   4.059
12333W        W19549   4.399   5.818  10.160
12334W        W19550  10.339   8.849  11.637
12335W        W19551   1.630   7.246   3.041
12336W        W19552  10.397   9.329   1.303
12337W        W19553   2.432  10.162   1.779
12338W        W19554   7.182   4.452   8.198
12339W        W19555  11.063  11.654   0.580
12340W        W19556  11.580  10.531   3.050
12341W        W19557  11.303   0.343  10.145
12342W        W19558   0.203  12.757   1.314
12343W        W19559  11.581   3.126   2.072
12344W        W19560  11.863   3.229   2.874
12345W        W19561   2.240   5.308   0.409
12346W        W19562   9.412  12.520   9.094
12347W        W19563   2.427   5.157   0.866
12348W        W19564   0.603  10.310   9.269
12349W        W19565  10.885   8.541   1.218
12350W        W19566  13.892   5.446   2.134
12351W        W19567   4.261   1.780   8.498
12352W        W19568   7.320  11.046   0.971
12353W        W19569   5.088   1.308   3.378
12354W        W19570   4.762  10.077   2.697
12355W        W19571   9.504   1.325   1.643
12356W        W19572   3.368   1.394   0.290
12357W        W19573  10.057   9.379  10.037
12358W        W19574   1.365   9.659   2.436
12359W        W19575  10.625   6.682   9.314
12360W        W19576   4.826  11.251   2.565
12361W        W19577  10.543  11.372   3.430
12362W        W19578   9.486   8.752   2.709
12363W        W19579   6.255   4.399   8.963
12364W        W19580   5.295   7.032  10.283
12365W        W19581   4.447   5.734   1.458
12366W        W19582   9.024  13.258   2.528
12367W        W19583  10.157  10.163   9.479
12368W        W19584   1.953   1.146   3.953
12369W        W19585   3.474  12.450  10.589
12370W        W19586   4.492  10.182   1.138
12371W        W19587   1.726   3.903   3.127
12372W        W19588   2.736  11.569   3.045
12373W        W19589  12.680   7.845   9.289
12374W        W19590  11.418   4.322  10.294
12375W        W19591   4.218   2.648  10.101
12376W        W19592   2.420   7.108   0.604
12377W        W19593   3.088  10.671   2.171
12378W        W19594   7.104   0.052   1.615
12379W        W19595   3.829   2.530  10.427
12380W        W19596   1.140   1.084   7.981
12381W        W19597   0.110  12.818  11.790
12382W        W19598   2.928  13.300   9.003
12383W        W19599   4.648   3.736  10.795
12384W        W19600  10.719   4.091   8.922
12385W        W19601   5.765   5.605  10.425
12386W        W19602   8.243   9.067   2.755
12387W        W19603   5.548  11.010   1.538
12388W        W19604   8.055   9.760   2.171
12389W        W19605  10.216   1.477   8.376
12390W        W19606   7.205   8.514   9.959
12391W        W19607   5.776   0.251  11.565
12392W        W19608  13.687   0.202   1.170
12393W        W19609   0.825  12.297   3.851
12394W        W19610   0.985   5.071  11.141
12395W        W19611  11.670  11.027   9.521
12396W        W19612  12.088   6.885   1.235
12397W        W19613   2.952   9.603   2.628
12398W        W19614  13.124   4.153   0.139
12399W        W19615  11.034   6.312   8.859
12400W        W19616  13.794  13.313  10.566
12401W        W19617   8.361  13.625   1.569
12402W        W19618  12.597   6.771  11.251
12403W        W19619   4.560   6.877   0.325
12404W        W19620  13.095   5.610   8.925
12405W        W19621   9.514   7.568   3.103
12406W        W19622  10.654   6.309   1.650
12407W        W19623   5.077   7.941   8.709
12408W        W19624   3.638  11.301   8.358
12409W        W19625   6.735  10.403   2.342
12410W        W19626   3.809   0.773   9.401
12411W        W19627  12.993  11.786  10.652
12412W        W19628   4.616   9.781   8.691
12413W        W19629  11.813  11.764  11.168
12414W        W19630   3.561   3.211   2.288
12415W        W19631   4.891   5.247  11.709
12416W        W19632   7.797   7.992   0.892
12417W        W19633  12.965   7.974   2.677
12418W        W19634   7.604  10.335  10.239
12419W        W19635   1.174   7.475   9.388
12420W        W19636   4.656   0.816  11.026
12421W        W19637   1.135   4.786   7.821
12422W        W19638   1.948  10.433   2.637
12423W        W19639   0.776  13.130   7.704
12424W        W19640   9.032   9.098   1.999
12425W        W19641  11.407  13.039   1.301
12426W        W19642  11.757   5.823  10.001
12427W        W19643   1.942   1.145   8.276
12428W        W19644  11.228   0.958  11.263
12429W        W19645  13.139  12.927   0.202
12430W        W19646   6.657  11.036   3.442
12431W        W19647   4.084   0.296  11.680
12432W        W19648   4.116   5.399  11.756
12433W        W19649   4.369   0.754   1.084
12434W        W19650   3.639   4.119   1.350
12435W        W19651   7.452   7.383  10.314
12436W        W19652  11.435   0.121   1.908
12437W        W19653   1.742   0.280   0.938
12438W        W19654   6.100   7.881   3.748
12439W        W19655   8.213  13.212   1.936
12440W        W19656   9.271   2.338   9.602
12441W        W19657   2.974  11.275  11.419
12442W        W19658  11.714   9.689   8.595
12443W        W19659  13.071   8.179  10.785
12444W        W19660   5.639   5.161  10.186
12445W        W19661  10.213   0.738   8.870
12446W        W19662   6.108   8.079  11.362
12447W        W19663   2.712  10.319   3.857
12448W        W19664  13.409   5.244  10.309
12449W        W19665  10.855  12.886  10.288
12450W        W19666   4.672   7.811   0.303
12451W        W19667   9.988   6.442   0.576
12452W        W19668  13.469  11.856   2.624
12453W        W19669   0.615   9.318   0.982
12454W        W19670   3.243   0.295   7.571
12455W        W19671   1.162   5.178  11.991
12456W        W19672   3.219   9.354   2.949
12457W        W19673  10.404   6.708   2.843
12458W        W19674   9.359   8.536   0.551
12459W        W19675   9.895  11.889  11.245
12460W        W19676   5.116   7.825   2.207
12461W        W19677   2.564   4.396   2.131
12462W        W19678   9.167   7.725   0.985
12463W        W19679   3.103  12.148   9.194
12464W        W19680   4.134   0.340   3.316
12465W        W19681   3.394   0.586  10.198
12466W        W19682  10.719  11.137  11.457
12467W        W19683  10.095   4.596   2.284
12468W        W19684   3.913   6.746  11.881
12469W        W19685  11.200   5.988   8.509
12470W        W19686   5.081   3.722   1.769
12471W        W19687   0.927   3.685   8.564
12472W        W19688  11.815   5.992  10.502
12473W        W19689  13.365   5.049   8.096
12474W        W19690   6.949   5.896  11.041
12475W        W19691   9.625   1.784   0.335
12476W        W19692   5.767   3.138   3.136
12477W        W19693  10.486  12.951   8.090
12478W        W19694   3.616  13.744   8.227
12479W        W19695   4.645   0.914  10.267
12480W        W19696   6.448   2.116   8.464
12481W        W19697   1.341   2.345   3.454
12482W        W19698   4.601   0.370   0.819
12483W        W19699   5.434   2.217   2.956
12484W        W19700   5.374   1.557   2.793
12485W        W19701  13.883   1.178   3.526
12486W        W19702   1.209  12.535   1.958
12487W        W19703  13.749   3.793   0.585
12488W        W19704   2.210   0.061   4.050
12489W        W19705   0.192   9.481  11.437
12490W        W19706  12.558   7.569  11.744
12491W        W19707   4.383   8.368  11.197
12492W        W19708  10.726   5.663   1.025
12493W        W19709  12.361   2.261   8.500
12494W        W19710  12.850  12.848  10.033
12495W        W19711   6.833   8.654   0.329
12496W        W19712   6.541   7.236  10.189
12497W        W19713   7.046   4.197   0.732
12498W        W19714  13.421   3.538  10.718
12499W        W19715   6.043   1.071   8.136
12500W        W19716   0.638   9.610   2.687
12501W        W19717   1.923   0.324  10.905
12502W        W19718   6.300  13.786  10.823
12503W        W19719   6.976  11.950   1.235
12504W        W19720   3.559  12.611   3.102
12505W        W19721   7.320   1.609   0.258
12506W        W19722  11.957   2.085   1.350
12507W        W19723  11.982   0.392   1.403
12508W        W19724  11.988  10.451   2.300
12509W        W19725   8.981   9.775   2.724
12510W        W19726   1.727   7.745   2.164
12511W        W19727   9.095   6.717   0.754
12512W        W19728   7.185   1.840   1.921
12513W        W19729   3.402   6.991   9.485
12514W        W19730   7.858  12.397   3.074
12515W        W19731   6.491   8.062   3.089
12516W        W19732  10.316  13.225   0.769
12517W        W19733   5.077   3.448   9.576
12518W        W19734   0.303   3.048   2.879
12519W        W19735  11.803   5.264  11.113
12520W        W19736  13.207   2.201   9.461
12521W        W19737  11.624  13.154   8.886
12522W        W19738  10.314   5.039   8.635
12523W        W19739   9.081   4.017   9.015
12524W        W19740   2.614  13.887   2.415
12525W        W19741   8.384   2.168  10.450
12526W        W19742  10.862   5.249   3.359
12527W        W19743  10.895   4.625   9.287
12528W        W19744   0.788  12.496  10.362
12529W        W19745   0.539  13.047  10.061
12530W        W19746   4.462  12.566  10.473
12531W        W19747   5.469   5.929  11.629
12532W        W19748   2.348  13.504   3.343
12533W        W19749  10.706   5.519  10.774
12534W        W19750   8.455  10.556   2.311
12535W        W19751  10.223   2.592   1.998
12536W        W19752   3.385  13.263   8.787
12537W        W19753   6.189   6.228   9.545
12538W        W19754   4.079  10.485   1.233
12539W        W19755   4.803  13.013   9.796
12540W        W19756   5.181   5.796   1.802
12541W        W19757   3.432  12.667   1.007
12542W        W19758  12.652   1.131  11.957
12543W        W19759   5.556  10.376   0.020
12544W        W19760   2.152  11.248  10.053
12545W        W19761  12.592   3.072  10.491
12546W        W19762  10.814   2.225   3.240
12547W        W19763  13.691   1.195   2.793
12548W        W19764  13.019  12.230   8.539
12549W        W19765   0.289   3.553  11.630
12550W        W19766   1.567   9.917   9.749
12551W        W19767   9.147   3.334  11.259
12552W        W19768   9.873  10.263   8.647
12553W        W19769   3.504   7.465  11.002
12554W        W19770   2.505   6.466   2.069
12555W        W19771   8.568   8.193   9.791
12556W        W19772  10.882  13.539   8.824
12557W        W19773   6.107   5.025  11.660
12558W        W19774  11.343   5.131   8.711
12559W        W19775   2.560  11.675   2.205
12560W        W19776  12.635  12.333   0.314
12561W        W19777   8.814   5.003   1.100
12562W        W19778   6.839  12.475   2.720
12563W        W19779   0.392  13.667  11.713
12564W        W19780   6.115   0.747  10.082
12565W        W19781  13.253   5.537   8.133
12566W        W19782   1.665  13.007   8.479
12567W        W19783   6.891   8.917   1.131
12568W        W19784  12.409  13.749   0.271
12569W        W19785   8.020   6.161   0.848
12570W        W19786   2.936  13.293   9.929
12571W        W19787   8.265   1.326   9.668
12572W        W19788   8.669  12.883   9.624
12573W        W19789  11.108  11.065  11.157
12574W        W19790   4.442  12.139  10.055
12575W        W19791   1.425   1.465   1.613
12576W        W19792   9.710   2.164   1.222
12577W        W19793   7.646  10.498   9.746
12578W        W19794  11.802   0.052  10.156
12579W        W19795  11.742   8.273  11.128
12580W        W19796  13.485   5.599   2.858
12581W        W19797   9.100  11.814   0.066
12582W        W19798   8.013   0.176   3.632
12583W        W19799   5.737   7.939  11.028
12584W        W19800   7.807  13.809   2.406
12585W        W19801   5.232  13.659   1.925
12586W        W19802   4.846   2.441   9.586
12587W        W19803   5.650   1.694   0.648
12588W        W19804  12.054   0.074  10.604
12589W        W19805   4.974   9.423   2.946
12590W        W19806   0.865  11.957  10.569
12591W        W19807   2.495   0.202   9.897
12592W        W19808   9.796   0.987   3.804
12593W        W19809   1.801   0.136   2.270
12594W        W19810   0.210   7.957   8.479
12595W        W19811   4.693  13.789   9.171
12596W        W19812   9.710   1.702   3.510
12597W        W19813   0.029   3.298   0.372
12598W        W19814  13.012   2.233  11.566
12599W        W19815   4.217   4.155   9.973
12600W        W19816   9.502   0.746   1.921
12601W        W19817  10.164   7.744   3.839
12602W        W19818   3.131  12.121  11.499
12603W        W19819   6.349   4.662   1.294
12604W        W19820   3.318   6.956   2.903
12605W        W19821  12.157   1.243   0.035
12606W        W19822   6.467  11.239   0.827
12607W        W19823   1.620   4.744   0.485
12608W        W19824   8.139   5.046   8.243
12609W        W19825   2.625  10.377  11.694
12610W        W19826   1.170   4.013  11.039
12611W        W19827   3.829   4.509  11.543
12612W        W19828  12.948   5.940   3.186
12613W        W19829  12.179   3.858   3.082
12614W        W19830   5.652   3.603  11.448
12615W        W19831  10.501   6.125   1.180
12616W        W19832   8.558   5.024   1.855
12617W        W19833  11.731  13.958   2.682
12618W        W19834   0.094   7.868   4.216
12619W        W19835   0.346  12.775   0.811
12620W        W19836   3.238   0.779   9.753
12621W        W19837   8.900   8.788  10.411
12622W        W19838   1.317  11.059   8.992
12623W        W19839   1.362   2.297  10.316
12624W        W19840  10.001  12.329   2.853
12625W        W19841   9.242  11.845  10.921
12626W        W19842   9.064  12.574  10.447
12627W        W19843   0.642   6.688   9.145
12628W        W19844  13.069   4.874  10.233
12629W        W19845   8.031   2.402   3.568
12630W        W19846   7.499  11.746   9.166
12631W        W19847   6.191   7.398   9.269
12632W        W19848   1.350   4.874  10.857
12633W        W19849   2.435  13.976   8.601
12634W        W19850   3.595  11.850   0.800
12635W        W19851   9.675   1.023   9.451
12636W        W19852   1.351   4.690   2.941
12637W        W19853   1.094  12.046   9.897
12638W        W19854   5.232  12.826  10.331
12639W        W19855   8.965   7.823  10.418
12640W        W19856   7.281   3.995   7.978
12641W        W19857  13.932   4.407   3.633
12642W        W19858   6.895  11.096   9.593
12643W        W19859   8.286   2.123  11.355
12644W        W19860   5.248   1.069   2.956
12645W        W19861   5.555   2.467   2.461
12646W        W19862  13.347   4.345  11.164
12647W        W19863   5.212   5.862   0.465
12648W        W19864  13.883  11.405  10.313
12649W        W19865  10.745   4.433  11.448
12650W        W19866   7.430   9.443   8.605
12651W        W19867   0.733   2.952   8.888
12652W        W19868  13.702  11.840  10.132
12653W        W19869   4.071   2.880   8.804
12654W        W19870   4.178   7.990   2.665
12655W        W19871   8.665   9.916  10.156
12656W        W19872   4.294  13.180   9.760
12657W        W19873   2.652  12.159   8.963
12658W        W19874  12.919   8.184   3.813
12659W        W19875   7.363   8.783   1.334
12660W        W19876   9.246   6.654  11.011
12661W        W19877  13.269   4.918   3.336
12662W        W19878   5.183   9.872  11.509
12663W        W19879  13.639   0.349  11.391
12664W        W19880   7.071   9.161   9.950
12665W        W19881   1.572   3.264  10.768
12666W        W19882  13.265   0.444   1.203
12667W        W19883   4.696   4.102   0.238
12668W        W19884   4.925   3.036  11.742
12669W        W19885   7.465   4.435  11.304
12670W        W19886   8.589   2.525  10.144
12671W        W19887   3.471   0.932   0.636
12672W        W19888   5.451  10.780   1.967
12673W        W19889   7.434   2.962   3.435
12674W        W19890   4.283   9.998   9.664
12675W        W19891  11.326   9.959   8.807
12676W        W19892   9.220   3.822   8.584
12677W        W19893   0.470  13.175  11.834
12678W        W19894   0.165   8.320   2.825
12679W        W19895   0.497   8.018   0.444
12680W        W19896  12.156   4.170   9.279
12681W        W19897   2.712   0.631   2.942
12682W        W19898   5.025   3.199  10.311
12683W        W19899   7.840   3.901   3.461
12684W        W19900  12.079   6.103  10.917
12685W        W19901   6.082   6.571  11.214
12686W        W19902   1.425  12.052  10.813
12687W        W19903   5.392   2.543   9.739
12688W        W19904   5.041   5.626   0.038
12689W        W19905   8.949   7.697  10.911
12690W        W19906   4.467   8.593   1.344
12691W        W19907   3.417  13.510  11.583
12692W        W19908   3.067  13.918   3.527
12693W        W19909   8.224   9.335   1.924
12694W        W19910   7.602   3.973   2.959
12695W        W19911  11.246  11.913   3.348
12696W        W19912   0.058   1.649   3.390
12697W        W19913   4.673   9.021   1.147
12698W        W19914   6.322  13.778   1.030
12699W        W19915  12.102  11.536  10.280
12700W        W19916   0.428  11.044   9.173
12701W        W19917   0.370   5.250   7.491
12702W        W19918   1.775   3.489   9.392
12703W        W19919   0.209   8.677   9.211
12704W        W19920   9.628   7.948   0.941
12705W        W19921   8.779   4.646   9.380
12706W        W19922  10.265   7.865  11.747
12707W        W19923   2.127  10.599   1.809
12708W        W19924   7.695   3.151   0.984
12709W        W19925  11.428   4.138   3.118
12710W        W19926   4.146   6.637  11.422
12711W        W19927   0.182   6.851  10.715
12712W        W19928   0.038   7.729   1.131
12713W        W19929   5.073  12.644  11.583
12714W        W19930  12.708   9.002   8.109
12715W        W19931   3.497   1.820  11.040
12716W        W19932  13.918   1.642   2.872
12717W        W19933   6.433   1.835  10.056
12718W        W19934   6.922   6.589  10.997
12719W        W19935   0.441   1.130   0.871
12720W        W19936  11.226   9.532   0.079
12721W        W19937   3.063   3.373   9.349
12722W        W19938   5.535   0.091   3.090
12723W        W19939  13.127   0.735  10.142
12724W        W19940   1.956   2.684  11.371
12725W        W19941   4.405  13.220   1.987
12726W        W19942   9.962  10.285  10.801
12727W        W19943   1.543   2.893   2.890
12728W        W19944   2.266   5.945   2.877
12729W        W19945   0.076   2.983   1.908
12730W        W19946   6.952  13.971   4.021
12731W        W19947   2.374   7.279   3.562
12732W        W19948  12.269   1.103   2.138
12733W        W19949   0.683   5.714   9.359
12734W        W19950   7.093   7.235   8.636
12735W        W19951  11.338  12.170  11.360
12736W        W19952   9.545   7.662   1.352
12737W        W19953   1.379   8.941   1.152
12738W        W19954   8.689   7.790  11.364
12739W        W19955   7.214   4.278   1.246
12740W        W19956   1.592   1.083   1.332
12741W        W19957   8.321   8.127  11.418
12742W        W19958   4.795   4.779  11.466
12743W        W19959   9.059   6.173  11.090
12744W        W19960   1.764   6.765   2.819
12745W        W19961   9.244   2.800   2.849
12746W        W19962   3.619  12.831   8.851
12747W        W19963  11.850  10.256   1.428
12748W        W19964   2.018  11.409  10.532
12749W        W19965  11.093   9.357   1.035
12750W        W19966  11.069   6.304   2.375
12751W        W19967  11.562   6.634  10.135
12752W        W19968   7.642   7.416   9.121
12753W        W19969  12.235   5.206   8.908
12754W        W19970   2.389  11.374   8.829
12755W        W19971   3.460   8.117   8.584
12756W        W19972  10.444  12.228  10.051
12757W        W19973   0.357  13.913  10.511
12758W        W19974   4.429   5.139   8.610
12759W        W19975   5.543  12.468  10.505
12760W        W19976  11.326   3.972   3.582
12761W        W19977   9.854  10.668   1.637
12762W        W19978   3.412   8.890   9.883
12763W        W19979   9.462   7.145   9.313
12764W        W19980   0.693  13.904   4.471
12765W        W19981  13.225  12.786  10.808
12766W        W19982  13.288   1.405   7.676
12767W        W19983   7.891   9.308   9.869
12768W        W19984  11.150  12.934   1.738
12769W        W19985   9.770   7.689  10.061
12770W        W19986   8.486   0.987   7.819
12771W        W19987  10.881   2.482   8.962
12772W        W19988  12.456   1.289   2.595
12773W        W19989   7.367   3.158   8.451
12774W        W19990   4.632  12.861  11.672
12775W        W19991   5.827   8.374   8.703
12776W        W19992   3.722   3.195   8.630
12777W        W19993   0.726   7.188   0.375
12778W        W19994   4.026   6.633   3.391
12779W        W19995   6.650   4.975   9.039
12780W        W19996  11.735   5.773   0.380
12781W        W19997   5.985  11.102   0.908
12782W        W19998   3.566   2.255   9.057
12783W        W19999  13.510   3.481   8.665
12784W        W20000   2.669   1.770   0.988
12785W        W20001   8.860   3.120   9.716
12786W        W20002  13.056   6.286   1.879
12787W        W20003   3.416   0.224   2.992
12788W        W20004   8.890   0.106   9.606
12789W        W20005   5.655  10.748   8.730
12790W        W20006  12.885  12.955   9.057
12791W        W20007   7.605   5.606   4.031
12792W        W20008   7.805   3.713  11.198
12793W        W20009   2.478   8.387   2.260
12794W        W20010   5.943  10.079  11.829
12795W        W20011   4.341   5.075   2.546
12796W        W20012   4.150   2.120  10.479
12797W        W20013   0.298   7.834  10.851
12798W        W20014  11.019   1.063   8.574
12799W        W20015   6.069  13.517   3.008
12800W        W20016   9.391   8.354  11.620
12801W        W20017   5.473  13.458  10.934
12802W        W20018  13.844   9.051   9.905
12803W        W20019  11.819   5.371   8.665
12804W        W20020  13.751   7.169  11.676
12805W        W20021   3.613   1.837   7.818
12806W        W20022   9.120   9.339   8.724
12807W        W20023  10.278  10.863   0.762
12808W        W20024   8.642   5.840   2.312
12809W        W20025   7.842  12.876   0.400
12810W        W20026   9.889   1.685  10.017
12811W        W20027   7.748  13.582   0.606
12812W        W20028  11.940   7.882   2.747
12813W        W20029  13.631  13.354   4.050
12814W        W20030   2.373  10.816  11.643
12815W        W20031   2.346   2.112   0.847
12816W        W20032   7.081  10.390   9.033
12817W        W20033   5.613  12.074   1.452
12818W        W20034  10.904  13.754   3.916
12819W        W20035  10.480   3.667   1.580
12820W        W20036   7.047   3.744   8.748
12821W        W20037   3.699  11.357  10.764
12822W        W20038   1.408  13.794   2.961
12823W        W20039   0.733   8.877   0.002
12824W        W20040   9.976   7.649   8.057
12825W        W20041   0.280   0.356   8.778
12826W        W20042  13.627  12.135   1.685
12827W        W20043   5.137  13.132  11.630
12828W        W20044   7.452   8.203   2.422
12829W        W20045   7.176   1.907   8.636
12830W        W20046  10.105  13.235   8.277
12831W        W20047  11.330   5.036  10.990
12832W        W20048   8.026  13.698   1.964
12833W        W20049  12.501   0.521   8.782
12834W        W20050   4.350   8.707   3.088
12835W        W20051  11.168   7.407   8.468
12836W        W20052   9.008   3.641   1.607
12837W        W20053   9.235   8.552   3.496
12838W        W20054   2.843   8.788   0.648
12839W        W20055   5.288  11.988   2.924
12840W        W20056  10.176   3.603   0.910
12841W        W20057  10.207   4.464  10.453
12842W        W20058   9.234   5.058  11.850
12843W        W20059   5.955   0.857   3.728
12844W        W20060   2.536   1.276   0.750
12845W        W20061   3.936  13.394   2.270
12846W        W20062   3.768   6.234   1.647
12847W        W20063  10.668   8.134  10.863
12848W        W20064   3.046   6.305   9.334
12849W        W20065   1.720  13.984  10.125
12850W        W20066  10.959   3.884   2.270
12851W        W20067   1.470   2.914   8.480
12852W        W20068   0.990   1.947  11.729
12853W        W20069   5.252   5.226   3.482
12854W        W20070   2.102   1.853  10.081
12855W        W20071   9.984  11.077   0.370
12856W        W20072  13.304  10.251   2.254
12857W        W20073   7.837   0.529   3.325
12858W        W20074   2.269   0.048   0.949
12859W        W20075   8.566  12.532  10.278
12860W        W20076   2.105   6.839   1.382
12861W        W20077   0.578   5.153   2.809
12862W        W20078   5.996   4.114   8.029
12863W        W20079   6.983  11.805   3.782
12864W        W20080   0.895  10.521  10.099
12865W        W20081  10.407   2.698   9.106
12866W        W20082   6.971   9.087   2.701
12867W        W20083   4.426   4.239   0.691
12868W        W20084   7.958   8.609  10.337
12869W        W20085   3.479   4.232   3.674
12870W        W20086   3.457   2.307   0.198
12871W        W20087  12.615   6.431   3.223
12872W        W20088   8.063   1.306  10.178
12873W        W20089   3.152   0.740   4.100
12874W        W20090  13.020   3.131   9.922
12875W        W20091  13.387  12.703   3.182
12876W        W20092   2.346  11.748   0.748
12877W        W20093  10.618   3.350   0.222
12878W        W20094  11.608   7.646   0.099
12879W        W20095  12.446   0.383  10.399
12880W        W20096  13.613   7.729   9.309
12881W        W20097  13.270  11.702   0.089
12882W        W20098  10.067   4.679   9.481
12883W        W20099   9.233   7.586  10.039
12884W        W20100   9.088  13.925   1.242
12885W        W20101  10.107   2.161  10.019
12886W        W20102   8.666   6.233   1.935
12887W        W20103  12.589   3.116  11.965
12888W        W20104   5.288   1.053   1.660
12889W        W20105   3.180  12.416   3.432
12890W        W20106  12.239   4.094   0.925
12891W        W20107  12.137  12.499   8.578
12892W        W20108  11.387  13.380   1.655
12893W        W20109   6.168   7.929   0.241
12894W        W20110  13.606   8.518   0.871
12895W        W20111  10.315  12.706  10.076
12896W        W20112  12.817   4.347  11.194
12897W        W20113   4.170   8.682   1.741
12898W        W20114   2.911  12.211   0.647
12899W        W20115   7.880   4.639  10.414
12900W        W20116   7.323   0.973   0.476
12901W        W20117  12.651   8.829   9.054
12902W        W20118   8.516  10.184   9.166
12903W        W20119   3.330   5.993  10.342
12904W        W20120   3.995   3.385   2.123
12905W        W20121   5.950   8.278   0.620
12906W        W20122   5.600   0.041   9.778
12907W        W20123   9.189   9.099   8.279
12908W        W20124  10.502   8.392   3.260
12909W        W20125   6.769   3.397   9.985
12910W        W20126   3.622   5.787   1.939
12911W        W20127  11.583   5.270  11.591
12912W        W20128   8.979   5.357   9.002
12913W        W20129  13.632   3.254   2.167
12914W        W20130   2.491  10.773   1.017
12915W        W20131  11.243   3.887  10.129
12916W        W20132   7.442   7.878  11.366
12917W        W20133  10.629   0.621   3.687
12918W        W20134   2.853  10.365   9.599
12919W        W20135   0.263  12.354   3.171
12920W        W20136   7.717   6.448   3.034
12921W        W20137   2.137   0.245  10.316
12922W        W20138   4.704   0.409  10.249
12923W        W20139  12.746   7.103   3.885
12924W        W20140   9.626   1.329   2.626
12925W        W20141   7.404  10.736  10.579
12926W        W20142   8.019   1.307   0.907
12927W        W20143   9.590   3.474  10.103
12928W        W20144  10.566   2.144   0.790
12929W        W20145  12.976  11.836   9.778
12930W        W20146   2.810  13.988   8.963
12931W        W20147   7.519   0.504   8.060
12932W        W20148   0.439   9.965   2.383
12933W        W20149   5.056  10.827   1.610
12934W        W20150  10.927   4.103  11.109
12935W        W20151  11.770   6.280   2.610
12936W        W20152   8.603   6.959   1.971
12937W        W20153   5.271   7.374  11.549
12938W        W20154   1.816   3.774   2.505
12939W        W20155   5.770   8.224   1.876
12940W        W20156  11.765  12.328  10.810
12941W        W20157   5.477   0.974   3.511
12942W        W20158   8.315  12.951  10.414
12943W        W20159   7.361  12.801  11.546
12944W        W20160  13.459   3.037  11.442
12945W        W20161  10.881  11.360   8.999
12946W        W20162   3.605  10.365   0.313
12947W        W20163  11.990  12.234   8.988
12948W        W20164  10.772   2.701   9.911
12949W        W20165   3.466   4.914   8.930
12950W        W20166   9.948   6.886  11.671
12951W        W20167   2.826   2.302   0.991
12952W        W20168   2.940   2.132   8.534
12953W        W20169   9.169   3.568  10.439
12954W        W20170   8.049   5.469   3.131
12955W        W20171  13.600  11.556   1.966
12956W        W20172   8.121   9.161   3.421
12957W        W20173   9.129   3.163   8.234
12958W        W20174   1.612  11.404   2.168
12959W        W20175  13.990   5.978   1.335
12960W        W20176   4.795   6.250  11.732
12961W        W20177   1.692   1.913   8.745
12962W        W20178   8.330  13.128   1.444
12963W        W20179   4.304   4.654  11.576
12964W        W20180  10.617   1.827  10.853
12965W        W20181  12.146   8.422   9.726
12966W        W20182   7.868  13.614  11.037
12967W        W20183   4.653   1.166   1.223
12968W        W20184   6.062   1.004   3.273
12969W        W20185   8.425  11.793  10.715
12970W        W20186  13.971   6.504   1.369
12971W        W20187   4.571   9.147   2.981
12972W        W20188   3.927   4.134   8.659
12973W        W20189   8.040   5.311   0.326
12974W        W20190   7.114   2.602   7.613
12975W        W20191  11.631   7.173   2.338
12976W        W20192   1.186  11.875   3.230
12977W        W20193   3.621  13.168   1.060
12978W        W20194   6.857  13.557   3.221
12979W        W20195   6.748   7.289   1.676
12980W        W20196   4.553   8.256   2.927
12981W        W20197   8.631   1.265   0.060
12982W        W20198   7.803   8.611  10.852
12983W        W20199   0.637   1.566   1.078
12984W        W20200  13.627   6.800  10.642
12985W        W20201   2.373   8.585   9.178
12986W        W20202   7.290  10.623   1.672
12987W        W20203   3.000  12.533  10.748
12988W        W20204   8.610   8.414   0.035
12989W        W20205  12.757  11.901  11.104
12990W        W20206   3.813  11.410  11.384
12991W        W20207   8.198   7.849   2.140
12992W        W20208   1.711   2.201   8.233
12993W        W20209   4.804   8.196   7.896
12994W        W20210   6.469   2.087  11.377
12995W        W20211   3.313   7.670   2.231
12996W        W20212  11.217  10.576   2.714
12997W        W20213   6.662   4.415   3.490
12998W        W20214   6.965   9.818   3.062
12999W        W20215  10.767   8.356   8.820
13000W        W20216   1.877  10.262   9.917
13001W        W20217   1.430  12.250   9.134
13002W        W20218  10.392   1.761   9.961
13003W        W20219   2.784  13.691   1.352
13004W        W20220  11.412   7.979   9.433
13005W        W20221  10.162   6.061   8.624
13006W        W20222  12.063   4.497   2.850
13007W        W20223   2.961  11.784   8.722
13008W        W20224   4.763   9.560  11.481
13009W        W20225  10.718  11.856   9.247
13010W        W20226  13.141  10.095  10.042
13011W        W20227   4.123  13.584  10.025
13012W        W20228   7.569  11.242  10.438
13013W        W20229  13.973   7.088  11.213
13014W        W20230  10.858  11.008   3.570
13015W        W20231   2.360   1.156  11.796
13016W        W20232  10.953   2.090   9.304
13017W        W20233  12.003   9.510   0.393
13018W        W20234   6.589   3.956   2.745
13019W        W20235   8.567   3.543   1.956
13020W        W20236   6.689   0.803   2.927
13021W        W20237   8.120   4.751   2.579
13022W        W20238  13.220   1.851   9.866
13023W        W20239   8.272  11.848   9.803
13024W        W20240   1.981  13.402   2.628
13025W        W20241   6.527   6.244   4.049
13026W        W20242   4.585  10.648   1.333
13027W        W20243   4.005   2.638  10.947
13028W        W20244   2.838   6.234   9.776
13029W        W20245   6.080   6.088  10.014
13030W        W20246  11.478   6.753  10.795
13031W        W20247   4.538   5.460   0.043
13032W        W20248   3.435  13.483  10.559
13033W        W20249   5.639   2.887   2.717
13034W        W20250   8.462  11.869   3.597
13035W        W20251   5.936   9.560   1.893
13036W        W20252   1.588   0.779   3.070
13037W        W20253   6.418   2.592  11.198
13038W        W20254   6.251  10.005   0.269
13039W        W20255   9.110  12.333   3.402
13040W        W20256   4.743   0.635   0.392
13041W        W20257   3.491   8.417   7.834
13042W        W20258   7.712  10.928   1.771
13043W        W20259   5.824   1.711   1.147
13044W        W20260  10.268   3.066  10.910
13045W        W20261   7.787   6.347  10.012
13046W        W20262   3.426   0.047  10.078
13047W        W20263  12.031   6.395  11.910
13048W        W20264   4.542   5.879   7.736
13049W        W20265  11.583   7.284   1.221
13050W        W20266   7.887   5.431   9.334
13051W        W20267  10.306   2.640   2.500
13052W        W20268  13.290  11.853   3.587
13053W        W20269   5.327   0.226   2.643
13054W        W20270  11.934  11.297  11.335
13055W        W20271  11.269  12.743  10.029
13056W        W20272   6.446   4.468   9.418
13057W        W20273  13.112   4.867   1.262
13058W        W20274  12.091   8.786   2.985
13059W        W20275   8.352  10.997   1.113
13060W        W20276   2.624  11.290   0.561
13061W        W20277   8.634   3.275   1.518
13062W        W20278   5.634   8.916   2.478
13063W        W20279   4.865   8.306   1.483
13064W        W20280   8.959   2.170   2.727
13065W        W20281   2.302  13.392   7.967
13066W        W20282   6.664   4.626   3.993
13067W        W20283  13.042   8.574   0.469
13068W        W20284   0.588   0.669   9.441
13069W        W20285  11.312   9.877   2.836
13070W        W20286   3.377   1.654  10.568
13071W        W20287   2.899   3.819  11.214
13072W        W20288   2.429   0.059  11.614
13073W        W20289  11.692  10.461   1.865
13074W        W20290  13.601  12.414  10.793
13075W        W20291   7.846   4.377   2.765
13076W        W20292   2.214   0.610   9.959
13077W        W20293   6.987   5.379  10.878
13078W        W20294  13.328   2.509   1.153
13079W        W20295  13.676   1.124   9.018
13080W        W20296   9.499   8.039   9.818
13081W        W20297   2.255  11.977   9.260
13082W        W20298   9.655   9.342   3.304
13083W        W20299   1.356   8.031   3.648
13084W        W20300  13.287  13.979   2.556
13085W        W20301   1.448   0.690   8.155
13086W        W20302   4.487   8.773   0.743
13087W        W20303   5.553   3.241   8.515
13088W        W20304   7.623  13.058   3.518
13089W        W20305   3.485   2.235   8.547
13090W        W20306   3.457  11.969   7.774
13091W        W20307   8.734   7.057   9.719
13092W        W20308  13.555   4.765  10.104
13093W        W20309  10.963  13.280   3.209
13094W        W20310   9.891  12.391  11.214
13095W        W20311   9.162  13.655   2.813
13096W        W20312   0.093  10.347   2.599
13097W        W20313   5.636  12.526   9.057
13098W        W20314  11.545   2.606   9.768
13099W        W20315   9.833   2.514   2.347
13100W        W20316   0.111   1.814   9.910
13101W        W20317   6.783  11.974   8.514
13102W        W20318   9.768   1.675   1.905
13103W        W20319   6.388  13.827   8.465
13104W        W20320   5.753   5.588   9.922
13105W        W20321   2.559   4.981   8.805
13106W        W20322   9.244   9.230   3.590
13107W        W20323   6.270  13.275  10.843
13108W        W20324   9.963   6.305   9.913
13109W        W20325  13.183  13.595  11.706
13110W        W20326  10.072   7.657   2.119
13111W        W20327  13.399   7.079   2.429
13112W        W20328   3.719   9.974   8.839
13113W        W20329   0.951   9.384   8.077
13114W        W20330  12.968   5.998  11.082
13115W        W20331  12.767   7.979   3.148
13116W        W20332   3.834   2.207  11.807
13117W        W20333   5.492   9.873  11.946
13118W        W20334   2.467  13.920   0.518
13119W        W20335   3.733  11.569  11.896
13120W        W20336   7.573   0.228   9.811
13121W        W20337  13.731   8.189   3.013
13122W        W20338   4.333   7.628  10.487
13123W        W20339  13.254  10.620  10.067
13124W        W20340   0.546  11.932   1.893
13125W        W20341   7.072   2.594   3.344
13126W        W20342   5.183   9.590   9.509
13127W        W20343   9.676   1.446  11.353
13128W        W20344  13.573   1.379   1.042
13129W        W20345  12.907   7.120   9.971
13130W        W20346  12.236   7.944   3.234
13131W        W20347  11.130   1.306   9.550
13132W        W20348   3.417   6.010   8.509
13133W        W20349   4.624   4.444   2.889
13134W        W20350   5.550   6.125   9.937
13135W        W20351  10.820  11.053   8.571
13136W        W20352  10.592  12.060  11.702
13137W        W20353   2.066  11.947   0.152
13138W        W20354   5.790   3.689   8.368
13139W        W20355  13.542   0.587   8.292
13140W        W20356  11.219   9.342  11.596
13141W        W20357  13.045  13.431   0.206
13142W        W20358   5.428  10.605   1.279
13143W        W20359   0.686  10.953   2.503
13144W        W20360  12.497   1.070   9.681
13145W        W20361   4.074   3.364   8.968
13146W        W20362   1.635  13.340   0.461
13147W        W20363   0.217  12.230   2.127
13148W        W20364  13.954  11.033   9.539
13149W        W20365   7.665   0.152  10.894
13150W        W20366   6.269   9.008   1.376
13151W        W20367   2.320   4.804  11.973
13152W        W20368   3.751   8.450   0.861
13153W        W20369   7.435  10.039   9.861
13154W        W20370  10.731  12.220   8.488
13155W        W20371   9.531  10.052   2.796
13156W        W20372   2.984   5.401   2.415
13157W        W20373   8.989   5.375   2.469
13158W        W20374   9.321  11.440   1.418
13159W        W20375  13.764  10.105  11.883
13160W        W20376  11.518   0.050   0.220
13161W        W20377  13.748   7.123   3.721
13162W        W20378   0.389   6.800  10.246
13163W        W20379   0.174  12.492   8.876
13164W        W20380   3.390   6.719  11.907
13165W        W20381   8.373  13.662  10.876
13166W        W20382   7.380   1.435  10.863
13167W        W20383   9.472   3.001   0.964
13168W        W20384   2.427   4.816  10.608
13169W        W20385  13.162   8.791  11.130
13170W        W20386   5.122  13.524   9.198
13171W        W20387   2.331  12.676   0.122
13172W        W20388   1.271  12.696  10.476
13173W        W20389  12.751   6.656   0.378
13174W        W20390   7.069   6.990   0.672
13175W        W20391  12.622   0.819   8.328
13176W        W20392  11.495  11.646   1.845
13177W        W20393   5.055   6.937   1.209
13178W        W20394   9.474   2.968  11.494
13179W        W20395   2.843   3.825  10.003
13180W        W20396   0.730  10.077   1.987
13181W        W20397   8.627   2.222   2.347
13182W        W20398   2.587   3.933   1.859
13183W        W20399  10.734  10.077   1.714
13184W        W20400   2.075   9.762   3.158
13185W        W20401   7.966   9.468  10.332
13186W        W20402  11.098   5.194   8.270
13187W        W20403   2.315   6.234   9.774
13188W        W20404   7.169   3.527   0.175
13189W        W20405   9.267   1.752   2.653
13190W        W20406  10.436   8.841   2.457
13191W        W20407  11.320   8.466   8.905
13192W        W20408  10.895   3.851   0.288
13193W        W20409  10.039   5.964   9.533
13194W        W20410   3.396  11.067  11.579
13195W        W20411   7.826  11.907   9.523
13196W        W20412   1.977   4.975   7.983
13197W        W20413   8.420  10.537   1.782
13198W        W20414   5.554  13.580   0.226
13199W        W20415   0.558  11.554   0.698
13200W        W20416   8.811   2.446   4.170
13201W        W20417   1.224   8.146   8.729
13202W        W20418  11.360   5.878   1.595
13203W        W20419   5.451  12.486   3.654
13204W        W20420   8.960   5.693   3.464
13205W        W20421   2.939   5.257   1.601
13206W        W20422  10.301  12.704  11.366
13207W        W20423   8.109  13.283   2.801
13208W        W20424   6.815   1.507   3.589
13209W        W20425  12.485   5.451  10.509
13210W        W20426   9.164  11.263   2.504
13211W        W20427  11.271  12.314  10.887
13212W        W20428   7.586   1.116  10.045
13213W        W20429   1.004   0.906   9.564
13214W        W20430   4.584   4.016  11.683
13215W        W20431   2.679   2.916   1.888
13216W        W20432   6.171   5.041   2.768
13217W        W20433   6.255   9.582   2.452
13218W        W20434   4.545   4.334  10.291
13219W        W20435   2.420   4.870   2.259
13220W        W20436   0.054   7.717   0.635
13221W        W20437   8.829  11.959   0.491
13222W        W20438   8.064   7.784   0.513
13223W        W20439  12.436   5.912   2.269
13224W        W20440   7.839   0.084  10.208
13225W        W20441  13.711   9.709  11.592
13226W        W20442  12.335   7.151  11.082
13227W        W20443  11.727  11.227   2.720
13228W        W20444   1.112   8.592   8.922
13229W        W20445   0.978   4.379   3.080
13230W        W20446   6.343   2.077   2.515
13231W        W20447   9.590   4.412   2.026
13232W        W20448   8.557  13.395  10.435
13233W        W20449   1.476   4.181   9.710
13234W        W20450   7.761   7.201   9.961
13235W        W20451  13.375   8.465   3.827
13236W        W20452   5.030  10.891   1.117
13237W        W20453   0.178  13.918   2.110
13238W        W20454  12.118   5.593   0.693
13239W        W20455   7.617  13.217   9.117
13240W        W20456  13.684   4.732  11.032
13241W        W20457   7.122   7.611  10.638
13242W        W20458   3.527  10.827  10.191
13243W        W20459   3.602   0.563   3.985
13244W        W20460   7.168   1.731  10.501
13245W        W20461   8.070  10.650   1.356
13246W        W20462   0.206   1.332  10.068
13247W        W20463   9.006   2.676   9.902
13248W        W20464   1.617  11.258   1.653
13249W        W20465   6.899   3.546   1.368
13250W        W20466   7.087   5.266   8.925
13251W        W20467   1.365   0.735   9.232
13252W        W20468   0.526  12.914  10.530
13253W        W20469   7.072  13.977   2.123
13254W        W20470   4.114   7.193   0.134
13255W        W20471   5.886  11.770   9.882
13256W        W20472   5.507   3.289   0.603
13257W        W20473   2.089   5.276  11.332
13258W        W20474   5.355  13.674  10.487
13259W        W20475   3.756   3.937  11.003
13260W        W20476   2.468  10.055   8.649
13261W        W20477  10.845   5.676  11.274
13262W        W20478   1.393   9.419   3.048
13263W        W20479  13.268   3.160   1.544
13264W        W20480   5.324  12.468   1.548
13265W        W20481  12.634   2.837   9.754
13266W        W20482   7.640   5.659  11.500
13267W        W20483   5.214   9.022   2.747
13268W        W20484   4.280   3.040   0.701
13269W        W20485   3.565   6.667   3.599
13270W        W20486   9.868   9.621   0.702
13271W        W20487   7.594   5.090   9.068
13272W        W20488  10.165   5.500   7.902
13273W        W20489   6.376   9.718  10.962
13274W        W20490  12.503   0.517   7.920
13275W        W20491   8.568   8.336   2.981
13276W        W20492   2.015  12.056   9.716
13277W        W20493   4.199   1.037   8.702
13278W        W20494   4.199   8.620   9.641
13279W        W20495  11.806   4.704   2.443
13280W        W20496   3.807  10.917   1.199
13281W        W20497  12.822   1.750  11.450
13282W        W20498   8.216   9.735   9.977
13283W        W20499  10.378   9.749  10.063
13284W        W20500   9.231   6.215   2.785
13285W        W20501   7.711   5.740   0.243
13286W        W20502   8.576   2.613   0.240
13287W        W20503   4.296  10.374   1.698
13288W        W20504   3.340   2.432  10.287
13289W        W20505   5.082   8.723   1.291
13290W        W20506   1.809   8.898  11.219
13291W        W20507   7.721   7.502   3.073
13292W        W20508  13.001  10.266   4.270
13293W        W20509   2.105   5.608   1.671
13294W        W20510  13.972   0.046   1.574
13295W        W20511   5.569   8.874  10.193
13296W        W20512   1.637   5.725   9.503
13297W        W20513   7.761  11.132   0.180
13298W        W20514  10.320   6.981  10.297
13299W        W20515  11.343  13.283   2.865
13300W        W20516   6.555   3.290  11.209
13301W        W20517   3.467   9.349  10.417
13302W        W20518   2.963   2.622   0.377
13303W        W20519  13.222   3.390  11.170
13304W        W20520  10.426   9.474   0.461
13305W        W20521   9.682   0.543   0.496
13306W        W20522   7.220  11.588   8.779
13307W        W20523   2.626   4.228   0.830
13308W        W20524   4.467   8.650   0.217
13309W        W20525  12.041  10.654   0.694
13310W        W20526   8.700  11.519   9.102
13311W        W20527   9.182   7.734   2.191
13312W        W20528   6.822   1.144   7.686
13313W        W20529  10.746   5.196   9.578
13314W        W20530  13.921  13.676  11.909
13315W        W20531   2.530   7.761   2.246
13316W        W20532  10.385  12.109   2.230
13317W        W20533   5.127   1.090   9.008
13318W        W20534   0.893   0.751   0.857
13319W        W20535   5.297   9.203   9.839
13320W        W20536  10.599   7.579  11.521
13321W        W20537  11.938   5.885   2.329
13322W        W20538   5.397  10.265  11.029
13323W        W20539  10.381  13.478   8.993
13324W        W20540  11.071   2.309   9.748
13325W        W20541   3.487   6.557   1.918
13326W        W20542   4.023   4.294   1.028
13327W        W20543   3.314   0.012   9.297
13328W        W20544  10.265  12.429   8.442
13329W        W20545   9.054   0.206   7.780
13330W        W20546   2.783   8.470  11.459
13331W        W20547   9.917  12.947   2.396
13332W        W20548   6.268   1.399  10.214
13333W        W20549   9.110   2.095  11.619
13334W        W20550   1.231   6.585   1.637
13335W        W20551   1.630   9.394  11.648
13336W        W20552   0.548   4.756  11.070
13337W        W20553   2.076   2.171   8.566
13338W        W20554   4.826   2.824   1.897
13339W        W20555  11.649   9.041  10.012
13340W        W20556   1.529   0.481   8.782
13341W        W20557   5.435   8.490   0.169
13342W        W20558   9.894  13.423   9.756
13343W        W20559   0.421   0.361   2.763
13344W        W20560  13.407   0.042  10.410
13345W        W20561   4.838  11.681   2.847
13346W        W20562  12.777   8.929   4.101
13347W        W20563  10.821   3.249   0.717
13348W        W20564   1.419   3.641   2.778
13349W        W20565  10.700   0.886   8.955
13350W        W20566  12.488   8.960  11.743
13351W        W20567   4.018   9.037   2.919
13352W        W20568   4.140   7.127   2.332
13353W        W20569   7.056  10.727   1.245
13354W        W20570   2.693   5.445   1.201
13355W        W20571  12.724   3.484  11.246
13356W        W20572   8.069   7.683   2.715
13357W        W20573  13.106   3.956   3.602
13358W        W20574   2.696   7.315   8.825
13359W        W20575   0.931  10.031   2.464
13360W        W20576   3.079   7.270  11.203
13361W        W20577  12.321   1.527   9.545
13362W        W20578   4.807   9.827   4.090
13363W        W20579   3.224   9.826   9.095
13364W        W20580  11.134   1.867  11.145
13365W        W20581   1.905  12.635   2.053
13366W        W20582   5.484   8.676   0.947
13367W        W20583   5.347   1.616  10.079
13368W        W20584   5.716   5.952   0.531
13369W        W20585   9.528   7.211   8.838
13370W        W20586   8.246   6.453   9.271
13371W        W20587   6.779   3.237   2.228
13372W        W20588   2.238  10.537   3.715
13373W        W20589   1.175  10.356  10.488
13374W        W20590   2.646   1.467   3.978
13375W        W20591  13.955   9.888   9.880
13376W        W20592   9.136   0.657   8.406
13377W        W20593  13.601  13.858  11.535
13378W        W20594   9.086  10.205   2.963
13379W        W20595  11.167   7.832   0.255
13380W        W20596   2.050   2.209   1.302
13381W        W20597  13.848   0.850   3.134
13382W        W20598   6.022   6.095   9.099
13383W        W20599   2.212  13.566  10.902
13384W        W20600  12.718  11.631  10.185
13385W        W20601  13.765   5.339   8.181
13386W        W20602   6.018   7.026   3.337
13387W        W20603   5.310   2.467   3.421
13388W        W20604   8.211   4.419  10.028
13389W        W20605   9.040  11.056  11.610
13390W        W20606   4.247  12.612   3.504
13391W        W20607   1.783   4.513  10.981
13392W        W20608   8.737  13.368   1.271
13393W        W20609  10.120   5.434   0.204
13394W        W20610   1.150   4.674   3.455
13395W        W20611   6.169  10.293   0.687
13396W        W20612   4.516   9.899   1.699
13397W        W20613   0.133   7.231   1.086
13398W        W20614  11.935   3.332   9.308
13399W        W20615   6.611   6.263   0.135
13400W        W20616   5.924   5.344   1.864
13401W        W20617   7.524   1.864   2.310
13402W        W20618   1.969   8.909   2.702
13403W        W20619  10.970   7.809   3.569
13404W        W20620  13.074   3.890   0.982
13405W        W20621  12.348   0.870  10.501
13406W        W20622   8.568  11.516   3.243
13407W        W20623   5.021   5.561   2.265
13408W        W20624   6.790   7.340   0.349
13409W        W20625   5.259   9.494   3.362
13410W        W20626   2.599   2.918   9.336
13411W        W20627   6.934  13.476   0.470
13412W        W20628   8.474   7.571   3.660
13413W        W20629   8.183   0.131  11.009
13414W        W20630   6.198   1.998   3.298
13415W        W20631  11.929   7.091   9.503
13416W        W20632   9.399   9.140   2.372
13417W        W20633  13.977  10.016  10.370
13418W        W20634   6.993  11.012  11.466
13419W        W20635  11.714   0.229   7.713
13420W        W20636   5.692  11.569   0.247
13421W        W20637  12.227   1.217   1.373
13422W        W20638   2.371   6.914   8.712
13423W        W20639   9.159  11.580   8.883
13424W        W20640   2.629   9.532  10.807
13425W        W20641   8.190  13.822   9.117
13426W        W20642  12.489   7.660   1.145
13427W        W20643  11.293   6.996   2.702
13428W        W20644   3.500   4.215   4.201
13429W        W20645  12.143   0.785   1.723
13430W        W20646   9.496  11.323   0.522
13431W        W20647   9.972   0.812   0.882
13432W        W20648   1.958   1.751   8.293
13433W        W20649  10.808   6.070   2.717
13434W        W20650   3.571   2.882   1.875
13435W        W20651   6.471   1.086   0.361
13436W        W20652   1.436   2.327  10.807
13437W        W20653   2.635  13.081   0.128
13438W        W20654  12.147   8.552  10.410
13439W        W20655   8.849   5.782   9.216
13440W        W20656   5.705   1.525   0.146
13441W        W20657  13.242   8.566   1.718
13442W        W20658   6.975   9.494   0.887
13443W        W20659   9.178   1.091   9.552
13444W        W20660   2.932  12.083  10.059
13445W        W20661   6.428   1.416   7.984
13446W        W20662   3.889   0.217   9.332
13447W        W20663   2.038  11.259   1.382
13448W        W20664  13.372   2.442   1.665
13449W        W20665  12.852   7.132   1.492
13450W        W20666   0.408   0.891  11.972
13451W        W20667   1.512   9.039  10.382
13452W        W20668   4.536   5.712   0.965
13453W        W20669   4.583   3.693   0.580
13454W        W20670   6.274  10.000  11.398
13455W        W20671  10.425   9.021  10.151
13456W        W20672   8.303   1.605   4.387
13457W        W20673  12.886   0.743   2.030
13458W        W20674   4.609   7.346   3.359
13459W        W20675   3.417   7.047   2.005
13460W        W20676   7.514   7.483   2.012
13461W        W20677   3.545   4.656   3.944
13462W        W20678   1.213   0.106   2.091
13463W        W20679   6.664   2.909  11.561
13464W        W20680   5.959   0.835   4.237
13465W        W20681  10.243   2.856   8.260
13466W        W20682   4.283   7.397  11.688
13467W        W20683   0.540   9.222  10.649
13468W        W20684   8.044   2.876   1.832
13469W        W20685   7.125   8.579   8.648
13470W        W20686   8.326   3.892  11.661
13471W        W20687   2.133   6.452   8.786
13472W        W20688  10.086  12.580   0.651
13473W        W20689   1.538   6.021   0.110
13474W        W20690   2.348   8.395   9.659
13475W        W20691   3.890  13.674   0.775
13476W        W20692   4.221  13.971   0.564
13477W        W20693   3.732  12.965  10.498
13478W        W20694   6.332   0.419   1.897
13479W        W20695  10.673  10.554   1.535
13480W        W20696  10.576   3.174  10.522
13481W        W20697   4.964   2.652  10.033
13482W        W20698   6.508   1.260  10.669
13483W        W20699  13.865  10.002   1.563
13484W        W20700   3.581   6.086   2.868
13485W        W20701  10.867   4.823   3.603
13486W        W20702   3.926   5.373   1.979
13487W        W20703   9.896   3.148   8.428
13488W        W20704   8.886   1.573   2.259
13489W        W20705   3.970   5.005   8.421
13490W        W20706   8.387   8.106  10.601
13491W        W20707  12.559   6.737   9.858
13492W        W20708   0.255   3.997   2.932
13493W        W20709   2.944   3.316   8.462
13494W        W20710  13.427  10.660   1.936
13495W        W20711   2.624   1.383   9.441
13496W        W20712   7.694   4.775   1.844
13497W        W20713  11.072   5.940  10.558
13498W        W20714   8.886   8.559   9.953
13499W        W20715   3.598  13.509   1.465
13500W        W20716   6.908   1.973   8.186
13501W        W20717  13.812   6.111   8.433
13502W        W20718   8.037   5.634  10.617
13503W        W20719   1.858   0.527  11.351
13504W        W20720   3.054   1.468  10.185
13505W        W20721   5.213  12.209   1.130
13506W        W20722  13.942   4.351   9.306
13507W        W20723   8.974   9.402   2.383
13508W        W20724   5.925   4.843  10.964
13509W        W20725  13.580  13.543   2.652
13510W        W20726  11.699   7.775   3.197
13511W        W20727   9.260   4.398  10.875
13512W        W20728   7.357   7.461  11.044
13513W        W20729   3.590   5.562   3.731
13514W        W20730   2.965   8.301   0.453
13515W        W20731   0.009  10.814   0.717
13516W        W20732   5.181   1.230   0.747
13517W        W20733   7.417   5.013   8.618
13518W        W20734   9.294   7.396   8.450
13519W        W20735   9.654   5.991   8.553
13520W        W20736   8.212  13.774   8.232
13521W        W20737   1.239   2.459   1.605
13522W        W20738   0.370   7.998   2.454
13523W        W20739  12.389  12.005  10.225
13524W        W20740   5.347   5.342  10.960
13525W        W20741   6.943   8.129   8.229
13526W        W20742   3.858  13.535  11.307
13527W        W20743   8.783  11.421  11.906
13528W        W20744   8.290   0.329   7.402
13529W        W20745   9.783   9.499  11.885
13530W        W20746   2.975  13.030   8.572
13531W        W20747   2.261   2.691   2.111
13532W        W20748   2.624   5.436   9.506
13533W        W20749  10.154   7.347  11.623
13534W        W20750   9.879   7.628  11.970
13535W        W20751   6.526   2.207   2.976
13536W        W20752   4.076   4.932   9.652
13537W        W20753   9.455  10.204   3.402
13538W        W20754   9.758   9.758  10.179
13539W        W20755   4.111   5.478   8.379
13540W        W20756   6.140   3.891   8.930
13541W        W20757   0.203   5.254   8.442
13542W        W20758  10.899   4.307   3.873
13543W        W20759  13.888   4.162   8.001
13544W        W20760   7.223  13.257   1.139
13545W        W20761  12.045   7.809   0.896
13546W        W20762  10.516   7.321   2.135
13547W        W20763   0.480   4.451   3.065
13548W        W20764   6.780  10.710   8.787
13549W        W20765  13.636   8.396   1.426
13550W        W20766   1.952   0.488   3.357
13551W        W20767   3.189  12.808   9.840
13552W        W20768  11.075  13.138  11.508
13553W        W20769  12.019   9.126  10.999
13554W        W20770   8.661  13.680   9.485
13555W        W20771   4.026   4.355   9.085
13556W        W20772   5.570   2.264   1.968
13557W        W20773   3.309   9.406   8.806
13558W        W20774   6.340  11.538  10.021
13559W        W20775   0.266   9.647   8.495
13560W        W20776   5.632   2.751  10.982
13561W        W20777   7.873   3.665   8.808
13562W        W20778   6.241   5.644   9.837
13563W        W20779   4.080   7.658   9.769
13564W        W20780   5.151   7.035   9.802
13565W        W20781   0.665   8.872  10.270
13566W        W20782   2.816   5.922  11.557
13567W        W20783   2.467   4.634   8.413
13568W        W20784  10.028  11.966   1.579
13569W        W20785   6.510   8.247   0.393
13570W        W20786  12.870   7.953   1.006
13571W        W20787   2.727   3.940   3.332
13572W        W20788  13.416   4.123   3.255
13573W        W20789   6.843   5.418   8.174
13574W        W20790  11.330   2.400   0.450
13575W        W20791  12.363   8.323  11.940
13576W        W20792   1.127   0.051  11.294
13577W        W20793  13.426   9.767  11.165
13578W        W20794  13.430   1.062   3.823
13579W        W20795   8.560  13.604   2.025
13580W        W20796   0.191   9.358   2.690
13581W        W20797   4.581  13.224   2.945
13582W        W20798   2.635   4.634   2.703
13583W        W20799   2.788   0.146   1.582
13584W        W20800   1.322   4.142   9.188
13585W        W20801   6.033   7.206  10.059
13586W        W20802  12.024   3.457  10.727
13587W        W20803   1.208  10.922   1.585
13588W        W20804  10.940   0.273   3.830
13589W        W20805  11.105   3.319   8.719
13590W        W20806   0.876   2.463   3.190
13591W        W20807   6.318   2.337   9.442
13592W        W20808  13.902   8.662   0.469
13593W        W20809   7.678  12.251  11.318
13594W        W20810   3.348   0.463   0.456
13595W        W20811   3.624  12.655  10.117
13596W        W20812  13.384   8.328   8.492
13597W        W20813   2.759   2.497   2.759
13598W        W20814   5.851   1.233   0.968
13599W        W20815   9.072  13.607   3.655
13600W        W20816  10.191   1.818   0.712
13601W        W20817   2.438   1.084  11.036
13602W        W20818   2.736  10.181  10.050
13603W        W20819  10.754   9.103   3.611
13604W        W20820   6.046   7.811   1.169
13605W        W20821   8.592  13.745   3.638
13606W        W20822   5.805   9.102   9.823
13607W        W20823   3.118   5.954   2.845
13608W        W20824   5.274   4.086   8.801
13609W        W20825  12.579   5.764   9.598
13610W        W20826   7.036   4.243   8.648
13611W        W20827   2.657  13.310   1.673
13612W        W20828   5.564   8.268  10.653
13613W        W20829  10.384   0.067   2.681
13614W        W20830   7.398   9.247   3.464
13615W        W20831   0.648  11.342   2.154
13616W        W20832   7.648   4.581   9.124
13617W        W20833   6.379  10.173   8.593
13618W        W20834  13.462  12.668   0.479
13619W        W20835  12.166   3.726   1.682
13620W        W20836  13.985   4.739   1.435
13621W        W20837   7.584  10.745   1.285
13622W        W20838  10.521  13.193   8.578
13623W        W20839   2.054   5.806   9.897
13624W        W20840   7.143   9.548   2.634
13625W        W20841   4.487   0.951   0.088
13626W        W20842   6.159   5.954   2.905
13627W        W20843   1.533   6.124   8.175
13628W        W20844   5.095   0.576   0.877
13629W        W20845  10.876  13.091   2.709
13630W        W20846   6.614   3.892   1.570
13631W        W20847   9.988   2.460   8.991
13632W        W20848   7.811   8.066  11.068
13633W        W20849  11.362   5.462   0.509
13634W        W20850  11.207   7.257   9.868
13635W        W20851   6.946   7.592  10.183
13636W        W20852   6.047   0.053   3.086
13637W        W20853   6.045  10.908  11.309
13638W        W20854   1.230  12.315   8.261
13639W        W20855   6.580   1.561   0.582
13640W        W20856   0.717   7.660  10.062
13641W        W20857  11.834   2.396  11.646
13642W        W20858   6.049   0.250   9.965
13643W        W20859   3.227   3.842   3.436
13644W        W20860   7.202   1.862  11.836
13645W        W20861  10.905  11.505   9.543
13646W        W20862  10.616   5.734   3.077
13647W        W20863   2.431   9.121   0.472
13648W        W20864  10.918   2.002   8.759
13649W        W20865   6.519  13.602   1.444
13650W        W20866   8.475   0.844   9.490
13651W        W20867   2.631  13.267   2.988
13652W        W20868   2.510   7.917  10.819
13653W        W20869   5.981   7.587  11.327
13654W        W20870  12.453  10.676  11.705
13655W        W20871   4.817   4.670   2.092
13656W        W20872  10.069   2.058  11.710
13657W        W20873  12.086   5.340  11.558
13658W        W20874   5.389   0.062   1.365
13659W        W20875   8.992   9.230  11.544
13660W        W20876   0.246   6.337  10.665
13661W        W20877   2.675   0.493   9.106
13662W        W20878   1.914   7.102   9.431
13663W        W20879   5.393   4.520  11.237
13664W        W20880   1.810   6.474   1.700
13665W        W20881  12.762   6.373   1.486
13666W        W20882   2.501  13.671  11.318
13667W        W20883   7.142   9.345   9.455
13668W        W20884  11.123   8.320  11.575
13669W        W20885  12.834  10.940   2.115
13670W        W20886  10.237   5.199   9.431
13671W        W20887   4.800   4.246   3.497
13672W        W20888   5.932   6.927  10.895
13673W        W20889  10.574   3.677   0.616
13674W        W20890   1.583  10.614  11.222
13675W        W20891   0.833   2.938   2.447
13676W        W20892   6.018   4.036   2.842
13677W        W20893   2.917   1.599   3.197
13678W        W20894  12.490   6.784   1.546
13679W        W20895   7.918   5.059  10.749
13680W        W20896   8.237   8.635  11.741
13681W        W20897  11.816  13.984   8.468
13682W        W20898   3.772   9.954   9.688
13683W        W20899  13.542  10.792   0.988
13684W        W20900   2.896   8.662   2.236
13685W        W20901   9.692   1.900   0.811
13686W        W20902   8.953   1.486   8.992
13687W        W20903   8.436  10.228   0.385
13688W        W20904   1.305   9.932  10.733
13689W        W20905   1.185   6.779   0.292
13690W        W20906   0.061   3.445   0.853
13691W        W20907   8.899   2.618  10.949
13692W        W20908   1.039   3.688  11.417
13693W        W20909  11.196   2.540   1.222
13694W        W20910   2.211   8.173   3.102
13695W        W20911  12.191  12.851   9.775
13696W        W20912  13.457   1.102   9.964
13697W        W20913   6.738  13.261   9.201
13698W        W20914   9.235   2.017   0.976
13699W        W20915  13.653  13.389   9.245
13700W        W20916   9.441  13.719   0.656
13701W        W20917  10.121   4.199   1.849
13702W        W20918  11.261   8.426   2.487
13703W        W20919  12.546   5.243   2.522
13704W        W20920  10.935   0.161   9.417
13705W        W20921   9.947   7.711  11.353
13706W        W20922   7.368   8.140   8.537
13707W        W20923   2.950  13.455  11.415
13708W        W20924   0.583   4.400  10.595
13709W        W20925  11.954   9.348   8.278
13710W        W20926   8.348   6.845   3.741
13711W        W20927  13.222   4.956   1.757
13712W        W20928   3.319   2.979   9.164
13713W        W20929   2.935   7.821   2.567
13714W        W20930  12.398   7.080  11.710
13715W        W20931   9.356   7.060  11.302
13716W        W20932   2.734   6.735   1.690
13717W        W20933   6.836  10.047   9.351
13718W        W20934   4.208  10.270  11.434
13719W        W20935   9.483   1.259   3.499
13720W        W20936  12.577   1.034   1.722
13721W        W20937   5.259   6.201  10.394
13722W        W20938   7.303   5.625   2.843
13723W        W20939   6.926  10.722  10.384
13724W        W20940   4.216  11.544  11.757
13725W        W20941   2.531   0.128   2.920
13726W        W20942  12.497   5.479   1.577
13727W        W20943   3.071   1.013  11.080
13728W        W20944   3.678   1.530   1.980
13729W        W20945   1.461  10.126  11.248
13730W        W20946   2.749  12.339   1.518
13731W        W20947  13.657   5.256  11.979
13732W        W20948   4.204   3.497   3.315
13733W        W20949   2.291   3.828   0.955
13734W        W20950   3.346   1.832   8.866
13735W        W20951   6.536   0.940   1.693
13736W        W20952   4.089   0.384   1.348
13737W        W20953   6.600   8.542   8.643
13738W        W20954  10.552  11.620   2.256
13739W        W20955   1.622  13.989   3.426
13740W        W20956   7.465   1.747   9.522
13741W        W20957   7.579   0.828   3.024
13742W        W20958   6.687   5.060   1.405
13743W        W20959   7.179  10.323   2.586
13744W        W20960   4.800  12.344   0.753
13745W        W20961   7.031  11.190   0.332
13746W        W20962   6.034   2.194   1.781
13747W        W20963   3.641   3.069   3.514
13748W        W20964   3.317  10.476   0.729
13749W        W20965   7.439   0.906  11.684
13750W        W20966   5.804   0.425   1.417
13751W        W20967  10.107  10.272   0.200
13752W        W20968   0.123   7.607  11.275
13753W        W20969   1.877  12.099  11.003
13754W        W20970   4.817  12.076   3.149
13755W        W20971   6.323  10.496  11.365
13756W        W20972   3.529   3.517  11.618
13757W        W20973  12.318   1.774   7.779
13758W        W20974   6.728   6.709   3.038
13759W        W20975  12.407   7.360   1.590
13760W        W20976   6.775   0.660   2.057
13761W        W20977   0.285  12.812   9.263
13762W        W20978   9.033   2.409   9.122
13763W        W20979   4.826  11.078   9.384
13764W        W20980   0.613  12.013   2.408
13765W        W20981   3.749   6.732   0.803
13766W        W20982   8.592   6.595   2.292
13767W        W20983   1.517  11.031   3.401
13768W        W20984   2.785   9.645   2.156
13769W        W20985   7.532  12.656   1.821
13770W        W20986   3.003   3.815   8.514
13771W        W20987  13.815  12.671  10.019
13772W        W20988   5.996   4.559   3.336
13773W        W20989   6.573   4.057   8.700
13774W        W20990   1.459   9.332   1.509
13775W        W20991  11.133   8.161   9.887
13776W        W20992  10.808   9.162   2.618
13777W        W20993   3.984  12.975  11.783
13778W        W20994   1.028  11.914  11.096
13779W        W20995  12.412  11.245   9.088
13780W        W20996   1.849  11.904   0.608
13781W        W20997   9.664   6.608   9.620
13782W        W20998  12.984   3.267  11.641
13783W        W20999   0.788   2.463   8.134
13784W        W21000   2.474   1.914   8.418
13785W        W21001  12.074   4.558   1.016
13786W        W21002   3.225   6.214  11.084
13787W        W21003   3.487   6.651  10.149
13788W        W21004  10.794  13.321  10.519
13789W        W21005  13.495   4.575   3.059
13790W        W21006   8.232   8.371   9.441
13791W        W21007   4.012   0.657   7.729
13792W        W21008   7.786   9.125   8.404
13793W        W21009   4.689  10.329   9.492
13794W        W21010   2.850   4.454   3.259
13795W        W21011   8.704  12.814   8.322
13796W        W21012   0.686   4.499   3.537
13797W        W21013  12.061  13.636   8.816
13798W        W21014  13.672  11.413  11.072
13799W        W21015  13.661  12.829  11.516
13800W        W21016  10.700   1.873   4.169
13801W        W21017   0.803  12.803   1.791
13802W        W21018   1.406   6.539  10.085
13803W        W21019  11.626   6.224   3.089
13804W        W21020   0.935  13.947   9.024
13805W        W21021   4.463   2.811   3.905
13806W        W21022  11.363   8.310   0.362
13807W        W21023   1.347   3.680   8.904
13808W        W21024   0.716   0.927   0.412
13809W        W21025   4.193   8.804  11.511
13810W        W21026   0.028  11.487  11.580
13811W        W21027   5.032  12.827   3.694
13812W        W21028   1.906   8.575   3.083
13813W        W21029   6.279   9.548   1.509
13814W        W21030   3.036   1.832  11.572
13815W        W21031   3.661   8.742  11.451
13816W        W21032   3.159  13.785   2.275
13817W        W21033  11.599   9.013  11.758
13818W        W21034   2.800  12.592   8.742
13819W        W21035   2.364   0.116   2.008
13820W        W21036   3.427  10.025  11.828
13821W        W21037  12.383   6.505   8.925
13822W        W21038   4.804   6.020   3.453
13823W        W21039   8.729   0.356   1.988
13824W        W21040   7.120   4.286  11.768
13825W        W21041   1.652   1.279   9.542
13826W        W21042   6.327  11.869   8.691
13827W        W21043   6.712  11.780   0.011
13828W        W21044   5.134   9.223  11.369
13829W        W21045   6.406   1.190   3.595
13830W        W21046   2.255   1.763   1.414
13831W        W21047   6.629   0.856   1.183
13832W        W21048  13.089   0.902  11.852
13833W        W21049   2.770   2.609   1.400
13834W        W21050   1.010   0.497   2.406
13835W        W21051   8.276   6.410  10.161
13836W        W21052   8.834  10.583   8.954
13837W        W21053  11.361   1.051  10.782
13838W        W21054   8.201  13.066   9.595
13839W        W21055  11.059  13.617   0.672
13840W        W21056   5.507   7.114   3.386
13841W        W21057   7.225   0.091   2.821
13842W        W21058   1.260   3.186   0.432
13843W        W21059  11.467   4.891   2.093
13844W        W21060   1.147  13.008   3.104
13845W        W21061   0.755  11.542   2.621
13846W        W21062   4.745   1.932   9.484
13847W        W21063   6.682   0.232  11.293
13848W        W21064   1.056   3.137   1.148
13849W        W21065   0.742   4.893   3.222
13850W        W21066   6.836   1.387   2.749
13851W        W21067   0.843   5.566   0.018
13852W        W21068   1.970   6.068   1.428
13853W        W21069  13.381   6.096   0.941
13854W        W21070   1.320   7.213   1.639
13855W        W21071   7.831   9.765   0.726
13856W        W21072  12.150  12.583   9.345
13857W        W21073  13.486   9.870   9.724
13858W        W21074   0.472   0.390   3.736
13859W        W21075   9.879  11.304   2.116
13860W        W21076   3.185   8.732  11.248
13861W        W21077   0.621   5.274   2.332
13862W        W21078   9.375   9.977   1.485
13863W        W21079   7.479  11.314   2.306
13864W        W21080  12.999  12.494   8.118
13865W        W21081   3.623   9.972   3.677
13866W        W21082   9.389  12.843   4.058
13867W        W21083   0.176   0.057   0.138
13868W        W21084   1.548  12.609   8.812
13869W        W21085   4.261   3.963  11.170
13870W        W21086   3.266   5.892   9.191
13871W        W21087   6.086  13.355   0.924
13872W        W21088   4.625   9.757   0.893
13873W        W21089   4.725   0.244   8.959
13874W        W21090   4.730   5.004   1.722
13875W        W21091   5.613   1.170   2.558
13876W        W21092   6.189  13.313   2.188
13877W        W21093   4.939   3.984   7.542
13878W        W21094   2.571   3.232  11.252
13879W        W21095   5.048   9.666   2.522
13880W        W21096   6.562   8.089   9.557
13881W        W21097  13.430  11.174  10.178
13882W        W21098   3.484   3.928   1.814
13883W        W21099   7.374  12.704   0.517
13884W        W21100  13.380   7.254   9.794
13885W        W21101  12.681  13.595  11.872
13886W        W21102  10.824   3.986   3.512
13887W        W21103  13.606  12.627   3.642
13888W        W21104  12.535   1.061   7.873
13889W        W21105  10.930  12.013  10.699
13890W        W21106   6.309   6.500   1.032
13891W        W21107   0.940   2.542  10.509
13892W        W21108   4.659   3.918   9.940
13893W        W21109  11.314   5.475  11.238
13894W        W21110   0.774   2.074   9.771
13895W        W21111  13.245   6.467  10.564
13896W        W21112  12.892  10.451  10.720
13897W        W21113   8.766  11.152   9.694
13898W        W21114   0.631   4.357  11.737
13899W        W21115   6.739  11.125   1.232
13900W        W21116  11.310   7.194   9.378
13901W        W21117   3.932  13.217   4.155
13902W        W21118   8.594  11.909   0.014
13903W        W21119   8.763  12.773   0.132
13904W        W21120   0.862  10.003  10.317
13905W        W21121   7.083   2.481  10.961
13906W        W21122  12.377  13.782  11.526
13907W        W21123  12.223   5.712   0.226
13908W        W21124  13.090  13.546   2.719
13909W        W21125   2.908  11.090   0.971
13910W        W21126   0.988   4.531   1.976
13911W        W21127   8.744   1.755   0.172
13912W        W21128   1.298   0.440   0.752
13913W        W21129  12.618   9.403   8.927
13914W        W21130   5.824   1.163  10.093
13915W        W21131   3.517  11.003   2.198
13916W        W21132   1.138  12.596   0.164
13917W        W21133   2.327   6.438   1.592
13918W        W21134  10.310  10.645  10.891
13919W        W21135   6.201   6.745   9.985
13920W        W21136  11.210   1.284   2.515
13921W        W21137   3.245   8.074  10.164
13922W        W21138   2.647   3.095   1.406
13923W        W21139   5.373   6.639  10.590
13924W        W21140  11.854  12.250  11.305
13925W        W21141   7.002   9.776   1.347
13926W        W21142   2.681   8.813   2.681
13927W        W21143  11.836   7.027  11.026
13928W        W21144   8.968  10.962  11.115
13929W        W21145   5.252  11.212  11.255
13930W        W21146  10.919   1.992   1.587
13931W        W21147   9.556  13.928   8.984
13932W        W21148   1.154   8.889   9.686
13933W        W21149   0.020   1.927   3.874
13934W        W21150   9.433   3.968  10.550
13935W        W21151   6.786   5.677   8.608
13936W        W21152   6.613   5.006  11.672
13937W        W21153   0.943  10.936   2.051
13938W        W21154   7.960  11.458   9.700
13939W        W21155   1.384  13.425   9.778
13940W        W21156   5.071   2.328   2.594
13941W        W21157   2.156  12.537   8.140
13942W        W21158   1.682   2.489   8.689
13943W        W21159   1.122   0.915  11.026
13944W        W21160  10.837   7.143   9.193
13945W        W21161   5.829   6.501   9.760
13946W        W21162   3.252   6.332   1.502
13947W        W21163  13.331   3.216  10.333
13948W        W21164   7.560   0.246   8.535
13949W        W21165   8.649   1.534   9.950
13950W        W21166  12.501  12.020   9.728
13951W        W21167   1.761   1.257   3.128
13952W        W21168  13.154   5.363   2.484
13953W        W21169   1.019   8.153   0.416
13954W        W21170  11.604  11.677  10.153
13955W        W21171   7.876   4.993   7.821
13956W        W21172   5.698   0.348  10.991
13957W        W21173   0.868   4.832  10.669
13958W        W21174   5.268   6.476   2.165
13959W        W21175   5.479  10.875  10.280
13960W        W21176   5.464  12.844  11.877
13961W        W21177  13.239   0.099   9.054
13962W        W21178   3.882  12.354  11.786
13963W        W21179  10.291   8.849   0.570
13964W        W21180   5.058   3.631  10.046
13965W        W21181  10.947   7.558   1.014
13966W        W21182   0.155   3.006   3.354
13967W        W21183   3.976   9.379  10.338
13968W        W21184   8.647  11.361  10.932
13969W        W21185   1.118   6.466   8.489
13970W        W21186   5.777   8.723   0.448
13971W        W21187  12.123   9.653   4.155
13972W        W21188  13.858   6.275  11.464
13973W        W21189   9.514   4.736   0.332
13974W        W21190   5.378   9.443  11.733
13975W        W21191   8.181  13.538  10.114
13976W        W21192   8.691   0.070  10.824
13977W        W21193  10.451  13.781   0.259
13978W        W21194   7.947   6.618  11.341
13979W        W21195   1.398  10.445  11.655
13980W        W21196   6.477  12.063   1.285
13981W        W21197   9.509  10.424  10.582
13982W        W21198   4.897   5.059  10.758
13983W        W21199   6.453   3.091   9.674
13984W        W21200   0.142   0.530   3.375
13985W        W21201  10.621  10.947   3.110
13986W        W21202   0.000   2.859   0.026
13987W        W21203   8.427   8.113   2.545
13988W        W21204   6.554  12.646  11.179
13989W        W21205   2.365   2.888  11.601
13990W        W21206  13.644   2.258   0.847
13991W        W21207   0.350  10.356   0.662
13992W        W21208   5.119   4.480   7.556
13993W        W21209   8.473   1.806   0.595
13994W        W21210   5.078   2.025  11.121
13995W        W21211   5.587   6.289   8.879
13996W        W21212   0.946  13.907   1.418
13997W        W21213   2.123  10.161  10.744
13998W        W21214   3.979   1.743  11.224
13999W        W21215   3.468  10.583  11.422
14000W        W21216   2.184   7.249   1.080
14001W        W21217   5.608   6.205   9.400
14002W        W21218  10.238   7.628   0.409
14003W        W21219   7.145   4.794  11.136
14004W        W21220   6.359   1.714   3.679
14005W        W21221   6.886   9.505   0.373
14006W        W21222   8.673  12.753  10.723
14007W        W21223   5.110   5.721   2.736
14008W        W21224   0.390  13.108   1.635
14009W        W21225  12.176   9.346   1.449
14010W        W21226   9.761   5.811   3.304
14011W        W21227  11.947   8.818   1.407
14012W        W21228   4.129  12.175   1.396
14013W        W21229   5.502   2.815   2.076
14014W        W21230   6.665   0.067   1.281
14015W        W21231   5.630   0.524  10.090
14016W        W21232  12.597   0.733  10.994
14017W        W21233   0.199   1.351   0.055
14018W        W21234  11.932   4.677   1.946
14019W        W21235   7.498   7.346   1.529
14020W        W21236   5.348   5.386   2.994
14021W        W21237   4.598   3.425  10.175
14022W        W21238  11.453   3.246   8.280
14023W        W21239   7.887  13.902   1.487
14024W        W21240   0.620   7.356   9.654
14025W        W21241  10.501   0.224   9.725
14026W        W21242   6.256   2.418   0.572
14027W        W21243   0.819   4.490   0.930
14028W        W21244  12.193   0.013   2.908
14029W        W21245   4.971   9.721  11.934
14030W        W21246   8.429  13.020   0.975
14031W        W21247  12.904   0.207   3.460
14032W        W21248   3.001   1.359   2.422
14033W        W21249   0.599   0.679   2.001
14034W        W21250  13.917   8.307   1.868
14035W        W21251  13.555   8.170   9.565
14036W        W21252   1.800  11.361   3.166
14037W        W21253   9.664  11.080   1.271
14038W        W21254  11.796   3.730   0.363
14039W        W21255   8.112   7.793   8.566
14040W        W21256   9.476  12.315  10.921
14041W        W21257   4.288  11.747   3.763
14042W        W21258   6.249   7.765  10.911
14043W        W21259  11.169   7.408   2.350
14044W        W21260  10.095   1.363   3.622
14045W        W21261   0.395   4.800   2.446
14046W        W21262   6.482   0.456   4.320
14047W        W21263   8.729  12.281   8.380
14048W        W21264  13.112  12.709   3.637
14049W        W21265  13.080  13.107   3.315
14050W        W21266   6.614   1.692   3.142
14051W        W21267  13.650   7.007   0.289
14052W        W21268   9.769   8.657   8.476
14053W        W21269   4.878   3.159   2.271
14054W        W21270  10.665   3.565   1.103
14055W        W21271   8.664  13.668   4.159
14056W        W21272   3.456  13.054  11.799
14057W        W21273   7.405  13.744  10.867
14058W        W21274  11.947   5.453   3.118
14059W        W21275  12.990   4.166   2.948
14060W        W21276   8.083   1.262  11.909
14061W        W21277  11.447   0.879   9.429
14062W        W21278   4.873  13.018   2.037
14063W        W21279  13.912   1.099   0.812
14064W        W21280   5.066   2.254   1.076
14065W        W21281   2.240   9.768  11.051
14066W        W21282   8.010   2.916  11.561
14067W        W21283   3.710   8.051  10.010
14068W        W21284   1.970   0.653   7.991
14069W        W21285   4.485   1.706   2.881
14070W        W21286   2.667   7.361   9.362
14071W        W21287   0.641   6.289   1.644
14072W        W21288   2.092   4.074   2.772
14073W        W21289   4.610  11.391   8.290
14074W        W21290   9.974   4.773  11.463
14075W        W21291   3.224   8.623   2.638
14076W        W21292  13.910   1.659  10.336
14077W        W21293  11.618  11.424   0.877
14078W        W21294   5.959   5.897   8.428
14079W        W21295   5.114  13.297  10.192
14080W        W21296   4.578   1.582   2.062
14081W        W21297  10.435   2.200   1.758
14082W        W21298   6.296   1.541   1.032
14083W        W21299   5.982   3.365   1.478
14084W        W21300   2.056  10.488   0.908
14085W        W21301  13.246   5.266   8.561
14086W        W21302  12.451   4.173   2.798
14087W        W21303   3.180  13.469   8.380
14088W        W21304  12.885  13.772  10.360
14089W        W21305   2.011   6.082   8.432
14090W        W21306   2.045  12.687   8.653
14091W        W21307   3.507   5.389   2.261
14092W        W21308   0.408   0.518   0.352
14093W        W21309   3.319  13.327   2.458
14094W        W21310   9.143   2.726   3.379
14095W        W21311  12.927   4.913   2.483
14096W        W21312   8.423   2.145   0.228
14097W        W21313   0.736  10.413   3.206
14098W        W21314   3.350   6.441  10.598
14099W        W21315   6.723   7.353   4.272
14100W        W21316  11.626   5.725  10.900
14101W        W21317   3.734  11.848   0.303
14102W        W21318   0.693  10.227   8.298
14103W        W21319   8.239   8.689   1.145
14104W        W21320   8.983   0.183   8.304
14105W        W21321   4.417   6.456  11.020
14106W        W21322  12.157   4.290  11.727
14107W        W21323   6.039  13.799   9.540
14108W        W21324  13.423   4.096   1.358
14109W        W21325  11.378  12.815   8.595
14110W        W21326   2.356  10.310   9.754
14111W        W21327  12.251   1.701   1.481
14112W        W21328   2.288   7.381   8.564
14113W        W21329   7.949   3.239  11.939
14114W        W21330   6.527   8.780  11.237
14115W        W21331   8.351  10.872   9.739
14116W        W21332   7.548   1.894   0.654
14117W        W21333   5.605   7.978   1.431
14118W        W21334  10.086   1.461  10.919
14119W        W21335   2.236   3.313  10.038
14120W        W21336   7.020  12.840   3.493
14121W        W21337  10.674  10.549  10.542
14122W        W21338   4.575   2.185   1.074
14123W        W21339   1.478   0.827  10.294
14124W        W21340   8.628   8.686   9.552
14125W        W21341   7.200  11.892  11.924
14126W        W21342   3.706  11.441   2.027
14127W        W21343   5.507   6.020   2.125
14128W        W21344   3.402   8.686   3.401
14129W        W21345  10.294   6.250  11.059
14130W        W21346   9.485   6.084   2.354
14131W        W21347  13.407   0.206   7.945
14132W        W21348  11.087   9.165   9.342
14133W        W21349   1.513   1.550   0.145
14134W        W21350  12.566  13.918   3.253
14135W        W21351  10.677   7.890   3.137
14136W        W21352   1.310   9.248   7.738
14137W        W21353   8.565  13.821   8.609
14138W        W21354   4.660   5.222   4.495
14139W        W21355   8.922   4.642  11.871
14140W        W21356  11.039   6.947   8.408
14141W        W21357  11.290   4.477  11.100
14142W        W21358   6.016   7.688   8.791
14143W        W21359   0.327   8.013   1.475
14144W        W21360   7.059   2.205   1.589
14145W        W21361   2.855   8.619   9.502
14146W        W21362   0.076  12.357   1.637
14147W        W21363   5.462  11.496   3.162
14148W        W21364   9.432   9.844   0.002
14149W        W21365  11.531   9.281  10.876
14150W        W21366   0.231   7.533   9.331
14151W        W21367   5.786  10.834   2.386
14152W        W21368   5.276   4.453   9.593
14153W        W21369  10.349   9.426  10.460
14154W        W21370  13.673   7.504   2.426
14155W        W21371   5.624  13.553   8.457
14156W        W21372   9.911  10.155   1.312
14157W        W21373   0.774   6.648   0.954
14158W        W21374  13.093   0.436   2.994
14159W        W21375  13.377   1.027  11.444
14160W        W21376   0.864   4.009   8.163
14161W        W21377   2.201   4.817   2.876
14162W        W21378   4.330   4.717   9.267
14163W        W21379   2.969  11.700   0.531
14164W        W21380   6.364   1.663   8.881
14165W        W21381   5.621   4.452   2.567
14166W        W21382   9.333  12.589   2.151
14167W        W21383  11.802   1.749  11.115
14168W        W21384   7.090   1.537   3.171
14169W        W21385  11.799   4.950   8.894
14170W        W21386   1.225   5.596   3.309
14171W        W21387   2.116  13.382   9.752
14172W        W21388   9.670   8.808   9.413
14173W        W21389   5.564  12.342  10.994
14174W        W21390  12.640  12.348   1.586
14175W        W21391   4.235   8.172   8.464
14176W        W21392   8.185  11.152  11.115
14177W        W21393  11.638   4.505   3.416
14178W        W21394   0.554   2.209  11.832
14179W        W21395   4.224   8.151   2.139
14180W        W21396   1.519   8.436   9.201
14181W        W21397   9.521   4.495   9.913
14182W        W21398   3.785   1.930   0.215
14183W        W21399   0.980   5.619  10.241
14184W        W21400   1.188   6.407  10.590
14185W        W21401   4.926   0.530  10.686
14186W        W21402   7.288   0.453  11.796
14187W        W21403   6.008   1.887   0.312
14188W        W21404  11.463   6.633   2.387
14189W        W21405   9.769   0.159   9.395
14190W        W21406  12.463   8.971  11.250
14191W        W21407  13.665   7.488   1.349
14192W        W21408   4.176   6.630   2.924
14193W        W21409   1.653   0.345  10.495
14194W        W21410   2.503  11.066  11.216
14195W        W21411  10.649  11.091   9.356
14196W        W21412   6.150   7.447  10.467
14197W        W21413   9.066   4.900  10.929
14198W        W21414   1.692  11.583  10.915
14199W        W21415  12.636  13.063   1.947
14200W        W21416  10.453   4.839  11.240
14201W        W21417   9.273   5.786   8.901
14202W        W21418   6.741   9.944  11.603
14203W        W21419   6.845  11.254  11.033
14204W        W21420   0.188   2.138   8.956
14205W        W21421   3.479   1.495   3.373
14206W        W21422  10.449  10.153   8.646
14207W        W21423   0.560   0.370   0.852
14208W        W21424   1.522   8.865   8.009
14209W        W21425   5.236  11.181  11.776
14210W        W21426   8.830   8.914   0.089
14211W        W21427   9.802   0.069   8.475
14212W        W21428  13.118   1.401   0.825
14213W        W21429  12.355   7.406   0.724
14214W        W21430   3.215   5.720  11.294
14215W        W21431   1.306  13.995   9.827
14216W        W21432   2.769   6.461   1.274
14217W        W21433   0.491   7.845   9.624
14218W        W21434  11.934  11.708   8.309
14219W        W21435   6.523  12.102   0.388
14220W        W21436   7.055   8.048   1.499
14221W        W21437   5.370  10.097   1.247
14222W        W21438  12.890  13.314   9.420
14223W        W21439   9.168   7.978   1.437
14224W        W21440   5.543   9.327   8.676
14225W        W21441  10.400  11.549   9.554
14226W        W21442   3.628   0.862   8.017
14227W        W21443  12.738   5.165   0.837
14228W        W21444   0.455   1.681   3.095
14229W        W21445   7.569  12.265   8.919
14230W        W21446   0.302   2.656  11.684
14231W        W21447  13.979   7.934   0.164
14232W        W21448   4.772  13.837  11.019
14233W        W21449   7.668   4.939  11.218
14234W        W21450   4.430   4.110   8.645
14235W        W21451   7.680  12.049  11.882
14236W        W21452   8.135   8.207   1.242
14237W        W21453  10.776   6.811  10.544
14238W        W21454   7.148   0.568   2.925
14239W        W21455  10.887  12.268   1.598
14240W        W21456   3.844   0.307  10.023
14241W        W21457   1.814   0.843   9.004
14242W        W21458   4.751  12.090  10.466
14243W        W21459   6.357   2.469  11.687
14244W        W21460  10.517   7.442  10.123
14245W        W21461   4.909  12.622   8.635
14246W        W21462   9.751   1.514  10.482
14247W        W21463   2.954  10.884   9.587
14248W        W21464   8.406   1.447   2.268
14249W        W21465   1.425  11.764   8.950
14250W        W21466   3.932   3.761   2.988
14251W        W21467   1.780   2.724  10.896
14252W        W21468   0.933   4.442  10.975
14253W        W21469  11.075   1.406  10.038
14254W        W21470   8.100  10.201  10.781
14255W        W21471   6.778   6.227   1.177
14256W        W21472   7.597  13.566   3.613
14257W        W21473   9.400   9.683   2.434
14258W        W21474   7.164   5.522   1.547
14259W        W21475   6.245   3.788   0.294
14260W        W21476   2.282  12.185   1.393
14261W        W21477   5.349   7.527   8.955
14262W        W21478  11.182   4.300   9.842
14263W        W21479   5.969  13.273   1.513
14264W        W21480   9.962   7.952   9.671
14265W        W21481  10.433  10.422   0.541
14266W        W21482  13.798   7.251  10.753
14267W        W21483   2.816  13.497   3.586
14268W        W21484   3.537   2.446   1.619
14269W        W21485  13.449  13.001   1.420
14270W        W21486   9.462   5.895   1.863
14271W        W21487   5.247  10.838   8.424
14272W        W21488   8.960   1.556   8.494
14273W        W21489   3.869   8.624   3.203
14274W        W21490  11.543   3.521  10.883
14275W        W21491  11.058   1.460  10.603
14276W        W21492   2.378   9.547  10.244
14277W        W21493   4.394   0.627  10.602
14278W        W21494  13.100   6.432   9.393
14279W        W21495   2.465   5.993   1.341
14280W        W21496  11.570   2.831   2.987
14281W        W21497   5.435   0.437  10.575
14282W        W21498   5.756   7.672   9.215
14283W        W21499   2.489   1.701   2.325
14284W        W21500   1.017   8.686   2.013
14285W        W21501   2.514   3.475   8.676
14286W        W21502  11.995  11.892  11.637
14287W        W21503   0.975   6.024   0.226
14288W        W21504  12.279  10.594   4.349
14289W        W21505  13.718   4.925   1.848
14290W        W21506  11.656   8.705   3.257
14291W        W21507   9.908   8.881   8.936
14292W        W21508   2.569   2.614  10.638
14293W        W21509  12.630   3.790  10.024
14294W        W21510   1.753   8.897   1.503
14295W        W21511   2.430   2.230   2.265
14296W        W21512   5.850   0.221   1.874
14297W        W21513   1.022   9.105  10.544
14298W        W21514   6.089   2.342   0.096
14299W        W21515   0.693   0.172  11.516
14300W        W21516  11.672   3.334   1.081
14301W        W21517  10.045  11.418   3.416
14302W        W21518   5.318  12.370  11.952
14303W        W21519   8.811  11.458   2.211
14304W        W21520   9.429   7.822  10.799
14305W        W21521  11.831   4.990   9.700
14306W        W21522   4.114   5.860   1.824
14307W        W21523  12.537   3.497  10.754
14308W        W21524   1.013   4.162   0.005
14309W        W21525   1.229   3.888  10.188
14310W        W21526   1.154  10.930   0.880
14311W        W21527   2.455   6.081  11.856
14312W        W21528  12.488  10.192  11.898
14313W        W21529   4.457  13.061   8.477
14314W        W21530   7.341   8.796  10.797
14315W        W21531   3.326   6.976  10.871
14316W        W21532   1.093   3.274  10.605
14317W        W21533   0.449   0.776   1.235
14318W        W21534   6.878   2.717   0.965
14319W        W21535   8.005   6.188   0.307
14320W        W21536   6.639   5.629   2.221
14321W        W21537   0.156   9.870   2.803
14322W        W21538   9.460   3.129   9.120
14323W        W21539   0.622   2.098   2.857
14324W        W21540   3.385   6.721   8.660
14325W        W21541   5.702   4.426   0.687
14326W        W21542   1.553   3.446   8.503
14327W        W21543  11.069   4.611   0.907
14328W        W21544  12.639   0.281   8.337
14329W        W21545   8.172  10.965  11.593
14330W        W21546   9.118  13.367   8.840
14331W        W21547   5.302   5.575   1.355
14332W        W21548   9.661   6.674  11.309
14333W        W21549   6.647   7.244   8.394
14334W        W21550   5.081  11.904   2.473
14335W        W21551  11.851   8.804   0.922
14336W        W21552   8.519   0.154  11.528
14337W        W21553   0.865   6.892   2.425
14338W        W21554   4.496  11.852   0.732
14339W        W21555   3.568   4.439   1.763
14340W        W21556  12.596   3.542   0.255
14341W        W21557   4.540  10.581   8.661
14342W        W21558   7.331   8.703   2.576
14343W        W21559   2.656   1.511   2.773
14344W        W21560   9.830   1.997  10.399
14345W        W21561   8.405   6.016   0.505
14346W        W21562  11.673  11.216   1.652
14347W        W21563   9.592   7.543   9.616
14348W        W21564  11.358   5.376   0.018
14349W        W21565  13.095   4.705  11.452
14350W        W21566   9.463   0.312  10.957
14351W        W21567   1.598  12.589   1.646
14352W        W21568  12.580   8.307   9.036
14353W        W21569   7.387   2.247   9.414
14354W        W21570  10.927  11.869   8.792
14355W        W21571   8.660   1.886   8.737
14356W        W21572   8.436  12.271   0.345
14357W        W21573  12.679   1.180  10.743
14358W        W21574   3.068   7.328  10.322
14359W        W21575  10.829   6.467   3.031
14360W        W21576   0.261  12.343  11.996
14361W        W21577   3.426  12.930   8.403
14362W        W21578   4.394   5.410   7.935
14363W        W21579   2.402   7.963   1.073
14364W        W21580   9.913   7.324   1.280
14365W        W21581  10.603   7.103   3.494
14366W        W21582   9.741   1.193   2.112
14367W        W21583   4.246  12.066   8.690
14368W        W21584   0.304   5.999   9.683
14369W        W21585   0.040   4.212   8.837
14370W        W21586  13.545   3.405   0.339
14371W        W21587   6.712   9.993  10.677
14372W        W21588   5.866   2.532   0.877
14373W        W21589   6.010  12.506   9.381
14374W        W21590  11.940   2.053  10.728
14375W        W21591   1.122  13.650   2.557
14376W        W21592   2.860   3.722   3.789
14377W        W21593   8.542   2.930   1.863
14378W        W21594   5.038   5.667   0.925
14379W        W21595   5.127   7.495   8.472
14380W        W21596   2.971   7.184   1.833
14381W        W21597   3.686   9.645   9.213
14382W        W21598   7.512   6.408   8.597
14383W        W21599   5.889   5.106   0.120
14384W        W21600  11.309  13.288  10.625
14385W        W21601  10.275   8.408  11.366
14386W        W21602  13.890   0.087  10.593
14387W        W21603   9.821   2.761   0.681
14388W        W21604  13.244   6.405   8.453
14389W        W21605   6.673   8.530   0.782
14390W        W21606   1.479   1.777  11.697
14391W        W21607   6.238  11.284  10.491
14392W        W21608   7.138   5.044   1.664
14393W        W21609  12.643   4.247   2.130
14394W        W21610   9.497   7.800  11.628
14395W        W21611  10.019   6.352  11.475
14396W        W21612   9.322  10.005   0.460
14397W        W21613   0.572   7.970   3.424
14398W        W21614   9.435   3.675   2.388
14399W        W21615   9.163  10.568   3.634
14400W        W21616  11.010  12.533   8.795
14401W        W21617   1.156   4.441   2.525
14402W        W21618  12.584   3.966   1.735
14403W        W21619   4.841   3.717   2.226
14404W        W21620   3.198  10.155  11.381
14405W        W21621  10.978   0.533  11.104
14406W        W21622   9.833   3.450   2.144
14407W        W21623   0.515   2.187  10.535
14408W        W21624  12.895  13.994   9.541
14409W        W21625   1.458   3.606  11.140
14410W        W21626   9.700   2.754   1.894
14411W        W21627   9.785   2.891  11.890
14412W        W21628  13.099  12.500   1.203
14413W        W21629   8.132   1.984   8.911
14414W        W21630   3.858   7.500   1.253
14415W        W21631   1.064   4.005   2.753
14416W        W21632   6.546   6.270   2.852
14417W        W21633   7.947   6.255   2.623
14418W        W21634   4.096  11.716   2.249
14419W        W21635   7.459   6.395  10.396
14420W        W21636   1.554   5.794   1.600
14421W        W21637   6.089  13.393   8.581
14422W        W21638   5.581  13.661   9.399
14423W        W21639  13.275   3.911   2.620
14424W        W21640   8.747   9.658   9.096
14425W        W21641   6.317   7.918  10.391
14426W        W21642   7.185   4.294   3.360
14427W        W21643  10.513   3.007   2.185
14428W        W21644  13.388   4.079   8.065
14429W        W21645  12.636   3.450   2.405
14430W        W21646   2.526   7.678   1.485
14431W        W21647   8.000   1.848   0.400
14432W        W21648   2.626   1.354   9.944
14433W        W21649   4.218   5.080   4.212
14434W        W21650  13.200   3.095   0.554
14435W        W21651  11.051  13.020   9.660
14436W        W21652   4.105  10.000   1.407
14437W        W21653  11.740  12.780   2.227
14438W        W21654  10.811   0.971   4.043
14439W        W21655  12.664   1.435   0.613
14440W        W21656  10.290   7.773  10.770
14441W        W21657   2.656   5.460   8.609
14442W        W21658   7.461   5.790   1.859
14443W        W21659  10.266  11.516   0.501
14444W        W21660  12.083   9.943   2.561
14445W        W21661   2.666   9.741   1.072
14446W        W21662   6.746   0.473   1.569
14447W        W21663  11.052   1.981   0.585
14448W        W21664   7.651   5.320   9.780
14449W        W21665  12.581  12.356   2.431
14450W        W21666   7.495   4.126   2.491
14451W        W21667   5.160  11.372   0.811
14452W        W21668   1.471  13.820   8.253
14453W        W21669  11.731   3.568  11.352
14454W        W21670  11.327  12.346   3.054
14455W        W21671   9.762   6.750   9.129
14456W        W21672   1.531  12.238   9.651
14457W        W21673   7.998   8.810  11.328
14458W        W21674  11.374  11.395   9.730
14459W        W21675   7.337   8.663   0.319
14460W        W21676   5.386   2.407  11.234
14461W        W21677  13.641   1.559   9.859
14462W        W21678  12.120   3.338   2.170
14463W        W21679  12.607  13.332   0.458
14464W        W21680   0.648   8.809   0.828
14465W        W21681   9.882  12.991   0.887
14466W        W21682   4.418   4.885   8.174
14467W        W21683  13.329  12.263   2.920
14468W        W21684  11.641   6.900   9.138
14469W        W21685   3.410   1.101  10.132
14470W        W21686  13.014   3.434   1.192
14471W        W21687   8.297   2.146   1.196
14472W        W21688  13.877   7.504   3.455
14473W        W21689  10.998   9.026  10.286
14474W        W21690   6.113   3.364   3.403
14475W        W21691   5.737   2.297   0.447
14476W        W21692   5.751  12.135  10.184
14477W        W21693   9.633  11.792  11.897
14478W        W21694   4.398   5.861   3.169
14479W        W21695  10.464   0.781   0.866
14480W        W21696   5.048   3.330   3.349
14481W        W21697   3.988   9.608   2.649
14482W        W21698  13.910  12.027   0.599
14483W        W21699   7.850  12.469   2.582
14484W        W21700   3.407  11.284   8.833
14485W        W21701   7.733   6.243   3.499
14486W        W21702  13.572  12.230   3.354
14487W        W21703   4.227   3.213   8.474
14488W        W21704   3.363   0.686   8.438
14489W        W21705   7.683  12.538   1.350
14490W        W21706   3.397   1.631   9.607
14491W        W21707   4.155   9.966   0.197
14492W        W21708   2.139  10.716   9.971
14493W        W21709  11.554  10.628   8.315
14494W        W21710   3.673   2.748   3.146
14495W        W21711  12.063   2.757   2.881
14496W        W21712   0.004   6.478   9.850
14497W        W21713   2.613   3.685   8.216
14498W        W21714  11.988   0.507   8.823
14499W        W21715   6.437   0.831   3.963
14500W        W21716   4.096  13.252   0.921
14501W        W21717  12.440   1.523  11.688
14502W        W21718   1.050   4.197  11.494
14503W        W21719   1.338   6.222   9.706
14504W        W21720  11.663   4.951   7.698
14505W        W21721  13.920   6.731   9.385
14506W        W21722   1.599   4.128   0.711
14507W        W21723   6.268   6.929   9.101
14508W        W21724   2.941   4.676  10.330
14509W        W21725   6.862   9.742  11.137
14510W        W21726   6.794  12.842  10.331
14511W        W21727   4.290  13.261   9.239
14512W        W21728   9.988   1.986   9.115
14513W        W21729  12.667  13.706   9.891
14514W        W21730   9.917  12.867  11.100
14515W        W21731   0.625   2.368   8.780
14516W        W21732   6.602   5.505   4.059
14517W        W21733   9.453   6.884   8.473
14518W        W21734   1.157   8.317   9.946
14519W        W21735   6.406   6.448   9.066
14520W        W21736   4.296   2.966  11.255
14521W        W21737  12.910   2.734   0.964
14522W        W21738   6.983  11.382  11.833
14523W        W21739   4.841   6.079   2.938
14524W        W21740   3.332   4.546   8.550
14525W        W21741   9.045   8.495   2.693
14526W        W21742  10.717  13.443  11.888
14527W        W21743   0.106   1.834   8.531
14528W        W21744   9.167  11.766   2.440
14529W        W21745  10.798  10.753   0.591
14530W        W21746  11.580  10.923  11.349
14531W        W21747   0.946   2.630   3.673
14532W        W21748   8.756   3.923   9.808
14533W        W21749  13.751   6.043   9.844
14534W        W21750  13.474   8.397  11.054
14535W        W21751   3.967   5.467  10.782
14536W        W21752   4.960  13.855   1.547
14537W        W21753   9.775   3.952   2.129
14538W        W21754   9.408   9.049  10.477
14539W        W21755   8.280  12.646   3.356
14540W        W21756  12.125   3.439   3.536
14541W        W21757   3.785   5.483   0.532
14542W        W21758   8.125   8.918   0.701
14543W        W21759   4.804   3.081   9.336
14544W        W21760  11.010   4.609   0.403
14545W        W21761   3.399  10.438  10.465
14546W        W21762   3.456   8.160   0.531
14547W        W21763   8.627   3.911   2.994
14548W        W21764   0.914   9.660   1.723
14549W        W21765   2.377   1.014  10.204
14550W        W21766   1.517   7.452   9.039
14551W        W21767  10.552   9.257   8.510
14552W        W21768   2.752   4.571  11.687
14553W        W21769   8.360   4.248   1.403
14554W        W21770   0.466   3.543   8.793
14555W        W21771   1.935  11.748   1.986
14556W        W21772   1.528   2.678   9.898
14557W        W21773   3.529   7.495  11.494
14558W        W21774  10.986  12.169  10.098
14559W        W21775   3.820   1.301  11.405
14560W        W21776   3.900   4.083   3.441
14561W        W21777   7.660   0.535   3.781
14562W        W21778   5.427   7.061  10.849
14563W        W21779   5.819   7.534   4.054
14564W        W21780   9.326  10.917   3.294
14565W        W21781   2.132   8.117   1.457
14566W        W21782   5.355   0.101  11.794
14567W        W21783  11.932  10.176  10.584
14568W        W21784   9.260   1.439  10.486
14569W        W21785  12.059  13.294   9.545
14570W        W21786  10.959   0.913   3.451
14571W        W21787   1.778   7.993   0.027
14572W        W21788   5.911  12.628  11.220
14573W        W21789  13.618  12.321   2.510
14574W        W21790   2.777   1.365  11.300
14575W        W21791   0.219   8.273   9.774
14576W        W21792  11.726   4.539  11.745
14577W        W21793   3.686  12.013   2.172
14578W        W21794   7.362   3.059   0.208
14579W        W21795   1.481  10.972   8.522
14580W        W21796   6.261  12.602  11.594
14581W        W21797   2.524  10.712   3.335
14582W        W21798   7.948   1.928  10.322
14583W        W21799   9.621  11.587   8.661
14584W        W21800  13.515  13.923   8.402
14585W        W21801  13.204   3.877  10.400
14586W        W21802   5.763  10.705   9.245
14587W        W21803  10.258  11.211   1.150
14588W        W21804   2.608  13.112  11.561
14589W        W21805  11.731   9.531  11.838
14590W        W21806   2.389   1.637   7.995
14591W        W21807   3.029  12.060  10.546
14592W        W21808   1.351   2.095  11.322
14593W        W21809   3.372   3.025  11.555
14594W        W21810   2.887   7.739  10.096
14595W        W21811   8.382   7.006   0.364
14596W        W21812   7.171  12.390   7.683
14597W        W21813  11.136   5.323   9.871
14598W        W21814  12.529   4.571  11.525
14599W        W21815  11.910   6.634   9.749
14600W        W21816   5.039   7.457   0.312
14601W        W21817  13.604   1.974  10.637
14602W        W21818   6.338   2.737   0.993
14603W        W21819  11.585   0.469   9.153
14604W        W21820  12.658  10.878   3.581
14605W        W21821   5.940  13.520  10.541
14606W        W21822   7.412  11.260   8.464
14607W        W21823   9.162  11.313  10.789
14608W        W21824  13.497  10.123   1.229
14609W        W21825   1.672  11.435   2.670
14610W        W21826   3.887   7.858   8.625
14611W        W21827   1.044  12.376  10.808
14612W        W21828  13.314  13.556   3.202
14613W        W21829   4.585   2.215   2.716
14614W        W21830   8.937  12.913   2.165
14615W        W21831  10.028  11.431  10.373
14616W        W21832  11.595   4.347   2.705
14617W        W21833   7.183   3.807   1.037
14618W        W21834   0.920   1.859   1.871
14619W        W21835   1.511   7.675   3.349
14620W        W21836   1.512   8.891   0.646
14621W        W21837   9.532   4.224   8.816
14622W        W21838   3.587   1.855   2.705
14623W        W21839   8.715  12.880  11.265
14624W        W21840   8.482   8.569   8.726
14625W        W21841   3.974   0.206  10.797
14626W        W21842   3.606   5.611  10.469
14627W        W21843  13.529   1.501   0.527
14628W        W21844  13.284   0.678   9.317
14629W        W21845   2.384   1.390   8.426
14630W        W21846   3.847   8.986   9.588
14631W        W21847   0.811   5.967   9.796
14632W        W21848   6.148   7.104  11.339
14633W        W21849   9.867   7.511  10.862
14634W        W21850  13.346   4.522  11.843
14635W        W21851   2.133   8.373   1.871
14636W        W21852   9.367   6.933   2.925
14637W        W21853   2.262   5.651   2.201
14638W        W21854  12.609   6.558   9.373
14639W        W21855   0.295   9.544  10.947
14640W        W21856   5.555   9.610   0.463
14641W        W21857   3.473   2.773   0.366
14642W        W21858   1.245  13.549   8.933
14643W        W21859   3.828   1.073   2.657
14644W        W21860  13.796   3.257  10.534
14645W        W21861   8.254   4.246   8.661
14646W        W21862   8.196   7.689   3.235
14647W        W21863   6.940   6.828   8.380
14648W        W21864  12.394  13.267  11.564
14649W        W21865   7.369  13.882  10.138
14650W        W21866   2.312  13.996   1.484
14651W        W21867   3.350  12.501  11.755
14652W        W21868   8.332  10.690   0.147
14653W        W21869   0.183  10.204   0.137
14654W        W21870  13.064   8.225  11.297
14655W        W21871   0.672   9.134   9.823
14656W        W21872   8.832   5.879   2.776
14657W        W21873   7.991  11.477  10.753
14658W        W21874   8.909   6.616   0.297
14659W        W21875   7.850   5.642   8.435
14660W        W21876   1.108   4.032   0.610
14661W        W21877   7.503   8.614   9.006
14662W        W21878   1.762   9.596   2.770
14663W        W21879   0.383   8.970   1.241
14664W        W21880   6.593   4.697   1.743
14665W        W21881  13.753   0.224  11.916
14666W        W21882   5.704  11.046  11.640
14667W        W21883   3.834   4.007  11.519
14668W        W21884   7.799   1.516   9.804
14669W        W21885   6.418   3.536   1.286
14670W        W21886   5.194   0.340   4.040
14671W        W21887   8.433   9.911  11.944
14672W        W21888   3.645   4.777   2.867
14673W        W21889   2.072   9.278   8.519
14674W        W21890   0.619   6.869   9.793
14675W        W21891   6.570   1.843   1.329
14676W        W21892   1.624   6.006  10.074
14677W        W21893  11.758   5.890   1.871
14678W        W21894   2.157   9.905   1.038
14679W        W21895  13.266   8.860   4.141
14680W        W21896  12.205   0.257  11.596
14681W        W21897   9.586   6.447   3.037
14682W        W21898   3.703   6.819  10.578
14683W        W21899  11.240   7.139   8.881
14684W        W21900   9.084  11.020   2.004
14685W        W21901   2.423   0.836   0.170
14686W        W21902  12.257   4.284  11.220
14687W        W21903   4.677   4.857  10.324
14688W        W21904   5.881  10.194   3.456
14689W        W21905  12.979   4.675   2.962
14690W        W21906   5.244   2.715   8.471
14691W        W21907   1.091   5.318  10.643
14692W        W21908   6.312   7.625   2.884
14693W        W21909  12.553  11.507   0.534
14694W        W21910   5.902   7.578   1.611
14695W        W21911   7.278   9.129  11.166
14696W        W21912   1.132   8.471   1.145
14697W        W21913  10.509   7.599   3.504
14698W        W21914  13.145   1.558   2.205
14699W        W21915  10.209  12.809   1.670
14700W        W21916   6.409   4.894   0.788
14701W        W21917   6.397   3.654   0.803
14702W        W21918  12.758   1.912  10.080
14703W        W21919  10.157   3.949   1.323
14704W        W21920   3.845   0.797   1.513
14705W        W21921   5.665   6.248   0.041
14706W        W21922   5.012   7.405   9.488
14707W        W21923   9.599   0.581   9.698
14708W        W21924   1.745  10.567   2.177
14709W        W21925  10.832   2.758  10.394
14710W        W21926   3.582   1.414  11.828
14711W        W21927   1.570   2.558   2.023
14712W        W21928   9.466   4.933   1.951
14713W        W21929   6.360   2.853   2.130
14714W        W21930   3.640   6.944   0.348
14715W        W21931  10.151  11.509   2.535
14716W        W21932   1.486   9.371   0.522
14717W        W21933  13.396   9.005   9.655
14718W        W21934   9.486   2.431   0.844
14719W        W21935  11.835   5.020   3.384
14720W        W21936   1.698   5.979   0.601
14721W        W21937   5.813  13.957   2.646
14722W        W21938  10.105   9.048   9.374
14723W        W21939   2.148  11.287  11.565
14724W        W21940  11.158   8.082  10.925
14725W        W21941  11.259  13.777   2.797
14726W        W21942  11.314   1.743   9.668
14727W        W21943   4.383   1.821   9.831
14728W        W21944   3.183   8.455   9.830
14729W        W21945   5.666   9.654  10.756
14730W        W21946   5.908  12.253   3.619
14731W        W21947   7.317   8.207   3.407
14732W        W21948   7.346  13.659   3.099
14733W        W21949   5.651   2.737   8.746
14734W        W21950   9.932   9.048  10.370
14735W        W21951   9.906   3.237   2.981
14736W        W21952  13.089   4.311   7.724
14737W        W21953   9.239   9.766   3.183
14738W        W21954  13.257   2.076   2.609
14739W        W21955   6.652   9.043   4.040
14740W        W21956   7.951  10.240   0.563
14741W        W21957   3.300   9.170   3.387
14742W        W21958   7.822  12.398   0.235
14743W        W21959   3.466  12.470   9.155
14744W        W21960   2.626   1.757   3.568
14745W        W21961   7.989   2.170  11.994
14746W        W21962  12.324   3.307   3.084
14747W        W21963   0.274   6.474  11.967
14748W        W21964   9.734  12.203  11.645
14749W        W21965   0.898  13.278   1.752
14750W        W21966   5.927   4.135  10.206
14751W        W21967  12.376   9.227   4.095
14752W        W21968  13.048   4.379   1.126
14753W        W21969   8.553  12.599   8.782
14754W        W21970   0.376  12.174  10.462
14755W        W21971  13.583   7.502   8.857
14756W        W21972  13.373   6.527   3.689
14757W        W21973   0.512   5.931  11.883
14758W        W21974   8.979  10.584   2.205
14759W        W21975   9.838   8.244   3.500
14760W        W21976  11.383   3.349   3.019
14761W        W21977   5.720  10.085   0.869
14762W        W21978  12.093  11.591   0.314
14763W        W21979   2.256   4.394  11.672
14764W        W21980   3.121  10.474  11.773
14765W        W21981   1.778   1.786   2.478
14766W        W21982   2.887   4.449   1.201
14767W        W21983  12.051   1.239   0.563
14768W        W21984  13.349   9.254   2.911
14769W        W21985   5.380  12.812  10.827
14770W        W21986  11.833   5.564  11.932
14771W        W21987  12.542  13.217   9.818
14772W        W21988  10.996  10.047   9.411
14773W        W21989   3.823   1.806   3.152
14774W        W21990   8.354  12.055  10.256
14775W        W21991   8.865   2.251  10.563
14776W        W21992   0.792   8.028   1.280
14777W        W21993   0.299   5.968   0.758
14778W        W21994  13.619  12.415   9.060
14779W        W21995   8.548   2.967  10.937
14780W        W21996   5.307   0.558   1.359
14781W        W21997  12.441   7.961   2.762
14782W        W21998   9.550  11.369   9.676
14783W        W21999   7.278   3.906   2.099
14784W        W22000  12.168   7.100   0.317
14785W        W22001  13.032  10.969   3.096
14786W        W22002   9.739  10.195   1.776
14787W        W22003  13.975   4.415   3.132
14788W        W22004  12.995   5.212  11.547
14789W        W22005   2.283   9.515   1.332
14790W        W22006  10.869   2.824  11.361
14791W        W22007   4.325   7.080  11.318
14792W        W22008   3.798   8.257   2.386
14793W        W22009  12.225   5.073   1.749
14794W        W22010  12.829   9.955   3.045
14795W        W22011   5.841   2.915   3.591
14796W        W22012   2.890   2.510   2.234
14797W        W22013   7.619   3.008   9.882
14798W        W22014   8.143  10.018  11.546
14799W        W22015  13.484   0.643   9.781
14800W        W22016   3.668  13.827   2.293
14801W        W22017  12.086   5.815   9.496
14802W        W22018   3.067   7.638   8.780
14803W        W22019   9.662  13.217  11.335
14804W        W22020   0.884  13.759   3.035
14805W        W22021   8.736   6.043  11.470
14806W        W22022  12.740  13.858  11.160
14807W        W22023   3.719   0.618   3.323
14808W        W22024   1.580   6.499  11.606
14809W        W22025  12.035   9.397  10.183
14810W        W22026   7.749   9.280   0.760
14811W        W22027   5.759  12.885   3.644
14812W        W22028   3.980   0.535  11.256
14813W        W22029   2.681  13.273   8.261
14814W        W22030   1.221   7.468   0.533
14815W        W22031   4.407   7.842   0.743
14816W        W22032  13.492   5.867   1.360
14817W        W22033   7.296  11.003  11.040
14818W        W22034   5.802   8.327   3.193
14819W        W22035   1.070  12.388   9.533
14820W        W22036   1.165  13.508  10.694
14821W        W22037   6.145  12.763   1.500
14822W        W22038   4.262   9.262   0.911
14823W        W22039   5.902  11.917  11.909
14824W        W22040  11.665   4.788   2.956
14825W        W22041   3.936  13.219   0.244
14826W        W22042  12.384   6.193   0.201
14827W        W22043   9.792   5.783   8.975
14828W        W22044  12.039   9.142   0.032
14829W        W22045  12.786  13.037  11.020
14830W        W22046   7.454   4.504   8.643
14831W        W22047   9.528   6.561   2.554
14832W        W22048   3.869   7.593  10.246
14833W        W22049   4.670  12.181   8.292
14834W        W22050   8.297   3.080   2.669
14835W        W22051   6.624   3.569   8.541
14836W        W22052   5.193  11.392   9.250
14837W        W22053   4.744   9.325   3.409
14838W        W22054  13.785   8.571   2.627
14839W        W22055   9.562   0.267   7.713
14840W        W22056  12.429   7.039   9.437
14841W        W22057   1.595  11.782   0.168
14842W        W22058   1.270   2.835   3.332
14843W        W22059   0.298  12.783   0.281
14844W        W22060   3.558   3.136   0.007
14845W        W22061   4.692  13.418   9.518
14846W        W22062   6.566  12.997   9.890
14847W        W22063  11.152   6.448  10.599
14848W        W22064   2.653  12.403   7.998
14849W        W22065   8.258   6.432  10.991
14850W        W22066  12.404   1.408   8.712
14851W        W22067   1.886   2.951   1.894
14852W        W22068   3.869   6.894   9.370
14853W        W22069   7.301   5.987   4.186
14854W        W22070   5.398   7.659  11.978
14855W        W22071  10.892  12.648   0.477
14856W        W22072  13.202   0.262  10.013
14857W        W22073   1.896   9.038  10.736
14858W        W22074   4.784   0.175   1.884
14859W        W22075  13.647   9.452   2.553
14860W        W22076   3.374  12.907   3.458
14861W        W22077  12.891   9.423   8.371
14862W        W22078   1.761   9.857  10.923
14863W        W22079   1.095  12.204   2.318
14864W        W22080  13.885   8.477  11.426
14865W        W22081  11.677   8.586   2.730
14866W        W22082   3.047  12.999   1.743
14867W        W22083   7.155   6.674   8.819
14868W        W22084  13.918   6.548   3.105
14869W        W22085  10.000   1.820  11.286
14870W        W22086   5.764   3.682   7.848
14871W        W22087   9.843   0.356   8.907
14872W        W22088   7.995  11.475   0.458
14873W        W22089  13.868   2.812  10.278
14874W        W22090   0.575   0.023   0.484
14875W        W22091   1.347   9.498   0.064
14876W        W22092  12.113   0.586   2.213
14877W        W22093   4.795   5.385   1.341
14878W        W22094   1.543   9.985   8.375
14879W        W22095   5.274  12.585   9.893
14880W        W22096   2.414  11.855   8.649
14881W        W22097   2.118   4.249   3.986
14882W        W22098   7.743   9.468   0.277
14883W        W22099   4.597   4.698   0.757
14884W        W22100   8.571  13.333   9.834
14885W        W22101  11.385  10.996   0.115
14886W        W22102   2.887   0.189   2.105
14887W        W22103   4.985   1.412   1.504
14888W        W22104   8.197  12.645   1.230
14889W        W22105   8.470  12.024  11.468
14890W        W22106   8.418   9.872   1.837
14891W        W22107  11.541   5.581   2.231
14892W        W22108   9.745   5.712   1.089
14893W        W22109   2.854   7.541   3.237
14894W        W22110   1.428   7.105   8.704
14895W        W22111  12.466  11.881   0.185
14896W        W22112  10.304  10.748   1.820
14897W        W22113   8.292   4.954  10.141
14898W        W22114   7.643  10.872   3.036
14899W        W22115   7.538   5.603  10.189
14900W        W22116   0.083   9.124   3.789
14901W        W22117   7.081   6.666  10.537
14902W        W22118   9.467   4.617  11.707
14903W        W22119   3.294  11.896   2.783
14904W        W22120   5.184  13.334   9.670
14905W        W22121   5.434   9.001   9.366
14906W        W22122   0.327   5.575   1.312
14907W        W22123  12.404   6.309   1.824
14908W        W22124  13.206   8.809   3.128
14909W        W22125  11.668   7.944   0.486
14910W        W22126   9.183   8.998   1.537
14911W        W22127   7.875  12.978   4.357
14912W        W22128   3.505  12.087   3.242
14913W        W22129   8.148  12.372   1.663
14914W        W22130   0.316   4.326  11.315
14915W        W22131   3.223   9.642  11.487
14916W        W22132   2.918   4.037   0.429
14917W        W22133   9.689  11.261  11.998
14918W        W22134  11.993   9.195   4.434
14919W        W22135   5.595   4.339   0.208
14920W        W22136   6.226   7.874   2.449
14921W        W22137   1.589   9.787   1.737
14922W        W22138  10.573   4.431   3.498
14923W        W22139  11.629   2.594   3.439
14924W        W22140   9.415   2.366   2.126
14925W        W22141   5.088  10.371  11.414
14926W        W22142   6.279   8.682   0.489
14927W        W22143   4.854   2.806   0.181
14928W        W22144   9.213   0.380  11.832
14929W        W22145  12.816   4.499  10.421
14930W        W22146   3.566  10.694  11.908
14931W        W22147   1.363   3.345  11.565
14932W        W22148  13.903  12.911   0.548
14933W        W22149   2.899  10.842   1.406
14934W        W22150  13.913   4.647   0.445
14935W        W22151   3.255   4.815   1.586
14936W        W22152   6.878  11.422   2.850
14937W        W22153   5.402  10.326   1.702
14938W        W22154  13.576  13.726  10.772
14939W        W22155   6.690   1.038   9.061
14940W        W22156   7.833   0.263  11.810
14941W        W22157   1.825  10.213   1.832
14942W        W22158  13.552   8.132  10.621
14943W        W22159   5.064   6.943   0.419
14944W        W22160   3.512   5.163   4.059
14945W        W22161   4.746   0.943   2.751
14946W        W22162   6.864  11.556   9.810
14947W        W22163   1.307   7.828   0.150
14948W        W22164   1.675   1.678   9.851
14949W        W22165  12.128  11.716   1.658
14950W        W22166   9.525   0.884   2.892
14951W        W22167  13.815  12.475   2.981
14952W        W22168   7.385   8.289  11.649
14953W        W22169   7.968   0.806   0.989
14954W        W22170   8.281   4.678   9.579
14955W        W22171   1.134   4.835   0.379
14956W        W22172   3.682  11.578   9.103
14957W        W22173   3.143   5.531   3.988
14958W        W22174  11.582  13.523   2.484
14959W        W22175  10.734   3.777  11.438
14960W        W22176  12.520   8.290  10.645
14961W        W22177   8.890   9.874   0.686
14962W        W22178   1.827   6.802  11.280
14963W        W22179  12.754   8.655   0.053
14964W        W22180   6.095   5.715   3.338
14965W        W22181   4.732  13.150   0.402
14966W        W22182  11.475   8.106  10.247
14967W        W22183   1.763   6.982   1.768
14968W        W22184   4.324   5.263   9.380
14969W        W22185   5.279  11.493   2.646
14970W        W22186   9.113   3.758   3.092
14971W        W22187  10.237   0.259  10.833
14972W        W22188   9.442   1.570   1.164
14973W        W22189   2.286   4.663   0.917
14974W        W22190  11.896   9.025  10.487
14975W        W22191   9.908   0.985   0.426
14976W        W22192   4.099   5.173   0.210
14977W        W22193   1.865   7.017   8.923
14978W        W22194   3.702  10.128  11.423
14979W        W22195   1.157   2.789   0.750
14980W        W22196   4.890   9.900   1.299
14981W        W22197   6.392  10.198   3.424
14982W        W22198   1.220   0.488   9.997
14983W        W22199  12.483  11.174   1.835
14984W        W22200  13.485   0.688   8.827
14985W        W22201   9.348   4.697   3.429
14986W        W22202  12.236   0.692  11.340
14987W        W22203  10.912   0.079   1.937
14988W        W22204   3.872  11.216   2.990
14989W        W22205   8.255   2.110   1.706
14990W        W22206   0.718   4.126   1.266
14991W        W22207   9.924   8.611   1.825
14992W        W22208  12.553   3.567  11.731
14993W        W22209   6.756   2.579   1.453
14994W        W22210  13.261   7.318  11.529
14995W        W22211   7.964   5.453   4.371
14996W        W22212   0.923   2.102   3.570
14997W        W22213   6.702   5.071   9.822
14998W        W22214   7.926  11.386  11.488
14999W        W22215   2.627  12.057  11.484
15000W        W22216   9.364   0.497   3.690
15001W        W22217   7.881   8.626   1.560
15002W        W22218  12.380   1.892  10.470
15003W        W22219  13.947  12.223   4.195
15004W        W22220   9.701   3.443   0.995
15005W        W22221  12.881  12.058  11.928
15006W        W22222   4.852  11.469   2.118
15007W        W22223   0.848  13.321  10.323
15008W        W22224   4.791   7.106   1.628
15009W        W22225   1.435  10.586   8.903
15010W        W22226   4.578   3.751   3.505
15011W        W22227   5.068   8.774  10.072
15012W        W22228  12.454   8.164   8.552
15013W        W22229   0.790   8.285   0.836
15014W        W22230   8.568  13.493   9.007
15015W        W22231   7.955   6.758   0.226
15016W        W22232   7.377  11.149   1.496
15017W        W22233   4.034  10.414   9.525
15018W        W22234   6.212   1.171   9.763
15019W        W22235   7.016   3.775  11.771
15020W        W22236   7.173   5.195   0.510
15021W        W22237  11.628   3.100   9.889
15022W        W22238   0.144   8.179   8.017
15023W        W22239   6.224   4.321   9.844
15024W        W22240   4.857  13.107   9.166
15025W        W22241   6.083   8.230  10.755
15026W        W22242   4.963   0.117   1.106
15027W        W22243  12.460   5.962   3.091
15028W        W22244  10.207  10.431   9.024
15029W        W22245  11.106  12.206   9.159
15030W        W22246  11.735   0.427   0.458
15031W        W22247  11.297   8.516  11.134
15032W        W22248   6.691   3.282  10.458
15033W        W22249   6.441   0.145   3.401
15034W        W22250  11.054   8.027   9.081
15035W        W22251   8.779   6.427  11.797
15036W        W22252   2.540   1.575  10.917
15037W        W22253  13.953  11.465   9.817
15038W        W22254   3.321   1.144   8.717
15039W        W22255   8.257   8.873  10.917
15040W        W22256  12.038   3.826   8.503
15041W        W22257   9.939   8.934   9.852
15042W        W22258  12.339   0.727  11.854
15043W        W22259   7.835   9.346   2.866
15044W        W22260   1.030   6.108   2.247
15045W        W22261   3.368   9.996   0.580
15046W        W22262   7.995   2.818  10.220
15047W        W22263   6.168  12.363   9.831
15048W        W22264   3.953   8.402   1.366
15049W        W22265   8.068   7.099   1.611
15050W        W22266   2.370   5.312   7.842
15051W        W22267   8.091   8.133   2.999
15052W        W22268   8.607  12.223   1.459
15053W        W22269   2.489   2.122   8.882
15054W        W22270   9.350   8.963   3.150
15055W        W22271  12.920   2.356  10.275
15056W        W22272  10.871   0.104   2.841
15057W        W22273   9.113   8.247   0.958
15058W        W22274   6.673   9.867   8.890
15059W        W22275  12.515  11.242   2.370
15060W        W22276   6.742  13.884   7.621
15061W        W22277  10.315  10.827  11.359
15062W        W22278  12.643  12.550   9.201
15063W        W22279   7.649   6.954   3.194
15064W        W22280  10.621  11.893   0.614
15065W        W22281  12.940   9.120  10.393
15066W        W22282   0.128   0.877   7.572
15067W        W22283   8.529   7.939   9.360
15068W        W22284   7.601   5.549   8.863
15069W        W22285   3.711   9.414   3.032
15070W        W22286  13.362  10.589   4.114
15071W        W22287   0.559   8.838   1.695
15072W        W22288   6.116   6.922   2.174
15073W        W22289   9.339  13.413   8.100
15074W        W22290   3.603  11.212   3.509
15075W        W22291  10.770   0.075   0.547
15076W        W22292   6.811  10.899  11.944
15077W        W22293   3.285   6.143   0.129
15078W        W22294  11.596   1.497   2.075
15079W        W22295   1.469   7.732   9.698
15080W        W22296  11.087   3.247  10.695
15081W        W22297   1.904  12.351   9.280
15082W        W22298  13.689  10.099  10.818
15083W        W22299  10.471  10.332  11.267
15084W        W22300   2.660  10.667   9.956
15085W        W22301   5.054  13.945  11.413
15086W        W22302   6.880   6.562   2.142
15087W        W22303   8.757   1.391   9.479
15088W        W22304   4.205   4.050   8.143
15089W        W22305   6.745   8.761   9.972
15090W        W22306   5.573   4.956  11.735
15091W        W22307   9.561   6.252   3.489
15092W        W22308   7.196  10.657   2.946
15093W        W22309   2.405   2.613  10.108
15094W        W22310   9.399   7.163   3.683
15095W        W22311   0.591   7.271   2.271
15096W        W22312   5.598   1.205   0.497
15097W        W22313  13.086   8.182   9.383
15098W        W22314  13.296  12.564  11.252
15099W        W22315   1.912   5.898   4.328
15100W        W22316   4.051   0.676   1.961
15101W        W22317   1.526   4.417   1.281
15102W        W22318  11.324   2.740  11.550
15103W        W22319  13.945   6.785   0.839
15104W        W22320   3.961   6.297   0.677
15105W        W22321   4.396   6.453  11.952
15106W        W22322   2.533   7.171   3.110
15107W        W22323  10.762   9.957   3.275
15108W        W22324   8.174   8.165  11.890
15109W        W22325   8.305   3.915  10.027
15110W        W22326  12.456   2.831   3.179
15111W        W22327   9.331   4.090   1.535
15112W        W22328   1.343   0.321   3.950
15113W        W22329  12.318  11.608   7.708
15114W        W22330  11.251   2.530  10.164
15115W        W22331   7.678   5.450   7.681
15116W        W22332   5.857   5.262   2.372
15117W        W22333  13.184  10.780   0.054
15118W        W22334  12.970   5.673   0.362
15119W        W22335   2.825   1.535   1.968
15120W        W22336   9.017   0.258  11.233
15121W        W22337   6.100   1.961   9.211
15122W        W22338   6.831   9.082   2.074
15123W        W22339   3.722   2.295   2.511
15124W        W22340   7.338   0.355   4.137
15125W        W22341   2.286  10.872   0.564
15126W        W22342  10.800   4.310   3.065
15127W        W22343  10.915  10.296   0.394
15128W        W22344  11.642   7.212   0.338
15129W        W22345  12.229   0.939   8.684
15130W        W22346  11.926   4.258  10.288
15131W        W22347  10.178   2.451  10.706
15132W        W22348  13.779   8.598  10.676
15133W        W22349   6.105  10.015   1.680
15134W        W22350   1.614   6.752  10.482
15135W        W22351  12.341  13.211  10.715
15136W        W22352   5.630  12.765   9.559
15137W        W22353   9.326   8.198   2.312
15138W        W22354   7.433   6.900   8.426
15139W        W22355   1.471   5.032   2.501
15140W        W22356  12.818   6.780  11.733
15141W        W22357  12.869   6.167   0.391
15142W        W22358   2.979   7.503   8.296
15143W        W22359  13.281   1.109   1.991
15144W        W22360   3.585  12.406   0.188
15145W        W22361   9.676   9.012   0.055
15146W        W22362   1.340  12.280   3.622
15147W        W22363   3.192   5.164   0.319
15148W        W22364   2.280  11.483   3.353
15149W        W22365  10.327   6.838   0.433
15150W        W22366   7.291   7.734   3.183
15151W        W22367   6.737   0.279   2.821
15152W        W22368  11.983  13.987   0.423
15153W        W22369  10.653   8.134  10.070
15154W        W22370  13.387   2.788   3.201
15155W        W22371   1.632  13.886   4.018
15156W        W22372   2.132   7.984   9.834
15157W        W22373   4.879   6.947   8.465
15158W        W22374  13.409   2.814  10.015
15159W        W22375   3.472   8.255   1.419
15160W        W22376   5.461   6.623   3.836
15161W        W22377  12.046   7.544   1.890
15162W        W22378   4.178   5.480   8.909
15163W        W22379  13.001   5.817   1.391
15164W        W22380   3.144   6.476   2.830
15165W        W22381   9.240   5.070   8.679
15166W        W22382   1.398   2.767   1.199
15167W        W22383  12.447  13.758  10.697
15168W        W22384   7.826  13.412   3.202
15169W        W22385   7.253   7.988  10.927
15170W        W22386   1.883   1.587   0.496
15171W        W22387   8.680   4.438   1.051
15172W        W22388   3.263  10.858   2.607
15173W        W22389   7.500   0.793   4.366
15174W        W22390   6.341   5.433   1.400
15175W        W22391   5.396  11.881   9.872
15176W        W22392   6.770   2.350   0.614
15177W        W22393  12.241   8.677   0.251
15178W        W22394   3.277   2.132  10.698
15179W        W22395   7.549  13.042   1.452
15180W        W22396   9.787  12.336   8.168
15181W        W22397   1.474   2.571  11.272
15182W        W22398   6.031   5.038   1.460
15183W        W22399   9.390  12.630   1.451
15184W        W22400  13.653  10.176  11.387
15185W        W22401   2.495   5.248   4.473
15186W        W22402   9.471  12.252   1.789
15187W        W22403  12.966   4.775   8.482
15188W        W22404  12.059   6.519   0.901
15189W        W22405   1.756  13.129   9.517
15190W        W22406   5.213  10.857   2.623
15191W        W22407  12.707   3.090   0.452
15192W        W22408  10.070   7.174   0.099
15193W        W22409   4.939   3.324   0.154
15194W        W22410   2.852   9.879   9.436
15195W        W22411   9.233   2.516  11.365
15196W        W22412   9.168   3.244   3.072
15197W        W22413   4.826  12.491  10.139
15198W        W22414   7.835   2.585   9.639
15199W        W22415   0.152  13.768   8.114
15200W        W22416  11.482   1.331  10.351
15201W        W22417   4.633   2.917   8.446
15202W        W22418   5.634   9.579   0.966
15203W        W22419   7.734   2.823  10.700
15204W        W22420   9.844  13.579  11.626
15205W        W22421   7.596   1.189   0.090
15206W        W22422   8.398   0.518   2.342
15207W        W22423   3.946  10.674  11.545
15208W        W22424   4.622   0.138  10.664
15209W        W22425  11.181   2.516  10.662
15210W        W22426   5.974  13.754  10.047
15211W        W22427  13.295  13.258   8.446
15212W        W22428  13.751  11.288   3.553
15213W        W22429   4.078   0.684   0.018
15214W        W22430   2.054   6.819   0.383
15215W        W22431   9.255   7.500   1.737
15216W        W22432   3.885  12.396   8.838
15217W        W22433   8.681   4.914   9.816
15218W        W22434   7.081   0.829   8.043
15219W        W22435  13.753   8.664   4.137
15220W        W22436   8.256   9.257  11.279
15221W        W22437   7.941   4.659   8.717
15222W        W22438  12.397   9.145  10.567
15223W        W22439   8.384   8.604   1.636
15224W        W22440   9.597   8.316  10.708
15225W        W22441  12.011  10.801   3.026
15226W        W22442  13.508   3.657   3.492
15227W        W22443   5.411   1.786  10.828
15228W        W22444   6.625   5.761   2.706
15229W        W22445   1.611   9.030   9.884
15230W        W22446  12.382   8.802   1.665
15231W        W22447   9.163   6.364  10.360
15232W        W22448   2.195  10.027   0.171
15233W        W22449   8.928   9.927   0.096
15234W        W22450   4.515   3.614   0.038
15235W        W22451   6.824  13.608   8.408
15236W        W22452   5.970   7.716  10.066
15237W        W22453   2.589   6.308   8.522
15238W        W22454   2.273   2.579   2.610
15239W        W22455   2.156   9.058   9.319
15240W        W22456  10.019  13.266   1.838
15241W        W22457   0.903  13.757   1.889
15242W        W22458   2.830   6.761   9.983
15243W        W22459   3.537   2.609   9.437
15244W        W22460  13.371   8.509  10.367
15245W        W22461  10.667   3.570   8.907
15246W        W22462  10.521   9.980   0.224
15247W        W22463  13.137   6.987   0.308
15248W        W22464   3.194   6.601   0.346
15249W        W22465   7.899   9.601  11.374
15250W        W22466  12.720   5.828  10.191
15251ION     NA22467   9.517   2.290  10.388
15252ION     NA22468   9.612   3.057   9.514
15253ION     NA22469   6.754   2.800   2.258
15254ION     NA22470  12.060   9.754   8.339
15255ION     NA22471   1.045   2.307   3.928
15256ION     NA22472   8.325   7.905   0.196
15257ION     NA22473  10.018   5.142   0.842
15258ION     NA22474   1.090  13.399   2.913
15259ION     NA22475   1.162   0.239   8.763
15260ION     NA22476   4.937  13.932   3.378
15261ION     NA22477   2.267   0.297  11.927
15262ION     NA22478  12.979   8.591   3.935
15263ION     NA22479   4.305   3.591   2.855
15264ION     NA22480  10.861   7.556   0.136
15265ION     NA22481  10.183   3.583   0.475
15266ION     NA22482   1.086   1.367  10.224
15267ION     NA22483  13.908   3.757   2.862
15268ION     NA22484   2.218   0.212   3.610
15269ION     NA22485   7.698   1.297   7.973
15270ION     NA22486   9.655   5.965   1.492
15271ION     NA22487   7.778   3.168   3.286
15272ION     NA22488  10.918   1.681   9.473
15273ION     NA22489   6.280   0.792   8.367
15274ION     NA22490   2.789   1.240  10.852
15275ION     NA22491   7.782   0.852   1.745
15276ION     NA22492  10.625   7.978   2.587
15277ION     NA22493   8.162  13.654   0.699
15278ION     NA22494   0.289   6.300  11.577
15279ION     NA22495   6.000   3.838  11.526
15280ION     NA22496  12.341  10.506   3.052
15281ION     NA22497  10.300   4.405   9.722
15282ION     NA22498  10.957   6.963   0.097
15283ION     NA22499   3.515   0.792   8.855
15284ION     NA22500   5.820   1.246   3.560
15285ION     NA22501  13.409   6.524   1.906
15286ION     NA22502  12.100   1.399  11.173
15287ION     NA22503  12.241   3.789   1.240
15288ION     NA22504   7.753   8.562   0.381
15289ION     NA22505   9.443   1.953   1.992
15290ION     NA22506   4.312  13.635   0.897
15291ION     NA22507   4.142   1.408  10.519
15292ION     NA22508   0.924   5.229   2.035
15293ION     NA22509   1.581   0.226   1.891
15294ION     NA22510   5.736  13.118   2.754
15295ION     NA22511  11.498   7.131   0.733
15296ION     NA22512  11.215   6.517  11.522
15297ION     NA22513   6.485   3.234   9.270
15298ION     NA22514  13.352   3.822   2.208
15299ION     NA22515   5.011   0.280   1.511
15300ION     NA22516  10.757  10.531  10.102
15301ION     NA22517  12.250   6.663   3.281
15302ION     NA22518   6.148   1.478  10.612
15303ION     NA22519   5.661   3.210   2.016
15304ION     NA22520   3.721  13.179  11.500
15305ION     NA22521  12.046  13.105  10.434
15306ION     NA22522   2.383   9.955   1.392
15307ION     NA22523   6.530   5.944  11.062
15308ION     NA22524   7.650   5.629   3.122
15309ION     NA22525   9.492  12.522  11.778
15310ION     NA22526  10.011   1.862   1.110
15311ION     NA22527   7.021   0.171  11.575
15312ION     NA22528   4.909   1.228  11.882
15313ION     NA22529  10.957  13.327   1.649
15314ION     NA22530   5.909   8.260  11.701
15315ION     NA22531  13.057   5.135   2.123
15316ION     NA22532   3.939  11.948  11.940
15317ION     NA22533   2.987  11.695   2.163
15318ION     NA22534   4.955   6.827  10.128
15319ION     NA22535   4.276   9.733   2.016
15320ION     NA22536  12.591   4.703   2.309
15321ION     NA22537   0.483   2.047  10.110
15322ION     NA22538  10.757   1.292  10.309
15323ION     NA22539   5.339  12.962   8.557
15324ION     NA22540  11.931   2.146   8.564
15325ION     NA22541   3.127   3.699  11.588
15326ION     NA22542   6.327   6.930   1.091
15327ION     NA22543   9.593   7.918   9.422
15328ION     NA22544   6.544   4.281  11.263
15329ION     NA22545   7.710   1.721   3.881
15330ION     NA22546   6.074  13.668   1.368
15331ION     NA22547   8.584   4.641  10.135
15332ION     NA22548  12.141   5.249   8.412
15333ION     NA22549   0.764   8.712   2.925
15334ION     NA22550  11.973   6.041   0.139
15335ION     NA22551   1.054   0.412  11.503
15336ION     NA22552   4.096   1.049   0.249
15337ION     NA22553  11.556  13.112   8.338
15338ION     NA22554   8.641   2.506   2.672
15339ION     NA22555  11.544  12.498  11.149
15340ION     NA22556   8.240   8.851   2.381
15341ION     NA22557   4.285   9.286   2.697
15342ION     NA22558   9.412  11.547   0.172
15343ION     NA22559   3.546   0.070  10.921
15344ION     NA22560   0.229   1.550  10.777
15345ION     NA22561   5.444  13.282  11.901
15346ION     NA22562   5.800  12.643  10.803
15347ION     NA22563   0.360   7.167  10.482
15348ION     NA22564  10.830   1.757   8.417
15349ION     NA22565   3.225   2.629  11.480
15350ION     NA22566   6.633   5.790   8.212
15351ION     NA22567   0.566  13.075   2.032
15352ION     NA22568  11.319  11.282  11.462
15353ION     NA22569   7.045   4.797   9.787
15354ION     NA22570   9.207  10.421   8.777
15355ION     NA22571   5.000   8.866  11.569
15356ION     NA22572   2.625   4.000  10.915
15357ION     NA22573  13.640   9.834   3.272
15358ION     NA22574  12.099  11.890  10.517
15359ION     NA22575  13.484   8.539   2.934
15360ION     NA22576   2.807   7.004   0.756
15361ION     NA22577   2.496   3.614   2.132
15362ION     NA22578   1.545  11.070   0.768
15363ION     NA22579  13.785  10.039   0.298
15364ION     NA22580  11.057   0.695   3.819
15365ION     NA22581   1.872  11.072  10.755
15366ION     NA22582  10.882   7.434   3.366
15367ION     NA22583   2.820  13.855  11.554
15368ION     NA22584   8.218   9.578   3.504
15369ION     NA22585  13.515  12.452   0.107
15370ION     NA22586   5.798   8.782  11.364
15371ION     NA22587   6.784  13.999   3.624
15372ION     NA22588   6.336   5.070   1.168
15373ION     NA22589  12.185   7.704  11.591
15374ION     NA22590   5.038   3.704  10.974
15375ION     NA22591   9.637   3.835   8.576
15376ION     NA22592  13.446   1.928   8.821
15377ION     NA22593   4.134   7.187   1.904
15378ION     NA22594   8.712  11.135   9.272
15379ION     NA22595   8.452   5.839  11.241
15380ION     NA22596   9.005  10.538   0.777
15381ION     NA22597   1.523   1.139   3.859
15382ION     NA22598  13.213   1.424   9.744
15383ION     NA22599  13.373   5.559  10.610
15384ION     NA22600   7.353   5.968   0.145
15385ION     NA22601   5.904   9.959   9.240
15386ION     NA22602  12.252   7.970   3.680
15387ION     NA22603   8.685   7.161   1.104
15388ION     NA22604   2.733   1.341   3.533
15389ION     NA22605  13.301   2.975  11.036
15390ION     NA22606   3.198  12.686   9.422
15391ION     NA22607   6.820   6.314   3.178
15392ION     NA22608  11.756   7.716   1.210
15393ION     NA22609   6.659   1.724  11.229
15394ION     NA22610  11.048   6.793  10.880
15395ION     NA22611  11.762  13.379   9.239
15396ION     NA22612   2.269   2.390   3.799
15397ION     NA22613   1.077   1.821   8.723
15398ION     NA22614   0.014   9.191   7.946
15399ION     NA22615  10.499  13.892   9.988
15400ION     NA22616   7.963   2.264   1.420
15401ION     NA22617  13.055   7.104   1.903
15402ION     NA22618  13.478   4.866   9.569
15403ION     NA22619   2.758  10.792   2.954
15404ION     NA22620  13.857   4.460  10.086
15405ION     NA22621   3.858   0.364   3.000
15406ION     NA22622   2.431   3.694   9.970
15407ION     NA22623   9.301   9.433   2.072
15408ION     NA22624   2.584   0.316   0.710
15409ION     NA22625   4.136  11.411  10.579
15410ION     NA22626   6.397   3.528   9.793
15411ION     NA22627   1.972   7.618  11.999
15412ION     NA22628   2.764  12.479   9.981
15413ION     NA22629  12.583   1.409   1.507
15414ION     NA22630   1.450   7.464  10.068
15415ION     NA22631  11.749   0.767   2.365
15416ION     NA22632   5.708   1.574   4.031
15417ION     NA22633   5.253   3.265   9.934
15418ION     NA22634  12.830  11.487   8.321
15419ION     NA22635   4.775   5.625   7.987
15420ION     NA22636   3.000   5.937  10.039
15421ION     NA22637  12.153  10.645   1.478
15422ION     NA22638   6.346   4.512   2.146
15423ION     NA22639   3.509   5.452  10.843
15424ION     NA22640   3.756   4.765  11.173
15425ION     NA22641  11.716   5.869   9.278
15426ION     NA22642  11.021  10.752   3.078
15427ION     NA22643   4.406   1.153   8.116
15428ION     NA22644   3.387   4.803   3.207
15429ION     NA22645  13.938   1.825   1.950
15430ION     NA22646   7.582  12.861  10.883
15431ION     NA22647   7.165   8.997   2.317
15432ION     NA22648   2.351   9.812  10.595
15433ION     NA22649   7.734   8.131  11.860
15434ION     NA22650   5.317  10.002  10.134
15435ION     NA22651   0.983  11.537   3.462
15436ION     NA22652   0.044  13.881   3.055
15437ION     NA22653   2.810   8.861  10.433
15438ION     NA22654   9.394   7.073  10.378
15439ION     NA22655   4.872   0.175   2.611
15440ION     NA22656   5.712  10.621   1.634
15441ION     NA22657   0.302   4.153   9.461
15442ION     NA22658   1.092   3.731   3.593
15443ION     NA22659   0.139   5.460  11.433
15444ION     NA22660   0.983  11.171   2.751
15445ION     NA22661   9.800   4.571  10.369
15446ION     NA22662  10.102   8.462   0.374
15447ION     NA22663  12.719   1.969   7.815
15448ION     NA22664   3.091   5.509   0.082
15449ION     NA22665  10.642   4.424  10.470
15450ION     NA22666   3.321  12.272   0.813
15451ION     NA22667  12.837   1.721   1.962
15452ION     NA22668   4.425   7.930   9.732
15453ION     NA22669   6.259   2.526   3.091
15454ION     NA22670   0.689   3.427  10.524
15455ION     NA22671   1.479   3.504   2.364
15456ION     NA22672   3.712  10.692   9.457
15457ION     NA22673   1.122   7.265   9.001
15458ION     NA22674   3.158  12.388   0.133
15459ION     NA22675   8.598   6.264   9.925
15460ION     NA22676  11.940   3.522   3.166
15461ION     NA22677  11.188  10.819   2.085
15462ION     NA22678   7.782   9.721  10.024
15463ION     NA22679  13.290   8.147   3.539
15464ION     NA22680   3.475  11.769   1.213
15465ION     NA22681  13.013   7.760  10.886
15466ION     NA22682  10.456   1.306   1.496
15467ION     NA22683   6.350  11.756   0.601
15468ION     NA22684  11.267  12.895  10.432
15469ION     NA22685  12.127   4.937   0.328
15470ION     NA22686   1.589   0.763   0.170
15471ION     NA22687   6.380   9.702   8.628
15472ION     NA22688   1.731  10.183  11.576
15473ION     NA22689  10.261  12.872   8.454
15474ION     NA22690  11.781   1.991  11.482
15475ION     NA22691   2.128  10.535   3.276
15476ION     NA22692  11.032   4.236   0.191
15477ION     NA22693   3.237   9.159   8.150
15478ION     NA22694   8.143   5.783   0.209
15479ION     NA22695   7.035   2.309   9.662
15480ION     NA22696  10.483   4.931   1.266
15481ION     NA22697   7.819   8.951  10.114
15482ION     NA22698   2.891   6.025   9.012
15483ION     NA22699   3.508   2.595   2.755
15484ION     NA22700   2.949   7.092   3.087
15485ION     NA22701   0.520   6.176   3.340
15486ION     NA22702   9.494   7.633   8.762
15487ION     NA22703   7.693  10.938   2.207
15488ION     NA22704   5.989  12.829   8.093
15489ION     NA22705   1.605   5.228  11.956
15490ION     NA22706  12.163   9.173   2.236
15491ION     NA22707  11.883   9.178   1.161
15492ION     NA22708   1.369   8.150   9.623
15493ION     NA22709  10.907   0.695   0.105
15494ION     NA22710   6.595  11.712   3.648
15495ION     NA22711  10.477   2.751  10.655
15496ION     NA22712   6.859   6.510   9.682
15497ION     NA22713  11.625  13.286   0.033
15498ION     NA22714  12.126   1.682  11.947
15499ION     NA22715   4.414   7.816   1.958
15500ION     NA22716  12.197  12.066   0.996
15501ION     NA22717   1.000   3.608   2.899
15502ION     NA22718  10.927   5.763   0.654
15503ION     NA22719   3.008   1.085  11.514
15504ION     NA22720   9.357   4.565   0.700
15505ION     NA22721  12.601  10.382   4.159
15506ION     NA22722   5.264   4.145  10.454
15507ION     NA22723   5.494  12.188   8.315
15508ION     NA22724   9.730   3.121   1.291
15509ION     NA22725   1.668   5.317   8.798
15510ION     NA22726   9.532  13.015   0.230
15511ION     NA22727   2.317   4.613   3.840
15512ION     NA22728  10.893   8.492   1.648
15513ION     NA22729   6.766   6.330  11.710
15514ION     NA22730   7.514  13.003   9.866
15515ION     NA22731  11.676   4.849   9.298
15516ION     NA22732  12.535   2.291  10.463
15517ION     NA22733   0.110  10.697   9.768
15518ION     NA22734   9.514   8.977   9.770
15519ION     NA22735  12.054  12.993  11.566
15520ION     NA22736   9.304   7.167   2.014
15521ION     NA22737   9.748  10.082   9.631
15522ION     NA22738   2.882  10.117   8.501
15523ION     NA22739  13.943   7.813   8.190
15524ION     NA22740   9.649   9.026  11.243
15525ION     NA22741   1.963   2.784   0.324
15526ION     NA22742   6.414  12.425   1.504
15527ION     NA22743  10.494  10.819   2.198
15528ION     NA22744   5.337   2.982   1.281
15529ION     NA22745  11.670   7.063  11.416
15530ION     NA22746   2.907   7.197   8.000
15531ION     NA22747  10.470   8.881   3.376
15532ION     NA22748  13.495   0.859  10.317
15533ION     NA22749   9.236   7.349   2.854
15534ION     NA22750  12.999   2.681   9.939
15535ION     NA22751  10.094   4.166  10.988
15536ION     NA22752   1.292   9.882   0.287
15537ION     NA22753  13.319   2.144   3.320
15538ION     NA22754  12.595  12.972   0.692
15539ION     NA22755   0.502   1.114   3.794
15540ION     NA22756   7.415   5.241   1.354
15541ION     NA22757   4.631   5.474   8.805
15542ION     NA22758   0.405   3.389   0.590
15543ION     NA22759  11.414   3.727   3.231
15544ION     NA22760  11.992   6.227   1.685
15545ION     NA22761   6.624  12.205   2.986
15546ION     NA22762   4.195   4.251  11.470
15547ION     NA22763   6.943  11.727   2.530
15548ION     NA22764   3.421  13.928   2.633
15549ION     NA22765   2.126   4.377   2.051
15550ION     NA22766   3.959   1.304   1.753
15551ION     NA22767   7.715   8.066   1.313
15552ION     NA22768  13.392  11.445   0.823
15553ION     NA22769   1.928   8.384   9.825
15554ION     NA22770   2.308   7.046   8.301
15555ION     NA22771   3.149  11.351  11.806
15556ION     NA22772   3.516   6.638   2.694
15557ION     NA22773   6.188   1.940   1.167
15558ION     NA22774   2.275   5.503   4.195
15559ION     CL22775  13.014   8.711  10.221
15560ION     CL22776   4.185   8.026   8.895
15561ION     CL22777   2.351   9.116   2.745
15562ION     CL22778   0.927  12.900  10.267
15563ION     CL22779   1.713  10.538   1.206
15564ION     CL22780   7.570  11.318   1.889
15565ION     CL22781   1.242   1.912  10.474
15566ION     CL22782   0.710   4.196  10.233
15567ION     CL22783   7.326   7.818   2.227
15568ION     CL22784   8.416   5.412   1.736
15569ION     CL22785   6.502  13.475   8.682
15570ION     CL22786   9.510   6.898  11.660
15571ION     CL22787   9.834  12.548  10.814
15572ION     CL22788   6.789   0.697   3.691
15573ION     CL22789   3.472   8.194   9.679
15574ION     CL22790  10.849   7.189   8.718
15575ION     CL22791  11.303   1.749   8.748
15576ION     CL22792   9.514   1.372  10.155
15577ION     CL22793   9.649   1.092   0.772
15578ION     CL22794   1.633   8.348  11.467
15579ION     CL22795  13.401  12.450   8.667
15580ION     CL22796   6.498   5.974   9.739
15581ION     CL22797   5.911  11.732  11.513
15582ION     CL22798   7.105   2.252  11.702
15583ION     CL22799   6.668   4.040  11.036
15584ION     CL22800  10.229   3.093   9.141
15585ION     CL22801  12.456   0.739   2.008
15586ION     CL22802   5.075   6.074  10.034
15587ION     CL22803   7.335   7.103   9.920
15588ION     CL22804   3.147   9.634  10.291
15589ION     CL22805   1.800   4.351   0.407
15590ION     CL22806   4.513   3.818   8.350
15591ION     CL22807  13.358   7.738  11.460
15592ION     CL22808   0.325   9.224   8.630
15593ION     CL22809   6.439   4.833   2.125
15594ION     CL22810  12.959   4.171   1.838
15595ION     CL22811   8.465  13.319   9.394
15596ION     CL22812   4.508   8.231   9.518
15597ION     CL22813   0.026  13.686   3.425
15598ION     CL22814  10.738   1.788   9.079
15599ION     CL22815   0.938   3.664  10.435
15600ION     CL22816   5.906   7.394   8.187
15601ION     CL22817   6.167   7.427   3.230
15602ION     CL22818   4.999   1.398   1.090
15603ION     CL22819   7.576   2.897  10.303
15604ION     CL22820   4.834   2.118   1.412
15605ION     CL22821   5.104   6.634   3.591
15606ION     CL22822  10.310   5.610  10.169
15607ION     CL22823   3.763   3.421   0.254
15608ION     CL22824   9.603  13.917  10.348
15609ION     CL22825   8.328   9.319   9.908
15610ION     CL22826  11.845   4.131   3.003
15611ION     CL22827   9.831  10.234  10.354
15612ION     CL22828  10.243  10.728   0.293
15613ION     CL22829   0.178   2.569  10.057
15614ION     CL22830   3.109  10.201   9.288
15615ION     CL22831   3.317   8.286   8.213
15616ION     CL22832  11.987  10.576   1.159
15617ION     CL22833   6.310   6.508   3.765
15618ION     CL22834   2.540   0.067  11.147
15619ION     CL22835   0.664   6.663   3.291
15620ION     CL22836   7.123   1.448   3.895
15621ION     CL22837   8.910  10.797  10.256
15622ION     CL22838   7.439   3.550   8.691
15623ION     CL22839   3.479  11.579   9.495
15624ION     CL22840   9.115  10.212   0.798
15625ION     CL22841   6.205  12.925   3.547
15626ION     CL22842   0.797   5.187   8.109
15627ION     CL22843  10.877   7.248   0.739
15628ION     CL22844  11.474   9.222   9.097
15629ION     CL22845   6.737   7.572  11.660
15630ION     CL22846   2.862   0.366   7.777
15631ION     CL22847  12.544   4.388  11.909
15632ION     CL22848   1.886   3.535  10.160
15633ION     CL22849   5.470   3.417   3.263
15634ION     CL22850   9.174   6.563   3.042
15635ION     CL22851   5.095  13.946   9.112
15636ION     CL22852  12.647   3.074   2.869
15637ION     CL22853   1.584   3.030  10.140
15638ION     CL22854   1.118   3.483  11.874
15639ION     CL22855   4.187   0.511   9.207
15640ION     CL22856   3.554   6.318  11.835
15641ION     CL22857   2.304   1.455  10.224
15642ION     CL22858   4.011  10.224   9.920
15643ION     CL22859   3.155  11.530   2.933
15644ION     CL22860   8.311   1.071   1.125
15645ION     CL22861   1.302   0.682  11.959
15646ION     CL22862   6.094   2.952   9.898
15647ION     CL22863   6.675   2.338   8.171
15648ION     CL22864  13.653  12.212   9.457
15649ION     CL22865  12.722   6.596   1.876
15650ION     CL22866   4.688   0.216   2.923
15651ION     CL22867   0.970  11.599  11.520
15652ION     CL22868   4.201  13.192   8.818
15653ION     CL22869  10.028   2.729  10.990
15654ION     CL22870   8.554  12.042   9.500
15655ION     CL22871   5.538  12.840   2.677
15656ION     CL22872  13.650   6.247   1.273
15657ION     CL22873   0.976  12.207   9.156
15658ION     CL22874   3.845   7.226  10.881
15659ION     CL22875   7.078   5.195   1.265
15660ION     CL22876  12.769   0.619   2.766
15661ION     CL22877   4.781   0.830   9.013
15662ION     CL22878   3.390   7.778   0.342
15663ION     CL22879  10.919   7.387   1.998
15664ION     CL22880   4.205   1.443   9.764
15665ION     CL22881   3.320   7.379   0.543
15666ION     CL22882   4.890   3.229   9.906
15667ION     CL22883   1.805  13.696  11.314
15668ION     CL22884   0.209   0.954   3.353
15669ION     CL22885   4.989  10.643   8.705
15670ION     CL22886  12.760  11.600   2.338
15671ION     CL22887  10.077   5.940   3.000
15672ION     CL22888   4.811  11.150   1.804
15673ION     CL22889   0.436   9.510   2.326
15674ION     CL22890   3.081   0.379   8.380
15675ION     CL22891   7.476   8.708   1.761
15676ION     CL22892   9.450  10.323   8.554
15677ION     CL22893   1.845  10.449   8.995
15678ION     CL22894   0.736   4.525   9.706
15679ION     CL22895   1.119  12.798   9.592
15680ION     CL22896  13.562  10.987  11.042
15681ION     CL22897   8.496   4.597   0.679
15682ION     CL22898   7.650   3.669   2.223
15683ION     CL22899   3.682  12.714  11.916
15684ION     CL22900  10.937   8.776   9.480
15685ION     CL22901   7.314   6.292   3.441
15686ION     CL22902   4.508   2.297   0.666
15687ION     CL22903  10.999   3.161  11.100
15688ION     CL22904  13.086   7.796   0.645
15689ION     CL22905   1.845   4.447   9.793
15690ION     CL22906   1.167  10.188  10.078
15691ION     CL22907   6.154   6.328   2.691
15692ION     CL22908   1.774   3.584   8.846
15693ION     CL22909  12.961  11.593   3.644
15694ION     CL22910   4.085   4.543   3.585
15695ION     CL22911   7.566   9.324   9.572
15696ION     CL22912   5.059   9.595  11.175
15697ION     CL22913   4.509   8.401   3.328
15698ION     CL22914   1.872   5.578   3.616
15699ION     CL22915   6.185   3.729   7.940
15700ION     CL22916   4.004   8.051  11.803
15701ION     CL22917   9.769   4.542   8.600
15702ION     CL22918   3.633   8.003  10.820
15703ION     CL22919   9.416   9.520   9.395
15704ION     CL22920   5.571  11.198   0.051
15705ION     CL22921   3.561   0.475   8.732
15706ION     CL22922   4.751  13.203  11.430
15707ION     CL22923  11.479   5.137   9.109
15708ION     CL22924   4.960   1.535   0.016
15709ION     CL22925   0.506   6.787   2.661
15710ION     CL22926   6.061   3.504   1.898
15711ION     CL22927   7.559  13.943  10.517
15712ION     CL22928   1.565  13.865   2.062
15713ION     CL22929  11.781   1.346  11.279
15714ION     CL22930  13.084   6.849   2.578
15715ION     CL22931   8.219   6.571   2.522
15716ION     CL22932   0.096  13.335  11.707
  14.00000  14.00000  12.00000
