gim_only
 22932
    1DOPE   NH3    1   0.334   6.135   7.929                        
    1DOPE   PO4    2   0.292   6.135   7.643                        
    1DOPE   GL1    3   0.317   6.130   7.361                        
    1DOPE   GL2    4   0.364   6.225   7.334                        
    1DOPE   C1A    5   0.314   6.159   7.032                        
    1DOPE   D2A    6   0.322   6.141   6.769                        
    1DOPE   C3A    7   0.288   6.162   6.475                        
    1DOPE   C4A    8   0.301   6.163   6.174                        
    1DOPE   C1B    9   0.421   6.361   7.041                        
    1DOPE   D2B   10   0.457   6.379   6.750                        
    1DOPE   C3B   11   0.445   6.338   6.474                        
    1DOPE   C4B   12   0.448   6.344   6.155                        
    2DOPE   NH3   13   1.137   7.240   7.945                        
    2DOPE   PO4   14   1.161   7.243   7.626                        
    2DOPE   GL1   15   1.152   7.207   7.362                        
    2DOPE   GL2   16   1.105   7.101   7.342                        
    2DOPE   C1A   17   1.158   7.214   7.071                        
    2DOPE   D2A   18   1.162   7.215   6.732                        
    2DOPE   C3A   19   1.150   7.245   6.430                        
    2DOPE   C4A   20   1.137   7.218   6.148                        
    2DOPE   C1B   21   1.066   6.995   7.025                        
    2DOPE   D2B   22   1.084   7.006   6.735                        
    2DOPE   C3B   23   1.054   7.016   6.446                        
    2DOPE   C4B   24   1.056   6.971   6.163                        
    3DOPE   NH3   25   0.951  11.077   7.953                        
    3DOPE   PO4   26   0.966  11.071   7.633                        
    3DOPE   GL1   27   0.967  11.043   7.329                        
    3DOPE   GL2   28   1.081  11.080   7.366                        
    3DOPE   C1A   29   0.940  11.055   7.074                        
    3DOPE   D2A   30   0.979  11.046   6.750                        
    3DOPE   C3A   31   0.951  11.044   6.443                        
    3DOPE   C4A   32   0.959  11.053   6.160                        
    3DOPE   C1B   33   1.233  11.103   7.032                        
    3DOPE   D2B   34   1.203  11.064   6.749                        
    3DOPE   C3B   35   1.208  11.090   6.464                        
    3DOPE   C4B   36   1.202  11.089   6.136                        
    4DOPE   NH3   37   1.616   6.613   7.955                        
    4DOPE   PO4   38   1.590   6.659   7.633                        
    4DOPE   GL1   39   1.622   6.657   7.339                        
    4DOPE   GL2   40   1.721   6.677   7.328                        
    4DOPE   C1A   41   1.591   6.643   7.034                        
    4DOPE   D2A   42   1.588   6.663   6.744                        
    4DOPE   C3A   43   1.603   6.629   6.438                        
    4DOPE   C4A   44   1.595   6.624   6.141                        
    4DOPE   C1B   45   1.848   6.740   7.058                        
    4DOPE   D2B   46   1.814   6.752   6.743                        
    4DOPE   C3B   47   1.827   6.737   6.459                        
    4DOPE   C4B   48   1.814   6.753   6.128                        
    5DOPE   NH3   49   1.679   8.135   7.948                        
    5DOPE   PO4   50   1.687   8.134   7.665                        
    5DOPE   GL1   51   1.686   8.103   7.334                        
    5DOPE   GL2   52   1.786   8.109   7.346                        
    5DOPE   C1A   53   1.650   8.120   7.055                        
    5DOPE   D2A   54   1.654   8.108   6.769                        
    5DOPE   C3A   55   1.645   8.099   6.434                        
    5DOPE   C4A   56   1.683   8.090   6.145                        
    5DOPE   C1B   57   1.904   8.109   7.043                        
    5DOPE   D2B   58   1.899   8.124   6.773                        
    5DOPE   C3B   59   1.935   8.100   6.473                        
    5DOPE   C4B   60   1.926   8.117   6.173                        
    6DOPE   NH3   61   1.640   3.275   7.945                        
    6DOPE   PO4   62   1.639   3.264   7.629                        
    6DOPE   GL1   63   1.627   3.265   7.349                        
    6DOPE   GL2   64   1.744   3.340   7.338                        
    6DOPE   C1A   65   1.607   3.259   7.061                        
    6DOPE   D2A   66   1.616   3.271   6.735                        
    6DOPE   C3A   67   1.612   3.294   6.474                        
    6DOPE   C4A   68   1.602   3.291   6.139                        
    6DOPE   C1B   69   1.812   3.405   7.057                        
    6DOPE   D2B   70   1.855   3.389   6.773                        
    6DOPE   C3B   71   1.846   3.399   6.467                        
    6DOPE   C4B   72   1.810   3.405   6.128                        
    7DOPE   NH3   73   2.424  13.715   7.939                        
    7DOPE   PO4   74   2.460  13.731   7.627                        
    7DOPE   GL1   75   2.449  13.741   7.355                        
    7DOPE   GL2   76   2.497  13.625   7.351                        
    7DOPE   C1A   77   2.456  13.720   7.065                        
    7DOPE   D2A   78   2.433  13.725   6.763                        
    7DOPE   C3A   79   2.445  13.720   6.465                        
    7DOPE   C4A   80   2.460  13.723   6.130                        
    7DOPE   C1B   81   2.494  13.518   7.065                        
    7DOPE   D2B   82   2.501  13.487   6.769                        
    7DOPE   C3B   83   2.515  13.492   6.441                        
    7DOPE   C4B   84   2.488  13.476   6.158                        
    8DOPE   NH3   85   3.242   2.506   7.940                        
    8DOPE   PO4   86   3.237   2.464   7.633                        
    8DOPE   GL1   87   3.264   2.492   7.363                        
    8DOPE   GL2   88   3.277   2.595   7.334                        
    8DOPE   C1A   89   3.240   2.489   7.036                        
    8DOPE   D2A   90   3.222   2.475   6.733                        
    8DOPE   C3A   91   3.253   2.504   6.466                        
    8DOPE   C4A   92   3.231   2.473   6.165                        
    8DOPE   C1B   93   3.277   2.748   7.047                        
    8DOPE   D2B   94   3.260   2.738   6.730                        
    8DOPE   C3B   95   3.296   2.716   6.465                        
    8DOPE   C4B   96   3.286   2.722   6.170                        
    9DOPE   NH3   97   3.281   4.346   7.933                        
    9DOPE   PO4   98   3.292   4.355   7.629                        
    9DOPE   GL1   99   3.303   4.358   7.355                        
    9DOPE   GL2  100   3.218   4.388   7.358                        
    9DOPE   C1A  101   3.315   4.310   7.073                        
    9DOPE   D2A  102   3.309   4.344   6.753                        
    9DOPE   C3A  103   3.314   4.311   6.445                        
    9DOPE   C4A  104   3.288   4.333   6.128                        
    9DOPE   C1B  105   3.111   4.447   7.051                        
    9DOPE   D2B  106   3.094   4.491   6.726                        
    9DOPE   C3B  107   3.109   4.446   6.440                        
    9DOPE   C4B  108   3.113   4.456   6.164                        
   10DOPE   NH3  109   3.197  13.689   7.958                        
   10DOPE   PO4  110   3.204  13.695   7.656                        
   10DOPE   GL1  111   3.213  13.731   7.366                        
   10DOPE   GL2  112   3.171  13.580   7.358                        
   10DOPE   C1A  113   3.172  13.693   7.030                        
   10DOPE   D2A  114   3.176  13.725   6.772                        
   10DOPE   C3A  115   3.184  13.711   6.443                        
   10DOPE   C4A  116   3.187  13.693   6.172                        
   10DOPE   C1B  117   3.137  13.489   7.072                        
   10DOPE   D2B  118   3.133  13.485   6.758                        
   10DOPE   C3B  119   3.153  13.449   6.469                        
   10DOPE   C4B  120   3.153  13.465   6.162                        
   11DOPE   NH3  121   4.443   1.828   7.939                        
   11DOPE   PO4  122   4.466   1.819   7.650                        
   11DOPE   GL1  123   4.463   1.791   7.363                        
   11DOPE   GL2  124   4.364   1.888   7.362                        
   11DOPE   C1A  125   4.431   1.795   7.055                        
   11DOPE   D2A  126   4.451   1.804   6.764                        
   11DOPE   C3A  127   4.457   1.806   6.426                        
   11DOPE   C4A  128   4.449   1.790   6.143                        
   11DOPE   C1B  129   4.284   2.017   7.064                        
   11DOPE   D2B  130   4.299   2.018   6.758                        
   11DOPE   C3B  131   4.307   2.000   6.439                        
   11DOPE   C4B  132   4.303   1.990   6.171                        
   12DOPE   NH3  133   3.429   4.804   7.935                        
   12DOPE   PO4  134   3.448   4.809   7.642                        
   12DOPE   GL1  135   3.436   4.804   7.365                        
   12DOPE   GL2  136   3.480   4.942   7.331                        
   12DOPE   C1A  137   3.434   4.803   7.056                        
   12DOPE   D2A  138   3.420   4.813   6.760                        
   12DOPE   C3A  139   3.445   4.813   6.459                        
   12DOPE   C4A  140   3.451   4.803   6.161                        
   12DOPE   C1B  141   3.558   5.013   7.063                        
   12DOPE   D2B  142   3.581   5.016   6.762                        
   12DOPE   C3B  143   3.561   5.014   6.441                        
   12DOPE   C4B  144   3.582   5.057   6.150                        
   13DOPE   NH3  145   3.985   7.233   7.942                        
   13DOPE   PO4  146   3.999   7.208   7.664                        
   13DOPE   GL1  147   3.953   7.215   7.372                        
   13DOPE   GL2  148   3.861   7.304   7.356                        
   13DOPE   C1A  149   3.982   7.245   7.068                        
   13DOPE   D2A  150   3.965   7.246   6.753                        
   13DOPE   C3A  151   3.966   7.217   6.436                        
   13DOPE   C4A  152   3.973   7.241   6.136                        
   13DOPE   C1B  153   3.765   7.329   7.029                        
   13DOPE   D2B  154   3.751   7.352   6.732                        
   13DOPE   C3B  155   3.739   7.336   6.440                        
   13DOPE   C4B  156   3.771   7.333   6.136                        
   14DOPE   NH3  157   3.858   7.928   7.970                        
   14DOPE   PO4  158   3.847   7.913   7.656                        
   14DOPE   GL1  159   3.849   7.918   7.334                        
   14DOPE   GL2  160   3.879   8.018   7.348                        
   14DOPE   C1A  161   3.842   7.908   7.063                        
   14DOPE   D2A  162   3.829   7.914   6.752                        
   14DOPE   C3A  163   3.832   7.889   6.440                        
   14DOPE   C4A  164   3.831   7.895   6.165                        
   14DOPE   C1B  165   3.899   8.158   7.034                        
   14DOPE   D2B  166   3.907   8.148   6.736                        
   14DOPE   C3B  167   3.877   8.169   6.431                        
   14DOPE   C4B  168   3.919   8.128   6.127                        
   15DOPE   NH3  169   5.173  11.879   7.941                        
   15DOPE   PO4  170   5.137  11.860   7.658                        
   15DOPE   GL1  171   5.176  11.879   7.354                        
   15DOPE   GL2  172   5.240  11.938   7.361                        
   15DOPE   C1A  173   5.172  11.875   7.073                        
   15DOPE   D2A  174   5.177  11.886   6.744                        
   15DOPE   C3A  175   5.175  11.846   6.452                        
   15DOPE   C4A  176   5.175  11.856   6.125                        
   15DOPE   C1B  177   5.333  12.051   7.070                        
   15DOPE   D2B  178   5.335  12.030   6.764                        
   15DOPE   C3B  179   5.363  12.021   6.460                        
   15DOPE   C4B  180   5.344  12.023   6.138                        
   16DOPE   NH3  181   5.164  13.703   7.964                        
   16DOPE   PO4  182   5.177  13.682   7.639                        
   16DOPE   GL1  183   5.174  13.659   7.368                        
   16DOPE   GL2  184   5.268  13.604   7.340                        
   16DOPE   C1A  185   5.159  13.666   7.056                        
   16DOPE   D2A  186   5.188  13.692   6.731                        
   16DOPE   C3A  187   5.180  13.702   6.440                        
   16DOPE   C4A  188   5.145  13.697   6.125                        
   16DOPE   C1B  189   5.410  13.549   7.028                        
   16DOPE   D2B  190   5.407  13.561   6.770                        
   16DOPE   C3B  191   5.394  13.574   6.472                        
   16DOPE   C4B  192   5.374  13.553   6.173                        
   17DOPE   NH3  193   7.463   7.309   7.928                        
   17DOPE   PO4  194   7.500   7.345   7.649                        
   17DOPE   GL1  195   7.474   7.313   7.352                        
   17DOPE   GL2  196   7.386   7.380   7.331                        
   17DOPE   C1A  197   7.507   7.322   7.025                        
   17DOPE   D2A  198   7.474   7.331   6.736                        
   17DOPE   C3A  199   7.485   7.327   6.469                        
   17DOPE   C4A  200   7.482   7.325   6.156                        
   17DOPE   C1B  201   7.242   7.446   7.050                        
   17DOPE   D2B  202   7.242   7.415   6.762                        
   17DOPE   C3B  203   7.248   7.452   6.453                        
   17DOPE   C4B  204   7.281   7.439   6.134                        
   18DOPE   NH3  205   7.278  12.044   7.928                        
   18DOPE   PO4  206   7.274  12.009   7.669                        
   18DOPE   GL1  207   7.299  12.043   7.369                        
   18DOPE   GL2  208   7.245  11.934   7.327                        
   18DOPE   C1A  209   7.308  12.017   7.058                        
   18DOPE   D2A  210   7.303  12.035   6.726                        
   18DOPE   C3A  211   7.281  12.023   6.432                        
   18DOPE   C4A  212   7.280  12.010   6.134                        
   18DOPE   C1B  213   7.194  11.788   7.044                        
   18DOPE   D2B  214   7.160  11.819   6.754                        
   18DOPE   C3B  215   7.193  11.811   6.439                        
   18DOPE   C4B  216   7.176  11.795   6.156                        
   19DOPE   NH3  217   8.180   5.411   7.940                        
   19DOPE   PO4  218   8.141   5.421   7.650                        
   19DOPE   GL1  219   8.164   5.431   7.328                        
   19DOPE   GL2  220   8.058   5.384   7.370                        
   19DOPE   C1A  221   8.159   5.431   7.071                        
   19DOPE   D2A  222   8.163   5.410   6.726                        
   19DOPE   C3A  223   8.158   5.412   6.472                        
   19DOPE   C4A  224   8.181   5.424   6.137                        
   19DOPE   C1B  225   7.890   5.349   7.068                        
   19DOPE   D2B  226   7.895   5.366   6.761                        
   19DOPE   C3B  227   7.919   5.382   6.461                        
   19DOPE   C4B  228   7.915   5.392   6.173                        
   20DOPE   NH3  229   9.295   2.697   7.958                        
   20DOPE   PO4  230   9.309   2.706   7.668                        
   20DOPE   GL1  231   9.305   2.714   7.371                        
   20DOPE   GL2  232   9.409   2.719   7.332                        
   20DOPE   C1A  233   9.310   2.685   7.038                        
   20DOPE   D2A  234   9.329   2.696   6.749                        
   20DOPE   C3A  235   9.289   2.689   6.454                        
   20DOPE   C4A  236   9.320   2.715   6.168                        
   20DOPE   C1B  237   9.570   2.778   7.039                        
   20DOPE   D2B  238   9.531   2.793   6.743                        
   20DOPE   C3B  239   9.533   2.755   6.446                        
   20DOPE   C4B  240   9.526   2.801   6.126                        
   21DOPE   NH3  241  10.229  10.544   7.960                        
   21DOPE   PO4  242  10.204  10.530   7.663                        
   21DOPE   GL1  243  10.206  10.567   7.349                        
   21DOPE   GL2  244  10.123  10.462   7.362                        
   21DOPE   C1A  245  10.219  10.545   7.039                        
   21DOPE   D2A  246  10.240  10.562   6.773                        
   21DOPE   C3A  247  10.221  10.530   6.453                        
   21DOPE   C4A  248  10.216  10.558   6.159                        
   21DOPE   C1B  249  10.004  10.399   7.059                        
   21DOPE   D2B  250  10.020  10.395   6.730                        
   21DOPE   C3B  251  10.018  10.384   6.425                        
   21DOPE   C4B  252  10.034  10.406   6.132                        
   22DOPE   NH3  253  10.079  11.259   7.962                        
   22DOPE   PO4  254  10.066  11.237   7.630                        
   22DOPE   GL1  255  10.069  11.249   7.334                        
   22DOPE   GL2  256  10.174  11.199   7.345                        
   22DOPE   C1A  257  10.049  11.267   7.048                        
   22DOPE   D2A  258  10.040  11.263   6.730                        
   22DOPE   C3A  259  10.037  11.275   6.465                        
   22DOPE   C4A  260  10.054  11.229   6.164                        
   22DOPE   C1B  261  10.250  11.127   7.042                        
   22DOPE   D2B  262  10.252  11.101   6.760                        
   22DOPE   C3B  263  10.285  11.133   6.446                        
   22DOPE   C4B  264  10.267  11.102   6.126                        
   23DOPE   NH3  265  12.380   6.518   7.943                        
   23DOPE   PO4  266  12.395   6.519   7.656                        
   23DOPE   GL1  267  12.368   6.542   7.351                        
   23DOPE   GL2  268  12.311   6.644   7.360                        
   23DOPE   C1A  269  12.381   6.547   7.036                        
   23DOPE   D2A  270  12.374   6.545   6.752                        
   23DOPE   C3A  271  12.387   6.532   6.454                        
   23DOPE   C4A  272  12.351   6.525   6.157                        
   23DOPE   C1B  273  12.250   6.737   7.032                        
   23DOPE   D2B  274  12.241   6.743   6.754                        
   23DOPE   C3B  275  12.215   6.763   6.451                        
   23DOPE   C4B  276  12.240   6.763   6.173                        
   24DOPE   NH3  277  13.590   7.751   7.962                        
   24DOPE   PO4  278  13.559   7.776   7.628                        
   24DOPE   GL1  279  13.551   7.738   7.327                        
   24DOPE   GL2  280  13.617   7.662   7.370                        
   24DOPE   C1A  281  13.555   7.741   7.039                        
   24DOPE   D2A  282  13.586   7.730   6.752                        
   24DOPE   C3A  283  13.596   7.758   6.466                        
   24DOPE   C4A  284  13.578   7.757   6.131                        
   24DOPE   C1B  285  13.662   7.533   7.073                        
   24DOPE   D2B  286  13.674   7.511   6.737                        
   24DOPE   C3B  287  13.669   7.521   6.454                        
   24DOPE   C4B  288  13.690   7.517   6.151                        
   25DOPE   NH3  289  13.622  11.974   7.932                        
   25DOPE   PO4  290  13.591  11.955   7.636                        
   25DOPE   GL1  291  13.633  11.956   7.347                        
   25DOPE   GL2  292  13.609  11.814   7.364                        
   25DOPE   C1A  293  13.600  11.969   7.048                        
   25DOPE   D2A  294  13.619  11.956   6.767                        
   25DOPE   C3A  295  13.616  11.967   6.454                        
   25DOPE   C4A  296  13.594  11.948   6.130                        
   25DOPE   C1B  297  13.642  11.683   7.025                        
   25DOPE   D2B  298  13.627  11.687   6.745                        
   25DOPE   C3B  299  13.620  11.696   6.447                        
   25DOPE   C4B  300  13.647  11.725   6.142                        
   26DOPE   NH3  301  13.581   2.386   7.932                        
   26DOPE   PO4  302  13.613   2.396   7.660                        
   26DOPE   GL1  303  13.572   2.393   7.371                        
   26DOPE   GL2  304  13.551   2.488   7.372                        
   26DOPE   C1A  305  13.574   2.402   7.067                        
   26DOPE   D2A  306  13.584   2.413   6.774                        
   26DOPE   C3A  307  13.590   2.384   6.434                        
   26DOPE   C4A  308  13.582   2.366   6.149                        
   26DOPE   C1B  309  13.525   2.633   7.056                        
   26DOPE   D2B  310  13.516   2.604   6.731                        
   26DOPE   C3B  311  13.499   2.636   6.444                        
   26DOPE   C4B  312  13.499   2.630   6.159                        
   27DVPE   NH3  313   0.450   6.883   7.932                        
   27DVPE   PO4  314   0.456   6.874   7.670                        
   27DVPE   GL1  315   0.455   6.890   7.341                        
   27DVPE   GL2  316   0.394   6.950   7.353                        
   27DVPE   C1A  317   0.483   6.885   7.073                        
   27DVPE   C2A  318   0.489   6.875   6.732                        
   27DVPE   D3A  319   0.475   6.856   6.458                        
   27DVPE   C4A  320   0.478   6.862   6.146                        
   27DVPE   C1B  321   0.293   7.023   7.074                        
   27DVPE   C2B  322   0.293   7.016   6.765                        
   27DVPE   D3B  323   0.298   7.021   6.464                        
   27DVPE   C4B  324   0.261   7.053   6.147                        
   28DVPE   NH3  325   0.500   9.326   7.925                        
   28DVPE   PO4  326   0.468   9.325   7.633                        
   28DVPE   GL1  327   0.507   9.361   7.366                        
   28DVPE   GL2  328   0.351   9.300   7.357                        
   28DVPE   C1A  329   0.496   9.351   7.031                        
   28DVPE   C2A  330   0.507   9.323   6.747                        
   28DVPE   D3A  331   0.481   9.315   6.434                        
   28DVPE   C4A  332   0.509   9.357   6.148                        
   28DVPE   C1B  333   0.272   9.241   7.069                        
   28DVPE   C2B  334   0.251   9.232   6.753                        
   28DVPE   D3B  335   0.252   9.218   6.444                        
   28DVPE   C4B  336   0.269   9.213   6.136                        
   29DVPE   NH3  337   0.503  12.680   7.974                        
   29DVPE   PO4  338   0.494  12.667   7.633                        
   29DVPE   GL1  339   0.514  12.680   7.349                        
   29DVPE   GL2  340   0.384  12.712   7.345                        
   29DVPE   C1A  341   0.475  12.673   7.036                        
   29DVPE   C2A  342   0.489  12.687   6.736                        
   29DVPE   D3A  343   0.482  12.654   6.466                        
   29DVPE   C4A  344   0.505  12.668   6.142                        
   29DVPE   C1B  345   0.239  12.744   7.035                        
   29DVPE   C2B  346   0.250  12.779   6.750                        
   29DVPE   D3B  347   0.253  12.770   6.446                        
   29DVPE   C4B  348   0.258  12.756   6.157                        
   30DVPE   NH3  349   0.254   0.326   7.963                        
   30DVPE   PO4  350   0.249   0.328   7.675                        
   30DVPE   GL1  351   0.265   0.359   7.365                        
   30DVPE   GL2  352   0.390   0.389   7.348                        
   30DVPE   C1A  353   0.250   0.350   7.070                        
   30DVPE   C2A  354   0.270   0.347   6.758                        
   30DVPE   D3A  355   0.248   0.359   6.474                        
   30DVPE   C4A  356   0.233   0.333   6.151                        
   30DVPE   C1B  357   0.512   0.390   7.045                        
   30DVPE   C2B  358   0.497   0.395   6.736                        
   30DVPE   D3B  359   0.498   0.412   6.440                        
   30DVPE   C4B  360   0.484   0.424   6.144                        
   31DVPE   NH3  361   1.011   7.864   7.940                        
   31DVPE   PO4  362   0.999   7.873   7.657                        
   31DVPE   GL1  363   0.998   7.879   7.327                        
   31DVPE   GL2  364   1.128   7.813   7.366                        
   31DVPE   C1A  365   0.982   7.861   7.029                        
   31DVPE   C2A  366   0.992   7.885   6.745                        
   31DVPE   D3A  367   1.014   7.869   6.467                        
   31DVPE   C4A  368   0.983   7.893   6.157                        
   31DVPE   C1B  369   1.208   7.729   7.038                        
   31DVPE   C2B  370   1.242   7.758   6.729                        
   31DVPE   D3B  371   1.204   7.763   6.473                        
   31DVPE   C4B  372   1.243   7.769   6.168                        
   32DVPE   NH3  373   1.095   8.434   7.932                        
   32DVPE   PO4  374   1.078   8.430   7.649                        
   32DVPE   GL1  375   1.104   8.451   7.354                        
   32DVPE   GL2  376   1.117   8.566   7.368                        
   32DVPE   C1A  377   1.080   8.451   7.064                        
   32DVPE   C2A  378   1.095   8.427   6.766                        
   32DVPE   D3A  379   1.072   8.448   6.462                        
   32DVPE   C4A  380   1.102   8.433   6.138                        
   32DVPE   C1B  381   1.153   8.690   7.030                        
   32DVPE   C2B  382   1.144   8.682   6.767                        
   32DVPE   D3B  383   1.126   8.698   6.432                        
   32DVPE   C4B  384   1.138   8.654   6.156                        
   33DVPE   NH3  385   1.124  11.775   7.938                        
   33DVPE   PO4  386   1.101  11.778   7.628                        
   33DVPE   GL1  387   1.094  11.759   7.366                        
   33DVPE   GL2  388   1.099  11.893   7.361                        
   33DVPE   C1A  389   1.113  11.765   7.038                        
   33DVPE   C2A  390   1.094  11.770   6.731                        
   33DVPE   D3A  391   1.095  11.781   6.459                        
   33DVPE   C4A  392   1.088  11.799   6.129                        
   33DVPE   C1B  393   1.041  12.023   7.045                        
   33DVPE   C2B  394   1.035  12.018   6.762                        
   33DVPE   D3B  395   1.056  12.041   6.461                        
   33DVPE   C4B  396   1.071  12.004   6.175                        
   34DVPE   NH3  397   1.200  12.696   7.966                        
   34DVPE   PO4  398   1.214  12.726   7.674                        
   34DVPE   GL1  399   1.194  12.695   7.361                        
   34DVPE   GL2  400   1.074  12.748   7.355                        
   34DVPE   C1A  401   1.198  12.694   7.067                        
   34DVPE   C2A  402   1.211  12.723   6.769                        
   34DVPE   D3A  403   1.187  12.704   6.429                        
   34DVPE   C4A  404   1.209  12.705   6.171                        
   34DVPE   C1B  405   0.960  12.811   7.037                        
   34DVPE   C2B  406   0.964  12.804   6.759                        
   34DVPE   D3B  407   0.972  12.801   6.426                        
   34DVPE   C4B  408   0.962  12.832   6.134                        
   35DVPE   NH3  409   1.054   2.296   7.954                        
   35DVPE   PO4  410   1.096   2.315   7.658                        
   35DVPE   GL1  411   1.050   2.316   7.357                        
   35DVPE   GL2  412   1.012   2.164   7.347                        
   35DVPE   C1A  413   1.085   2.328   7.026                        
   35DVPE   C2A  414   1.093   2.279   6.747                        
   35DVPE   D3A  415   1.067   2.315   6.468                        
   35DVPE   C4A  416   1.079   2.303   6.137                        
   35DVPE   C1B  417   1.001   2.065   7.067                        
   35DVPE   C2B  418   0.982   2.044   6.756                        
   35DVPE   D3B  419   1.005   2.062   6.457                        
   35DVPE   C4B  420   0.981   2.052   6.161                        
   36DVPE   NH3  421   2.009   6.262   7.930                        
   36DVPE   PO4  422   2.004   6.269   7.650                        
   36DVPE   GL1  423   2.018   6.268   7.348                        
   36DVPE   GL2  424   2.109   6.190   7.352                        
   36DVPE   C1A  425   2.053   6.294   7.057                        
   36DVPE   C2A  426   2.016   6.276   6.747                        
   36DVPE   D3A  427   2.027   6.275   6.464                        
   36DVPE   C4A  428   2.024   6.279   6.125                        
   36DVPE   C1B  429   2.162   6.063   7.069                        
   36DVPE   C2B  430   2.167   6.092   6.771                        
   36DVPE   D3B  431   2.187   6.055   6.449                        
   36DVPE   C4B  432   2.162   6.047   6.137                        
   37DVPE   NH3  433   1.867   8.916   7.946                        
   37DVPE   PO4  434   1.882   8.919   7.669                        
   37DVPE   GL1  435   1.905   8.947   7.355                        
   37DVPE   GL2  436   1.751   8.923   7.343                        
   37DVPE   C1A  437   1.905   8.932   7.038                        
   37DVPE   C2A  438   1.912   8.948   6.748                        
   37DVPE   D3A  439   1.909   8.914   6.450                        
   37DVPE   C4A  440   1.907   8.901   6.149                        
   37DVPE   C1B  441   1.620   8.928   7.048                        
   37DVPE   C2B  442   1.639   8.912   6.763                        
   37DVPE   D3B  443   1.659   8.898   6.441                        
   37DVPE   C4B  444   1.644   8.908   6.146                        
   38DVPE   NH3  445   1.848   9.809   7.950                        
   38DVPE   PO4  446   1.838   9.808   7.670                        
   38DVPE   GL1  447   1.845   9.773   7.374                        
   38DVPE   GL2  448   1.756   9.662   7.356                        
   38DVPE   C1A  449   1.807   9.803   7.044                        
   38DVPE   C2A  450   1.823   9.769   6.754                        
   38DVPE   D3A  451   1.809   9.799   6.431                        
   38DVPE   C4A  452   1.811   9.791   6.160                        
   38DVPE   C1B  453   1.719   9.561   7.038                        
   38DVPE   C2B  454   1.715   9.594   6.738                        
   38DVPE   D3B  455   1.696   9.588   6.455                        
   38DVPE   C4B  456   1.724   9.575   6.139                        
   39DVPE   NH3  457   1.822  11.150   7.931                        
   39DVPE   PO4  458   1.833  11.178   7.668                        
   39DVPE   GL1  459   1.822  11.176   7.331                        
   39DVPE   GL2  460   1.757  11.287   7.350                        
   39DVPE   C1A  461   1.858  11.175   7.041                        
   39DVPE   C2A  462   1.835  11.164   6.770                        
   39DVPE   D3A  463   1.850  11.150   6.453                        
   39DVPE   C4A  464   1.835  11.158   6.150                        
   39DVPE   C1B  465   1.696  11.400   7.055                        
   39DVPE   C2B  466   1.710  11.391   6.768                        
   39DVPE   D3B  467   1.708  11.365   6.441                        
   39DVPE   C4B  468   1.739  11.390   6.167                        
   40DVPE   NH3  469   1.761   0.227   7.939                        
   40DVPE   PO4  470   1.730   0.250   7.641                        
   40DVPE   GL1  471   1.733   0.270   7.358                        
   40DVPE   GL2  472   1.734   0.394   7.361                        
   40DVPE   C1A  473   1.762   0.274   7.035                        
   40DVPE   C2A  474   1.724   0.250   6.742                        
   40DVPE   D3A  475   1.770   0.232   6.451                        
   40DVPE   C4A  476   1.757   0.237   6.131                        
   40DVPE   C1B  477   1.751   0.481   7.047                        
   40DVPE   C2B  478   1.771   0.494   6.736                        
   40DVPE   D3B  479   1.742   0.474   6.468                        
   40DVPE   C4B  480   1.745   0.474   6.151                        
   41DVPE   NH3  481   1.470   1.148   7.957                        
   41DVPE   PO4  482   1.498   1.168   7.649                        
   41DVPE   GL1  483   1.475   1.167   7.363                        
   41DVPE   GL2  484   1.524   1.081   7.345                        
   41DVPE   C1A  485   1.483   1.170   7.055                        
   41DVPE   C2A  486   1.478   1.197   6.747                        
   41DVPE   D3A  487   1.456   1.172   6.439                        
   41DVPE   C4A  488   1.476   1.167   6.142                        
   41DVPE   C1B  489   1.580   0.944   7.052                        
   41DVPE   C2B  490   1.581   0.928   6.745                        
   41DVPE   D3B  491   1.581   0.921   6.427                        
   41DVPE   C4B  492   1.561   0.966   6.129                        
   42DVPE   NH3  493   1.595   2.709   7.928                        
   42DVPE   PO4  494   1.589   2.744   7.628                        
   42DVPE   GL1  495   1.585   2.734   7.354                        
   42DVPE   GL2  496   1.693   2.681   7.333                        
   42DVPE   C1A  497   1.552   2.704   7.047                        
   42DVPE   C2A  498   1.559   2.725   6.768                        
   42DVPE   D3A  499   1.551   2.743   6.446                        
   42DVPE   C4A  500   1.562   2.707   6.138                        
   42DVPE   C1B  501   1.829   2.639   7.075                        
   42DVPE   C2B  502   1.818   2.639   6.736                        
   42DVPE   D3B  503   1.836   2.625   6.451                        
   42DVPE   C4B  504   1.815   2.653   6.161                        
   43DVPE   NH3  505   2.416   2.858   7.935                        
   43DVPE   PO4  506   2.422   2.829   7.628                        
   43DVPE   GL1  507   2.433   2.844   7.354                        
   43DVPE   GL2  508   2.546   2.836   7.369                        
   43DVPE   C1A  509   2.417   2.842   7.058                        
   43DVPE   C2A  510   2.431   2.847   6.756                        
   43DVPE   D3A  511   2.422   2.863   6.448                        
   43DVPE   C4A  512   2.431   2.847   6.141                        
   43DVPE   C1B  513   2.676   2.829   7.049                        
   43DVPE   C2B  514   2.684   2.820   6.730                        
   43DVPE   D3B  515   2.649   2.810   6.467                        
   43DVPE   C4B  516   2.656   2.796   6.158                        
   44DVPE   NH3  517   2.717   5.879   7.970                        
   44DVPE   PO4  518   2.739   5.841   7.675                        
   44DVPE   GL1  519   2.735   5.879   7.340                        
   44DVPE   GL2  520   2.628   5.813   7.348                        
   44DVPE   C1A  521   2.712   5.839   7.053                        
   44DVPE   C2A  522   2.737   5.857   6.756                        
   44DVPE   D3A  523   2.734   5.845   6.441                        
   44DVPE   C4A  524   2.721   5.846   6.162                        
   44DVPE   C1B  525   2.520   5.753   7.040                        
   44DVPE   C2B  526   2.485   5.720   6.746                        
   44DVPE   D3B  527   2.514   5.732   6.434                        
   44DVPE   C4B  528   2.516   5.730   6.136                        
   45DVPE   NH3  529   2.565   6.794   7.956                        
   45DVPE   PO4  530   2.543   6.799   7.660                        
   45DVPE   GL1  531   2.551   6.788   7.357                        
   45DVPE   GL2  532   2.526   6.671   7.339                        
   45DVPE   C1A  533   2.575   6.790   7.032                        
   45DVPE   C2A  534   2.585   6.798   6.765                        
   45DVPE   D3A  535   2.582   6.777   6.459                        
   45DVPE   C4A  536   2.591   6.761   6.137                        
   45DVPE   C1B  537   2.511   6.514   7.039                        
   45DVPE   C2B  538   2.533   6.560   6.737                        
   45DVPE   D3B  539   2.543   6.552   6.467                        
   45DVPE   C4B  540   2.529   6.513   6.152                        
   46DVPE   NH3  541   2.407   7.411   7.929                        
   46DVPE   PO4  542   2.403   7.408   7.670                        
   46DVPE   GL1  543   2.402   7.413   7.340                        
   46DVPE   GL2  544   2.522   7.390   7.359                        
   46DVPE   C1A  545   2.442   7.440   7.028                        
   46DVPE   C2A  546   2.424   7.406   6.763                        
   46DVPE   D3A  547   2.430   7.400   6.440                        
   46DVPE   C4A  548   2.428   7.442   6.144                        
   46DVPE   C1B  549   2.648   7.338   7.060                        
   46DVPE   C2B  550   2.685   7.358   6.737                        
   46DVPE   D3B  551   2.683   7.343   6.474                        
   46DVPE   C4B  552   2.678   7.372   6.175                        
   47DVPE   NH3  553   2.423   8.231   7.943                        
   47DVPE   PO4  554   2.414   8.270   7.669                        
   47DVPE   GL1  555   2.420   8.263   7.357                        
   47DVPE   GL2  556   2.512   8.219   7.332                        
   47DVPE   C1A  557   2.407   8.265   7.073                        
   47DVPE   C2A  558   2.434   8.256   6.747                        
   47DVPE   D3A  559   2.412   8.232   6.470                        
   47DVPE   C4A  560   2.404   8.260   6.160                        
   47DVPE   C1B  561   2.637   8.152   7.039                        
   47DVPE   C2B  562   2.639   8.122   6.749                        
   47DVPE   D3B  563   2.655   8.144   6.448                        
   47DVPE   C4B  564   2.658   8.146   6.127                        
   48DVPE   NH3  565   2.587   9.642   7.950                        
   48DVPE   PO4  566   2.600   9.630   7.667                        
   48DVPE   GL1  567   2.598   9.624   7.366                        
   48DVPE   GL2  568   2.506   9.739   7.337                        
   48DVPE   C1A  569   2.565   9.656   7.068                        
   48DVPE   C2A  570   2.600   9.649   6.773                        
   48DVPE   D3A  571   2.574   9.618   6.454                        
   48DVPE   C4A  572   2.579   9.612   6.133                        
   48DVPE   C1B  573   2.439   9.859   7.039                        
   48DVPE   C2B  574   2.442   9.859   6.767                        
   48DVPE   D3B  575   2.455   9.819   6.468                        
   48DVPE   C4B  576   2.450   9.864   6.165                        
   49DVPE   NH3  577   2.617  10.568   7.974                        
   49DVPE   PO4  578   2.603  10.604   7.645                        
   49DVPE   GL1  579   2.586  10.583   7.348                        
   49DVPE   GL2  580   2.484  10.531   7.331                        
   49DVPE   C1A  581   2.578  10.578   7.066                        
   49DVPE   C2A  582   2.585  10.596   6.764                        
   49DVPE   D3A  583   2.602  10.568   6.444                        
   49DVPE   C4A  584   2.602  10.582   6.133                        
   49DVPE   C1B  585   2.391  10.483   7.064                        
   49DVPE   C2B  586   2.367  10.493   6.767                        
   49DVPE   D3B  587   2.402  10.461   6.442                        
   49DVPE   C4B  588   2.355  10.489   6.148                        
   50DVPE   NH3  589   2.389  11.270   7.931                        
   50DVPE   PO4  590   2.422  11.289   7.639                        
   50DVPE   GL1  591   2.394  11.263   7.357                        
   50DVPE   GL2  592   2.524  11.328   7.340                        
   50DVPE   C1A  593   2.398  11.276   7.026                        
   50DVPE   C2A  594   2.403  11.263   6.761                        
   50DVPE   D3A  595   2.375  11.279   6.432                        
   50DVPE   C4A  596   2.420  11.268   6.173                        
   50DVPE   C1B  597   2.616  11.399   7.043                        
   50DVPE   C2B  598   2.578  11.422   6.761                        
   50DVPE   D3B  599   2.602  11.414   6.442                        
   50DVPE   C4B  600   2.601  11.412   6.145                        
   51DVPE   NH3  601   2.622  12.077   7.929                        
   51DVPE   PO4  602   2.612  12.050   7.661                        
   51DVPE   GL1  603   2.609  12.095   7.350                        
   51DVPE   GL2  604   2.491  12.100   7.336                        
   51DVPE   C1A  605   2.603  12.051   7.051                        
   51DVPE   C2A  606   2.621  12.089   6.739                        
   51DVPE   D3A  607   2.604  12.086   6.468                        
   51DVPE   C4A  608   2.611  12.089   6.144                        
   51DVPE   C1B  609   2.373  12.144   7.059                        
   51DVPE   C2B  610   2.363  12.170   6.739                        
   51DVPE   D3B  611   2.384  12.139   6.437                        
   51DVPE   C4B  612   2.397  12.157   6.127                        
   52DVPE   NH3  613   2.455  12.972   7.925                        
   52DVPE   PO4  614   2.503  12.985   7.655                        
   52DVPE   GL1  615   2.488  12.998   7.349                        
   52DVPE   GL2  616   2.462  12.880   7.364                        
   52DVPE   C1A  617   2.453  12.963   7.051                        
   52DVPE   C2A  618   2.483  12.986   6.759                        
   52DVPE   D3A  619   2.462  13.001   6.428                        
   52DVPE   C4A  620   2.479  12.997   6.133                        
   52DVPE   C1B  621   2.476  12.725   7.068                        
   52DVPE   C2B  622   2.482  12.733   6.730                        
   52DVPE   D3B  623   2.475  12.752   6.470                        
   52DVPE   C4B  624   2.472  12.737   6.158                        
   53DVPE   NH3  625   3.075   6.142   7.935                        
   53DVPE   PO4  626   3.108   6.152   7.663                        
   53DVPE   GL1  627   3.105   6.165   7.347                        
   53DVPE   GL2  628   3.172   6.250   7.337                        
   53DVPE   C1A  629   3.081   6.120   7.053                        
   53DVPE   C2A  630   3.101   6.123   6.774                        
   53DVPE   D3A  631   3.087   6.152   6.443                        
   53DVPE   C4A  632   3.116   6.138   6.168                        
   53DVPE   C1B  633   3.214   6.345   7.072                        
   53DVPE   C2B  634   3.187   6.382   6.772                        
   53DVPE   D3B  635   3.232   6.355   6.470                        
   53DVPE   C4B  636   3.190   6.359   6.136                        
   54DVPE   NH3  637   3.198   7.102   7.968                        
   54DVPE   PO4  638   3.237   7.126   7.650                        
   54DVPE   GL1  639   3.217   7.134   7.351                        
   54DVPE   GL2  640   3.192   7.003   7.352                        
   54DVPE   C1A  641   3.217   7.131   7.036                        
   54DVPE   C2A  642   3.205   7.139   6.735                        
   54DVPE   D3A  643   3.236   7.100   6.442                        
   54DVPE   C4A  644   3.217   7.121   6.157                        
   54DVPE   C1B  645   3.130   6.888   7.057                        
   54DVPE   C2B  646   3.141   6.873   6.753                        
   54DVPE   D3B  647   3.164   6.860   6.430                        
   54DVPE   C4B  648   3.168   6.866   6.130                        
   55DVPE   NH3  649   3.100   9.550   7.938                        
   55DVPE   PO4  650   3.130   9.522   7.635                        
   55DVPE   GL1  651   3.100   9.532   7.328                        
   55DVPE   GL2  652   3.195   9.426   7.327                        
   55DVPE   C1A  653   3.096   9.527   7.035                        
   55DVPE   C2A  654   3.111   9.540   6.730                        
   55DVPE   D3A  655   3.098   9.556   6.437                        
   55DVPE   C4A  656   3.132   9.520   6.138                        
   55DVPE   C1B  657   3.265   9.337   7.050                        
   55DVPE   C2B  658   3.254   9.331   6.735                        
   55DVPE   D3B  659   3.265   9.310   6.464                        
   55DVPE   C4B  660   3.239   9.315   6.128                        
   56DVPE   NH3  661   3.298  10.986   7.930                        
   56DVPE   PO4  662   3.290  11.012   7.650                        
   56DVPE   GL1  663   3.293  11.021   7.372                        
   56DVPE   GL2  664   3.158  11.036   7.334                        
   56DVPE   C1A  665   3.285  11.008   7.040                        
   56DVPE   C2A  666   3.280  11.003   6.762                        
   56DVPE   D3A  667   3.289  11.012   6.426                        
   56DVPE   C4A  668   3.304  10.999   6.136                        
   56DVPE   C1B  669   3.049  11.083   7.073                        
   56DVPE   C2B  670   3.050  11.077   6.752                        
   56DVPE   D3B  671   3.034  11.102   6.451                        
   56DVPE   C4B  672   3.058  11.079   6.153                        
   57DVPE   NH3  673   3.165  12.917   7.929                        
   57DVPE   PO4  674   3.172  12.918   7.641                        
   57DVPE   GL1  675   3.171  12.879   7.370                        
   57DVPE   GL2  676   3.192  12.781   7.366                        
   57DVPE   C1A  677   3.201  12.870   7.066                        
   57DVPE   C2A  678   3.162  12.901   6.741                        
   57DVPE   D3A  679   3.189  12.887   6.435                        
   57DVPE   C4A  680   3.177  12.876   6.156                        
   57DVPE   C1B  681   3.141  12.624   7.069                        
   57DVPE   C2B  682   3.188  12.653   6.730                        
   57DVPE   D3B  683   3.158  12.653   6.465                        
   57DVPE   C4B  684   3.189  12.664   6.162                        
   58DVPE   NH3  685   4.059   2.445   7.951                        
   58DVPE   PO4  686   4.096   2.456   7.635                        
   58DVPE   GL1  687   4.098   2.461   7.349                        
   58DVPE   GL2  688   3.960   2.558   7.354                        
   58DVPE   C1A  689   4.061   2.486   7.054                        
   58DVPE   C2A  690   4.088   2.482   6.732                        
   58DVPE   D3A  691   4.076   2.483   6.475                        
   58DVPE   C4A  692   4.056   2.448   6.160                        
   58DVPE   C1B  693   3.860   2.598   7.029                        
   58DVPE   C2B  694   3.880   2.598   6.757                        
   58DVPE   D3B  695   3.891   2.640   6.456                        
   58DVPE   C4B  696   3.897   2.597   6.162                        
   59DVPE   NH3  697   3.752   4.105   7.942                        
   59DVPE   PO4  698   3.771   4.115   7.635                        
   59DVPE   GL1  699   3.780   4.077   7.328                        
   59DVPE   GL2  700   3.782   3.958   7.344                        
   59DVPE   C1A  701   3.752   4.114   7.047                        
   59DVPE   C2A  702   3.757   4.082   6.733                        
   59DVPE   D3A  703   3.757   4.086   6.470                        
   59DVPE   C4A  704   3.765   4.111   6.152                        
   59DVPE   C1B  705   3.782   3.838   7.033                        
   59DVPE   C2B  706   3.794   3.827   6.771                        
   59DVPE   D3B  707   3.785   3.842   6.428                        
   59DVPE   C4B  708   3.776   3.859   6.148                        
   60DVPE   NH3  709   3.851   6.643   7.932                        
   60DVPE   PO4  710   3.844   6.679   7.649                        
   60DVPE   GL1  711   3.865   6.679   7.349                        
   60DVPE   GL2  712   3.769   6.535   7.355                        
   60DVPE   C1A  713   3.854   6.655   7.064                        
   60DVPE   C2A  714   3.832   6.637   6.760                        
   60DVPE   D3A  715   3.878   6.645   6.434                        
   60DVPE   C4A  716   3.879   6.635   6.155                        
   60DVPE   C1B  717   3.723   6.446   7.072                        
   60DVPE   C2B  718   3.745   6.454   6.732                        
   60DVPE   D3B  719   3.709   6.452   6.444                        
   60DVPE   C4B  720   3.747   6.452   6.173                        
   61DVPE   NH3  721   3.968  12.012   7.965                        
   61DVPE   PO4  722   4.012  11.992   7.643                        
   61DVPE   GL1  723   3.969  12.030   7.362                        
   61DVPE   GL2  724   3.850  12.051   7.367                        
   61DVPE   C1A  725   3.980  11.988   7.036                        
   61DVPE   C2A  726   3.979  12.025   6.750                        
   61DVPE   D3A  727   4.005  11.997   6.437                        
   61DVPE   C4A  728   3.988  12.018   6.169                        
   61DVPE   C1B  729   3.738  12.060   7.055                        
   61DVPE   C2B  730   3.757  12.061   6.734                        
   61DVPE   D3B  731   3.746  12.070   6.454                        
   61DVPE   C4B  732   3.751  12.101   6.171                        
   62DVPE   NH3  733   3.774  12.850   7.960                        
   62DVPE   PO4  734   3.731  12.837   7.659                        
   62DVPE   GL1  735   3.752  12.853   7.359                        
   62DVPE   GL2  736   3.895  12.809   7.355                        
   62DVPE   C1A  737   3.740  12.866   7.061                        
   62DVPE   C2A  738   3.734  12.864   6.749                        
   62DVPE   D3A  739   3.732  12.840   6.472                        
   62DVPE   C4A  740   3.774  12.837   6.152                        
   62DVPE   C1B  741   3.976  12.813   7.044                        
   62DVPE   C2B  742   4.011  12.819   6.760                        
   62DVPE   D3B  743   3.973  12.785   6.454                        
   62DVPE   C4B  744   3.995  12.818   6.173                        
   63DVPE   NH3  745   3.960  13.652   7.945                        
   63DVPE   PO4  746   3.988  13.652   7.671                        
   63DVPE   GL1  747   3.984  13.647   7.351                        
   63DVPE   GL2  748   3.854  13.591   7.366                        
   63DVPE   C1A  749   3.990  13.647   7.066                        
   63DVPE   C2A  750   3.974  13.664   6.753                        
   63DVPE   D3A  751   3.943  13.662   6.438                        
   63DVPE   C4A  752   3.964  13.659   6.172                        
   63DVPE   C1B  753   3.778  13.514   7.075                        
   63DVPE   C2B  754   3.749  13.488   6.741                        
   63DVPE   D3B  755   3.750  13.489   6.430                        
   63DVPE   C4B  756   3.746  13.477   6.129                        
   64DVPE   NH3  757   4.488   6.457   7.958                        
   64DVPE   PO4  758   4.524   6.443   7.639                        
   64DVPE   GL1  759   4.533   6.430   7.336                        
   64DVPE   GL2  760   4.462   6.324   7.362                        
   64DVPE   C1A  761   4.485   6.438   7.038                        
   64DVPE   C2A  762   4.511   6.455   6.762                        
   64DVPE   D3A  763   4.495   6.458   6.458                        
   64DVPE   C4A  764   4.529   6.426   6.168                        
   64DVPE   C1B  765   4.383   6.243   7.044                        
   64DVPE   C2B  766   4.356   6.211   6.761                        
   64DVPE   D3B  767   4.369   6.241   6.470                        
   64DVPE   C4B  768   4.376   6.247   6.173                        
   65DVPE   NH3  769   4.617   8.405   7.960                        
   65DVPE   PO4  770   4.603   8.408   7.664                        
   65DVPE   GL1  771   4.613   8.410   7.368                        
   65DVPE   GL2  772   4.516   8.458   7.334                        
   65DVPE   C1A  773   4.620   8.408   7.028                        
   65DVPE   C2A  774   4.611   8.412   6.733                        
   65DVPE   D3A  775   4.587   8.413   6.457                        
   65DVPE   C4A  776   4.591   8.382   6.165                        
   65DVPE   C1B  777   4.433   8.539   7.048                        
   65DVPE   C2B  778   4.407   8.549   6.754                        
   65DVPE   D3B  779   4.423   8.557   6.434                        
   65DVPE   C4B  780   4.393   8.541   6.142                        
   66DVPE   NH3  781   4.614  10.269   7.931                        
   66DVPE   PO4  782   4.601  10.255   7.672                        
   66DVPE   GL1  783   4.603  10.249   7.373                        
   66DVPE   GL2  784   4.540  10.189   7.331                        
   66DVPE   C1A  785   4.614  10.252   7.033                        
   66DVPE   C2A  786   4.586  10.275   6.760                        
   66DVPE   D3A  787   4.604  10.248   6.461                        
   66DVPE   C4A  788   4.618  10.262   6.132                        
   66DVPE   C1B  789   4.478  10.057   7.044                        
   66DVPE   C2B  790   4.470  10.063   6.741                        
   66DVPE   D3B  791   4.436  10.050   6.473                        
   66DVPE   C4B  792   4.483  10.059   6.139                        
   67DVPE   NH3  793   4.686  11.025   7.969                        
   67DVPE   PO4  794   4.663  10.995   7.636                        
   67DVPE   GL1  795   4.665  10.993   7.339                        
   67DVPE   GL2  796   4.567  11.024   7.333                        
   67DVPE   C1A  797   4.657  11.000   7.044                        
   67DVPE   C2A  798   4.689  11.013   6.771                        
   67DVPE   D3A  799   4.676  11.032   6.437                        
   67DVPE   C4A  800   4.664  11.019   6.163                        
   67DVPE   C1B  801   4.450  11.047   7.049                        
   67DVPE   C2B  802   4.412  11.072   6.775                        
   67DVPE   D3B  803   4.437  11.052   6.441                        
   67DVPE   C4B  804   4.418  11.075   6.165                        
   68DVPE   NH3  805   4.493  13.694   7.952                        
   68DVPE   PO4  806   4.521  13.696   7.654                        
   68DVPE   GL1  807   4.491  13.709   7.372                        
   68DVPE   GL2  808   4.584  13.620   7.368                        
   68DVPE   C1A  809   4.479  13.737   7.046                        
   68DVPE   C2A  810   4.520  13.732   6.727                        
   68DVPE   D3A  811   4.483  13.702   6.428                        
   68DVPE   C4A  812   4.480  13.740   6.161                        
   68DVPE   C1B  813   4.631  13.517   7.064                        
   68DVPE   C2B  814   4.619  13.490   6.750                        
   68DVPE   D3B  815   4.623  13.505   6.469                        
   68DVPE   C4B  816   4.647  13.493   6.162                        
   69DVPE   NH3  817   4.668   3.043   7.935                        
   69DVPE   PO4  818   4.710   3.046   7.671                        
   69DVPE   GL1  819   4.690   3.029   7.346                        
   69DVPE   GL2  820   4.565   3.000   7.346                        
   69DVPE   C1A  821   4.681   3.034   7.034                        
   69DVPE   C2A  822   4.683   3.045   6.767                        
   69DVPE   D3A  823   4.679   3.040   6.430                        
   69DVPE   C4A  824   4.673   3.041   6.127                        
   69DVPE   C1B  825   4.448   3.003   7.027                        
   69DVPE   C2B  826   4.430   3.005   6.726                        
   69DVPE   D3B  827   4.463   3.022   6.451                        
   69DVPE   C4B  828   4.432   3.043   6.156                        
   70DVPE   NH3  829   4.381   3.520   7.932                        
   70DVPE   PO4  830   4.405   3.508   7.652                        
   70DVPE   GL1  831   4.389   3.474   7.354                        
   70DVPE   GL2  832   4.417   3.646   7.343                        
   70DVPE   C1A  833   4.404   3.522   7.066                        
   70DVPE   C2A  834   4.400   3.480   6.738                        
   70DVPE   D3A  835   4.391   3.497   6.440                        
   70DVPE   C4A  836   4.396   3.523   6.151                        
   70DVPE   C1B  837   4.398   3.759   7.051                        
   70DVPE   C2B  838   4.432   3.755   6.768                        
   70DVPE   D3B  839   4.423   3.745   6.443                        
   70DVPE   C4B  840   4.432   3.749   6.175                        
   71DVPE   NH3  841   5.325   6.298   7.962                        
   71DVPE   PO4  842   5.330   6.313   7.650                        
   71DVPE   GL1  843   5.286   6.281   7.345                        
   71DVPE   GL2  844   5.355   6.420   7.371                        
   71DVPE   C1A  845   5.333   6.310   7.073                        
   71DVPE   C2A  846   5.330   6.314   6.748                        
   71DVPE   D3A  847   5.303   6.275   6.462                        
   71DVPE   C4A  848   5.317   6.289   6.157                        
   71DVPE   C1B  849   5.416   6.519   7.074                        
   71DVPE   C2B  850   5.449   6.498   6.755                        
   71DVPE   D3B  851   5.419   6.509   6.429                        
   71DVPE   C4B  852   5.427   6.492   6.152                        
   72DVPE   NH3  853   5.182   7.139   7.928                        
   72DVPE   PO4  854   5.202   7.145   7.655                        
   72DVPE   GL1  855   5.177   7.118   7.352                        
   72DVPE   GL2  856   5.273   7.029   7.345                        
   72DVPE   C1A  857   5.201   7.144   7.071                        
   72DVPE   C2A  858   5.205   7.155   6.774                        
   72DVPE   D3A  859   5.176   7.120   6.457                        
   72DVPE   C4A  860   5.195   7.124   6.141                        
   72DVPE   C1B  861   5.331   6.912   7.072                        
   72DVPE   C2B  862   5.292   6.897   6.763                        
   72DVPE   D3B  863   5.289   6.915   6.448                        
   72DVPE   C4B  864   5.314   6.944   6.163                        
   73DVPE   NH3  865   5.215   7.850   7.960                        
   73DVPE   PO4  866   5.203   7.849   7.667                        
   73DVPE   GL1  867   5.232   7.846   7.345                        
   73DVPE   GL2  868   5.255   7.726   7.360                        
   73DVPE   C1A  869   5.212   7.844   7.066                        
   73DVPE   C2A  870   5.213   7.824   6.747                        
   73DVPE   D3A  871   5.215   7.854   6.439                        
   73DVPE   C4A  872   5.225   7.842   6.146                        
   73DVPE   C1B  873   5.312   7.607   7.059                        
   73DVPE   C2B  874   5.318   7.627   6.754                        
   73DVPE   D3B  875   5.344   7.634   6.445                        
   73DVPE   C4B  876   5.340   7.614   6.159                        
   74DVPE   NH3  877   5.374   8.479   7.954                        
   74DVPE   PO4  878   5.361   8.457   7.665                        
   74DVPE   GL1  879   5.362   8.477   7.355                        
   74DVPE   GL2  880   5.267   8.534   7.366                        
   74DVPE   C1A  881   5.372   8.458   7.050                        
   74DVPE   C2A  882   5.363   8.478   6.746                        
   74DVPE   D3A  883   5.371   8.452   6.462                        
   74DVPE   C4A  884   5.370   8.441   6.135                        
   74DVPE   C1B  885   5.144   8.562   7.046                        
   74DVPE   C2B  886   5.132   8.590   6.726                        
   74DVPE   D3B  887   5.122   8.549   6.428                        
   74DVPE   C4B  888   5.162   8.553   6.163                        
   75DVPE   NH3  889   5.379  10.201   7.958                        
   75DVPE   PO4  890   5.395  10.179   7.637                        
   75DVPE   GL1  891   5.354  10.226   7.352                        
   75DVPE   GL2  892   5.274  10.226   7.362                        
   75DVPE   C1A  893   5.365  10.208   7.049                        
   75DVPE   C2A  894   5.347  10.215   6.745                        
   75DVPE   D3A  895   5.357  10.186   6.431                        
   75DVPE   C4A  896   5.397  10.218   6.143                        
   75DVPE   C1B  897   5.145  10.290   7.043                        
   75DVPE   C2B  898   5.154  10.296   6.750                        
   75DVPE   D3B  899   5.115  10.287   6.454                        
   75DVPE   C4B  900   5.152  10.252   6.143                        
   76DVPE   NH3  901   5.266  11.185   7.931                        
   76DVPE   PO4  902   5.281  11.161   7.650                        
   76DVPE   GL1  903   5.272  11.182   7.364                        
   76DVPE   GL2  904   5.247  11.039   7.359                        
   76DVPE   C1A  905   5.285  11.194   7.028                        
   76DVPE   C2A  906   5.255  11.174   6.771                        
   76DVPE   D3A  907   5.286  11.195   6.454                        
   76DVPE   C4A  908   5.250  11.197   6.146                        
   76DVPE   C1B  909   5.258  10.948   7.037                        
   76DVPE   C2B  910   5.243  10.910   6.728                        
   76DVPE   D3B  911   5.245  10.927   6.435                        
   76DVPE   C4B  912   5.269  10.950   6.172                        
   77DVPE   NH3  913   4.948   0.492   7.940                        
   77DVPE   PO4  914   4.948   0.462   7.643                        
   77DVPE   GL1  915   4.938   0.488   7.335                        
   77DVPE   GL2  916   5.031   0.399   7.334                        
   77DVPE   C1A  917   4.957   0.504   7.065                        
   77DVPE   C2A  918   4.962   0.489   6.728                        
   77DVPE   D3A  919   4.954   0.487   6.471                        
   77DVPE   C4A  920   4.971   0.502   6.135                        
   77DVPE   C1B  921   5.128   0.284   7.062                        
   77DVPE   C2B  922   5.142   0.304   6.744                        
   77DVPE   D3B  923   5.125   0.281   6.433                        
   77DVPE   C4B  924   5.108   0.321   6.166                        
   78DVPE   NH3  925   5.217   2.241   7.969                        
   78DVPE   PO4  926   5.233   2.269   7.668                        
   78DVPE   GL1  927   5.205   2.272   7.371                        
   78DVPE   GL2  928   5.273   2.169   7.326                        
   78DVPE   C1A  929   5.200   2.250   7.066                        
   78DVPE   C2A  930   5.232   2.246   6.725                        
   78DVPE   D3A  931   5.192   2.263   6.447                        
   78DVPE   C4A  932   5.224   2.276   6.170                        
   78DVPE   C1B  933   5.365   2.045   7.072                        
   78DVPE   C2B  934   5.345   2.047   6.739                        
   78DVPE   D3B  935   5.368   2.071   6.468                        
   78DVPE   C4B  936   5.328   2.069   6.152                        
   79DVPE   NH3  937   5.273   3.640   7.927                        
   79DVPE   PO4  938   5.273   3.616   7.653                        
   79DVPE   GL1  939   5.283   3.620   7.359                        
   79DVPE   GL2  940   5.296   3.525   7.327                        
   79DVPE   C1A  941   5.288   3.649   7.053                        
   79DVPE   C2A  942   5.280   3.630   6.735                        
   79DVPE   D3A  943   5.263   3.625   6.437                        
   79DVPE   C4A  944   5.259   3.629   6.134                        
   79DVPE   C1B  945   5.349   3.385   7.065                        
   79DVPE   C2B  946   5.358   3.388   6.735                        
   79DVPE   D3B  947   5.350   3.410   6.442                        
   79DVPE   C4B  948   5.370   3.421   6.131                        
   80DVPE   NH3  949   6.092   7.078   7.957                        
   80DVPE   PO4  950   6.086   7.068   7.627                        
   80DVPE   GL1  951   6.121   7.055   7.370                        
   80DVPE   GL2  952   5.961   7.116   7.356                        
   80DVPE   C1A  953   6.112   7.048   7.065                        
   80DVPE   C2A  954   6.123   7.050   6.733                        
   80DVPE   D3A  955   6.117   7.067   6.429                        
   80DVPE   C4A  956   6.122   7.056   6.133                        
   80DVPE   C1B  957   5.841   7.122   7.056                        
   80DVPE   C2B  958   5.862   7.156   6.744                        
   80DVPE   D3B  959   5.864   7.116   6.442                        
   80DVPE   C4B  960   5.858   7.138   6.143                        
   81DVPE   NH3  961   5.865   8.657   7.932                        
   81DVPE   PO4  962   5.833   8.692   7.644                        
   81DVPE   GL1  963   5.852   8.688   7.365                        
   81DVPE   GL2  964   5.952   8.699   7.333                        
   81DVPE   C1A  965   5.842   8.697   7.033                        
   81DVPE   C2A  966   5.831   8.654   6.732                        
   81DVPE   D3A  967   5.858   8.664   6.432                        
   81DVPE   C4A  968   5.854   8.681   6.157                        
   81DVPE   C1B  969   6.071   8.726   7.039                        
   81DVPE   C2B  970   6.106   8.712   6.728                        
   81DVPE   D3B  971   6.113   8.744   6.430                        
   81DVPE   C4B  972   6.090   8.744   6.147                        
   82DVPE   NH3  973   5.994  10.178   7.962                        
   82DVPE   PO4  974   5.974  10.158   7.651                        
   82DVPE   GL1  975   5.948  10.199   7.366                        
   82DVPE   GL2  976   5.993  10.302   7.331                        
   82DVPE   C1A  977   5.972  10.191   7.071                        
   82DVPE   C2A  978   5.967  10.172   6.761                        
   82DVPE   D3A  979   5.950  10.156   6.436                        
   82DVPE   C4A  980   5.993  10.177   6.170                        
   82DVPE   C1B  981   5.988  10.450   7.054                        
   82DVPE   C2B  982   5.981  10.404   6.759                        
   82DVPE   D3B  983   5.977  10.417   6.451                        
   82DVPE   C4B  984   5.953  10.404   6.167                        
   83DVPE   NH3  985   5.973  11.220   7.952                        
   83DVPE   PO4  986   5.944  11.231   7.650                        
   83DVPE   GL1  987   5.940  11.225   7.343                        
   83DVPE   GL2  988   5.959  11.122   7.369                        
   83DVPE   C1A  989   5.982  11.214   7.066                        
   83DVPE   C2A  990   5.977  11.202   6.729                        
   83DVPE   D3A  991   5.975  11.232   6.459                        
   83DVPE   C4A  992   5.959  11.247   6.145                        
   83DVPE   C1B  993   6.006  10.986   7.071                        
   83DVPE   C2B  994   5.969  10.969   6.761                        
   83DVPE   D3B  995   5.997  10.959   6.468                        
   83DVPE   C4B  996   6.002  10.975   6.162                        
   84DVPE   NH3  997   5.951  13.462   7.971                        
   84DVPE   PO4  998   5.980  13.459   7.671                        
   84DVPE   GL1  999   5.981  13.458   7.331                        
   84DVPE   GL2 1000   5.986  13.579   7.362                        
   84DVPE   C1A 1001   5.982  13.446   7.033                        
   84DVPE   C2A 1002   5.961  13.444   6.747                        
   84DVPE   D3A 1003   5.949  13.451   6.432                        
   84DVPE   C4A 1004   5.976  13.453   6.161                        
   84DVPE   C1B 1005   6.028  13.695   7.047                        
   84DVPE   C2B 1006   6.028  13.713   6.758                        
   84DVPE   D3B 1007   6.022  13.680   6.453                        
   84DVPE   C4B 1008   6.006  13.716   6.144                        
   85DVPE   NH3 1009   5.534   1.750   7.948                        
   85DVPE   PO4 1010   5.551   1.744   7.668                        
   85DVPE   GL1 1011   5.550   1.734   7.362                        
   85DVPE   GL2 1012   5.600   1.642   7.329                        
   85DVPE   C1A 1013   5.529   1.757   7.050                        
   85DVPE   C2A 1014   5.526   1.755   6.767                        
   85DVPE   D3A 1015   5.559   1.767   6.427                        
   85DVPE   C4A 1016   5.536   1.736   6.156                        
   85DVPE   C1B 1017   5.669   1.529   7.062                        
   85DVPE   C2B 1018   5.667   1.558   6.774                        
   85DVPE   D3B 1019   5.698   1.525   6.444                        
   85DVPE   C4B 1020   5.689   1.541   6.150                        
   86DVPE   NH3 1021   5.747   2.700   7.957                        
   86DVPE   PO4 1022   5.760   2.671   7.628                        
   86DVPE   GL1 1023   5.773   2.665   7.351                        
   86DVPE   GL2 1024   5.795   2.559   7.343                        
   86DVPE   C1A 1025   5.738   2.701   7.054                        
   86DVPE   C2A 1026   5.743   2.708   6.736                        
   86DVPE   D3A 1027   5.756   2.683   6.446                        
   86DVPE   C4A 1028   5.769   2.690   6.154                        
   86DVPE   C1B 1029   5.875   2.473   7.072                        
   86DVPE   C2B 1030   5.883   2.473   6.768                        
   86DVPE   D3B 1031   5.868   2.451   6.431                        
   86DVPE   C4B 1032   5.878   2.466   6.164                        
   87DVPE   NH3 1033   5.956   3.271   7.971                        
   87DVPE   PO4 1034   5.922   3.286   7.630                        
   87DVPE   GL1 1035   5.947   3.307   7.367                        
   87DVPE   GL2 1036   5.999   3.412   7.333                        
   87DVPE   C1A 1037   5.922   3.307   7.026                        
   87DVPE   C2A 1038   5.932   3.301   6.737                        
   87DVPE   D3A 1039   5.942   3.294   6.444                        
   87DVPE   C4A 1040   5.928   3.285   6.148                        
   87DVPE   C1B 1041   6.058   3.473   7.050                        
   87DVPE   C2B 1042   6.071   3.510   6.739                        
   87DVPE   D3B 1043   6.054   3.500   6.431                        
   87DVPE   C4B 1044   6.075   3.489   6.144                        
   88DVPE   NH3 1045   6.363   2.574   7.956                        
   88DVPE   PO4 1046   6.377   2.574   7.666                        
   88DVPE   GL1 1047   6.368   2.550   7.360                        
   88DVPE   GL2 1048   6.371   2.453   7.330                        
   88DVPE   C1A 1049   6.359   2.555   7.033                        
   88DVPE   C2A 1050   6.350   2.551   6.764                        
   88DVPE   D3A 1051   6.367   2.565   6.444                        
   88DVPE   C4A 1052   6.351   2.566   6.132                        
   88DVPE   C1B 1053   6.365   2.330   7.052                        
   88DVPE   C2B 1054   6.342   2.342   6.741                        
   88DVPE   D3B 1055   6.343   2.342   6.441                        
   88DVPE   C4B 1056   6.359   2.341   6.130                        
   89DVPE   NH3 1057   6.595   3.506   7.927                        
   89DVPE   PO4 1058   6.600   3.544   7.672                        
   89DVPE   GL1 1059   6.586   3.518   7.335                        
   89DVPE   GL2 1060   6.689   3.616   7.361                        
   89DVPE   C1A 1061   6.582   3.547   7.070                        
   89DVPE   C2A 1062   6.568   3.505   6.770                        
   89DVPE   D3A 1063   6.581   3.547   6.427                        
   89DVPE   C4A 1064   6.568   3.509   6.168                        
   89DVPE   C1B 1065   6.765   3.718   7.059                        
   89DVPE   C2B 1066   6.788   3.716   6.761                        
   89DVPE   D3B 1067   6.752   3.683   6.437                        
   89DVPE   C4B 1068   6.749   3.703   6.149                        
   90DVPE   NH3 1069   6.718   7.550   7.965                        
   90DVPE   PO4 1070   6.719   7.545   7.663                        
   90DVPE   GL1 1071   6.714   7.536   7.333                        
   90DVPE   GL2 1072   6.616   7.483   7.355                        
   90DVPE   C1A 1073   6.718   7.534   7.053                        
   90DVPE   C2A 1074   6.729   7.548   6.736                        
   90DVPE   D3A 1075   6.712   7.551   6.455                        
   90DVPE   C4A 1076   6.757   7.504   6.132                        
   90DVPE   C1B 1077   6.545   7.387   7.058                        
   90DVPE   C2B 1078   6.547   7.421   6.755                        
   90DVPE   D3B 1079   6.537   7.392   6.457                        
   90DVPE   C4B 1080   6.544   7.419   6.158                        
   91DVPE   NH3 1081   6.523   8.193   7.966                        
   91DVPE   PO4 1082   6.548   8.213   7.673                        
   91DVPE   GL1 1083   6.542   8.182   7.334                        
   91DVPE   GL2 1084   6.669   8.208   7.347                        
   91DVPE   C1A 1085   6.524   8.201   7.045                        
   91DVPE   C2A 1086   6.526   8.203   6.741                        
   91DVPE   D3A 1087   6.558   8.181   6.449                        
   91DVPE   C4A 1088   6.555   8.168   6.161                        
   91DVPE   C1B 1089   6.804   8.231   7.044                        
   91DVPE   C2B 1090   6.777   8.254   6.760                        
   91DVPE   D3B 1091   6.783   8.256   6.460                        
   91DVPE   C4B 1092   6.765   8.249   6.151                        
   92DVPE   NH3 1093   6.782   8.930   7.967                        
   92DVPE   PO4 1094   6.779   8.967   7.651                        
   92DVPE   GL1 1095   6.787   8.939   7.368                        
   92DVPE   GL2 1096   6.683   8.979   7.343                        
   92DVPE   C1A 1097   6.777   8.968   7.052                        
   92DVPE   C2A 1098   6.773   8.946   6.748                        
   92DVPE   D3A 1099   6.802   8.970   6.457                        
   92DVPE   C4A 1100   6.798   8.939   6.130                        
   92DVPE   C1B 1101   6.549   9.008   7.033                        
   92DVPE   C2B 1102   6.544   9.011   6.735                        
   92DVPE   D3B 1103   6.558   9.007   6.455                        
   92DVPE   C4B 1104   6.550   8.998   6.163                        
   93DVPE   NH3 1105   6.753   9.837   7.934                        
   93DVPE   PO4 1106   6.761   9.811   7.632                        
   93DVPE   GL1 1107   6.738   9.809   7.328                        
   93DVPE   GL2 1108   6.680   9.736   7.361                        
   93DVPE   C1A 1109   6.781   9.821   7.041                        
   93DVPE   C2A 1110   6.757   9.842   6.765                        
   93DVPE   D3A 1111   6.766   9.814   6.428                        
   93DVPE   C4A 1112   6.764   9.837   6.145                        
   93DVPE   C1B 1113   6.601   9.645   7.050                        
   93DVPE   C2B 1114   6.569   9.673   6.759                        
   93DVPE   D3B 1115   6.608   9.641   6.451                        
   93DVPE   C4B 1116   6.564   9.662   6.165                        
   94DVPE   NH3 1117   6.584  10.627   7.939                        
   94DVPE   PO4 1118   6.599  10.651   7.654                        
   94DVPE   GL1 1119   6.617  10.643   7.343                        
   94DVPE   GL2 1120   6.677  10.509   7.353                        
   94DVPE   C1A 1121   6.593  10.637   7.051                        
   94DVPE   C2A 1122   6.607  10.632   6.770                        
   94DVPE   D3A 1123   6.592  10.632   6.429                        
   94DVPE   C4A 1124   6.591  10.627   6.129                        
   94DVPE   C1B 1125   6.736  10.424   7.064                        
   94DVPE   C2B 1126   6.696  10.384   6.762                        
   94DVPE   D3B 1127   6.731  10.427   6.456                        
   94DVPE   C4B 1128   6.692  10.409   6.143                        
   95DVPE   NH3 1129   7.631   4.340   7.973                        
   95DVPE   PO4 1130   7.601   4.350   7.641                        
   95DVPE   GL1 1131   7.630   4.334   7.371                        
   95DVPE   GL2 1132   7.483   4.330   7.359                        
   95DVPE   C1A 1133   7.622   4.313   7.043                        
   95DVPE   C2A 1134   7.633   4.333   6.737                        
   95DVPE   D3A 1135   7.639   4.306   6.425                        
   95DVPE   C4A 1136   7.609   4.320   6.153                        
   95DVPE   C1B 1137   7.380   4.358   7.057                        
   95DVPE   C2B 1138   7.356   4.354   6.768                        
   95DVPE   D3B 1139   7.383   4.354   6.462                        
   95DVPE   C4B 1140   7.367   4.353   6.147                        
   96DVPE   NH3 1141   7.264   5.061   7.962                        
   96DVPE   PO4 1142   7.265   5.059   7.649                        
   96DVPE   GL1 1143   7.293   5.034   7.350                        
   96DVPE   GL2 1144   7.396   5.054   7.357                        
   96DVPE   C1A 1145   7.250   5.034   7.034                        
   96DVPE   C2A 1146   7.252   5.039   6.755                        
   96DVPE   D3A 1147   7.262   5.026   6.430                        
   96DVPE   C4A 1148   7.245   5.049   6.163                        
   96DVPE   C1B 1149   7.516   5.114   7.073                        
   96DVPE   C2B 1150   7.529   5.122   6.772                        
   96DVPE   D3B 1151   7.491   5.112   6.474                        
   96DVPE   C4B 1152   7.524   5.098   6.158                        
   97DVPE   NH3 1153   7.328   5.759   7.943                        
   97DVPE   PO4 1154   7.328   5.771   7.638                        
   97DVPE   GL1 1155   7.358   5.743   7.337                        
   97DVPE   GL2 1156   7.420   5.820   7.366                        
   97DVPE   C1A 1157   7.336   5.749   7.027                        
   97DVPE   C2A 1158   7.361   5.741   6.752                        
   97DVPE   D3A 1159   7.321   5.768   6.464                        
   97DVPE   C4A 1160   7.352   5.755   6.130                        
   97DVPE   C1B 1161   7.518   5.905   7.051                        
   97DVPE   C2B 1162   7.520   5.906   6.725                        
   97DVPE   D3B 1163   7.528   5.929   6.431                        
   97DVPE   C4B 1164   7.516   5.900   6.135                        
   98DVPE   NH3 1165   7.328   6.746   7.959                        
   98DVPE   PO4 1166   7.339   6.737   7.667                        
   98DVPE   GL1 1167   7.332   6.754   7.339                        
   98DVPE   GL2 1168   7.338   6.611   7.327                        
   98DVPE   C1A 1169   7.323   6.762   7.072                        
   98DVPE   C2A 1170   7.312   6.760   6.726                        
   98DVPE   D3A 1171   7.315   6.738   6.459                        
   98DVPE   C4A 1172   7.348   6.745   6.160                        
   98DVPE   C1B 1173   7.398   6.498   7.050                        
   98DVPE   C2B 1174   7.397   6.488   6.759                        
   98DVPE   D3B 1175   7.385   6.512   6.468                        
   98DVPE   C4B 1176   7.375   6.489   6.137                        
   99DVPE   NH3 1177   7.345   9.861   7.943                        
   99DVPE   PO4 1178   7.348   9.858   7.644                        
   99DVPE   GL1 1179   7.338   9.872   7.347                        
   99DVPE   GL2 1180   7.404   9.777   7.338                        
   99DVPE   C1A 1181   7.343   9.863   7.039                        
   99DVPE   C2A 1182   7.334   9.890   6.740                        
   99DVPE   D3A 1183   7.340   9.890   6.429                        
   99DVPE   C4A 1184   7.333   9.856   6.141                        
   99DVPE   C1B 1185   7.461   9.685   7.071                        
   99DVPE   C2B 1186   7.459   9.641   6.741                        
   99DVPE   D3B 1187   7.457   9.642   6.450                        
   99DVPE   C4B 1188   7.486   9.665   6.137                        
  100DVPE   NH3 1189   7.303  11.333   7.968                        
  100DVPE   PO4 1190   7.313  11.367   7.662                        
  100DVPE   GL1 1191   7.326  11.331   7.362                        
  100DVPE   GL2 1192   7.361  11.222   7.364                        
  100DVPE   C1A 1193   7.319  11.365   7.032                        
  100DVPE   C2A 1194   7.294  11.346   6.771                        
  100DVPE   D3A 1195   7.325  11.358   6.449                        
  100DVPE   C4A 1196   7.302  11.329   6.133                        
  100DVPE   C1B 1197   7.389  11.114   7.043                        
  100DVPE   C2B 1198   7.416  11.130   6.774                        
  100DVPE   D3B 1199   7.395  11.133   6.448                        
  100DVPE   C4B 1200   7.367  11.111   6.165                        
  101DVPE   NH3 1201   8.100   3.717   7.963                        
  101DVPE   PO4 1202   8.105   3.696   7.669                        
  101DVPE   GL1 1203   8.098   3.709   7.373                        
  101DVPE   GL2 1204   8.047   3.841   7.348                        
  101DVPE   C1A 1205   8.096   3.703   7.074                        
  101DVPE   C2A 1206   8.125   3.718   6.727                        
  101DVPE   D3A 1207   8.115   3.729   6.474                        
  101DVPE   C4A 1208   8.116   3.694   6.164                        
  101DVPE   C1B 1209   8.039   3.940   7.031                        
  101DVPE   C2B 1210   8.024   3.945   6.750                        
  101DVPE   D3B 1211   8.012   3.940   6.447                        
  101DVPE   C4B 1212   8.002   3.950   6.149                        
  102DVPE   NH3 1213   8.149   6.116   7.971                        
  102DVPE   PO4 1214   8.147   6.131   7.664                        
  102DVPE   GL1 1215   8.137   6.114   7.370                        
  102DVPE   GL2 1216   8.067   6.215   7.351                        
  102DVPE   C1A 1217   8.160   6.139   7.054                        
  102DVPE   C2A 1218   8.164   6.124   6.769                        
  102DVPE   D3A 1219   8.141   6.144   6.444                        
  102DVPE   C4A 1220   8.126   6.116   6.174                        
  102DVPE   C1B 1221   7.972   6.302   7.048                        
  102DVPE   C2B 1222   7.962   6.292   6.747                        
  102DVPE   D3B 1223   7.966   6.299   6.463                        
  102DVPE   C4B 1224   7.963   6.266   6.132                        
  103DVPE   NH3 1225   8.142   8.578   7.970                        
  103DVPE   PO4 1226   8.148   8.583   7.636                        
  103DVPE   GL1 1227   8.169   8.612   7.326                        
  103DVPE   GL2 1228   8.029   8.550   7.330                        
  103DVPE   C1A 1229   8.127   8.602   7.038                        
  103DVPE   C2A 1230   8.167   8.612   6.754                        
  103DVPE   D3A 1231   8.151   8.594   6.434                        
  103DVPE   C4A 1232   8.138   8.616   6.168                        
  103DVPE   C1B 1233   7.911   8.528   7.064                        
  103DVPE   C2B 1234   7.889   8.494   6.756                        
  103DVPE   D3B 1235   7.919   8.527   6.466                        
  103DVPE   C4B 1236   7.893   8.501   6.131                        
  104DVPE   NH3 1237   8.057  10.280   7.940                        
  104DVPE   PO4 1238   8.066  10.278   7.641                        
  104DVPE   GL1 1239   8.092  10.247   7.354                        
  104DVPE   GL2 1240   8.037  10.145   7.334                        
  104DVPE   C1A 1241   8.081  10.283   7.038                        
  104DVPE   C2A 1242   8.072  10.260   6.756                        
  104DVPE   D3A 1243   8.061  10.272   6.463                        
  104DVPE   C4A 1244   8.068  10.248   6.133                        
  104DVPE   C1B 1245   7.936  10.041   7.067                        
  104DVPE   C2B 1246   7.938  10.035   6.756                        
  104DVPE   D3B 1247   7.967  10.046   6.451                        
  104DVPE   C4B 1248   7.957  10.048   6.152                        
  105DVPE   NH3 1249   7.884  11.756   7.945                        
  105DVPE   PO4 1250   7.889  11.772   7.673                        
  105DVPE   GL1 1251   7.878  11.786   7.367                        
  105DVPE   GL2 1252   7.860  11.678   7.331                        
  105DVPE   C1A 1253   7.891  11.760   7.062                        
  105DVPE   C2A 1254   7.897  11.789   6.746                        
  105DVPE   D3A 1255   7.884  11.766   6.469                        
  105DVPE   C4A 1256   7.921  11.767   6.147                        
  105DVPE   C1B 1257   7.851  11.513   7.071                        
  105DVPE   C2B 1258   7.853  11.535   6.738                        
  105DVPE   D3B 1259   7.868  11.513   6.458                        
  105DVPE   C4B 1260   7.848  11.528   6.155                        
  106DVPE   NH3 1261   7.711  12.380   7.963                        
  106DVPE   PO4 1262   7.743  12.350   7.659                        
  106DVPE   GL1 1263   7.745  12.364   7.366                        
  106DVPE   GL2 1264   7.609  12.385   7.348                        
  106DVPE   C1A 1265   7.729  12.346   7.043                        
  106DVPE   C2A 1266   7.725  12.377   6.749                        
  106DVPE   D3A 1267   7.729  12.384   6.445                        
  106DVPE   C4A 1268   7.706  12.379   6.171                        
  106DVPE   C1B 1269   7.492  12.410   7.056                        
  106DVPE   C2B 1270   7.503  12.382   6.742                        
  106DVPE   D3B 1271   7.471  12.392   6.456                        
  106DVPE   C4B 1272   7.495  12.399   6.174                        
  107DVPE   NH3 1273   8.734   0.276   7.947                        
  107DVPE   PO4 1274   8.730   0.312   7.640                        
  107DVPE   GL1 1275   8.733   0.292   7.357                        
  107DVPE   GL2 1276   8.614   0.398   7.341                        
  107DVPE   C1A 1277   8.727   0.281   7.030                        
  107DVPE   C2A 1278   8.696   0.281   6.726                        
  107DVPE   D3A 1279   8.721   0.275   6.473                        
  107DVPE   C4A 1280   8.699   0.305   6.156                        
  107DVPE   C1B 1281   8.539   0.443   7.059                        
  107DVPE   C2B 1282   8.546   0.447   6.764                        
  107DVPE   D3B 1283   8.513   0.450   6.459                        
  107DVPE   C4B 1284   8.539   0.484   6.155                        
  108DVPE   NH3 1285   8.723   2.617   7.952                        
  108DVPE   PO4 1286   8.719   2.590   7.635                        
  108DVPE   GL1 1287   8.717   2.595   7.335                        
  108DVPE   GL2 1288   8.722   2.715   7.329                        
  108DVPE   C1A 1289   8.746   2.590   7.065                        
  108DVPE   C2A 1290   8.714   2.605   6.768                        
  108DVPE   D3A 1291   8.745   2.592   6.463                        
  108DVPE   C4A 1292   8.731   2.631   6.141                        
  108DVPE   C1B 1293   8.734   2.877   7.025                        
  108DVPE   C2B 1294   8.727   2.851   6.763                        
  108DVPE   D3B 1295   8.720   2.885   6.434                        
  108DVPE   C4B 1296   8.719   2.838   6.129                        
  109DVPE   NH3 1297   8.788   4.227   7.940                        
  109DVPE   PO4 1298   8.783   4.257   7.667                        
  109DVPE   GL1 1299   8.786   4.248   7.351                        
  109DVPE   GL2 1300   8.691   4.211   7.369                        
  109DVPE   C1A 1301   8.798   4.241   7.056                        
  109DVPE   C2A 1302   8.795   4.242   6.727                        
  109DVPE   D3A 1303   8.789   4.267   6.461                        
  109DVPE   C4A 1304   8.818   4.255   6.173                        
  109DVPE   C1B 1305   8.551   4.170   7.025                        
  109DVPE   C2B 1306   8.571   4.201   6.730                        
  109DVPE   D3B 1307   8.540   4.202   6.427                        
  109DVPE   C4B 1308   8.550   4.183   6.159                        
  110DVPE   NH3 1309   8.530   5.871   7.968                        
  110DVPE   PO4 1310   8.560   5.835   7.661                        
  110DVPE   GL1 1311   8.532   5.835   7.354                        
  110DVPE   GL2 1312   8.657   5.797   7.361                        
  110DVPE   C1A 1313   8.552   5.835   7.030                        
  110DVPE   C2A 1314   8.524   5.874   6.726                        
  110DVPE   D3A 1315   8.545   5.872   6.471                        
  110DVPE   C4A 1316   8.559   5.859   6.173                        
  110DVPE   C1B 1317   8.766   5.723   7.054                        
  110DVPE   C2B 1318   8.732   5.688   6.759                        
  110DVPE   D3B 1319   8.735   5.698   6.463                        
  110DVPE   C4B 1320   8.771   5.696   6.147                        
  111DVPE   NH3 1321   8.728   6.493   7.971                        
  111DVPE   PO4 1322   8.753   6.474   7.647                        
  111DVPE   GL1 1323   8.747   6.503   7.342                        
  111DVPE   GL2 1324   8.651   6.587   7.342                        
  111DVPE   C1A 1325   8.738   6.511   7.066                        
  111DVPE   C2A 1326   8.747   6.514   6.742                        
  111DVPE   D3A 1327   8.765   6.505   6.430                        
  111DVPE   C4A 1328   8.745   6.498   6.159                        
  111DVPE   C1B 1329   8.613   6.676   7.054                        
  111DVPE   C2B 1330   8.609   6.672   6.734                        
  111DVPE   D3B 1331   8.574   6.706   6.446                        
  111DVPE   C4B 1332   8.568   6.712   6.170                        
  112DVPE   NH3 1333   8.535   7.319   7.955                        
  112DVPE   PO4 1334   8.513   7.310   7.662                        
  112DVPE   GL1 1335   8.524   7.298   7.369                        
  112DVPE   GL2 1336   8.668   7.340   7.350                        
  112DVPE   C1A 1337   8.517   7.301   7.043                        
  112DVPE   C2A 1338   8.533   7.345   6.762                        
  112DVPE   D3A 1339   8.502   7.313   6.468                        
  112DVPE   C4A 1340   8.538   7.337   6.135                        
  112DVPE   C1B 1341   8.779   7.369   7.041                        
  112DVPE   C2B 1342   8.753   7.357   6.752                        
  112DVPE   D3B 1343   8.761   7.396   6.444                        
  112DVPE   C4B 1344   8.752   7.351   6.148                        
  113DVPE   NH3 1345   8.690   8.265   7.951                        
  113DVPE   PO4 1346   8.699   8.265   7.666                        
  113DVPE   GL1 1347   8.705   8.276   7.358                        
  113DVPE   GL2 1348   8.649   8.142   7.336                        
  113DVPE   C1A 1349   8.708   8.237   7.044                        
  113DVPE   C2A 1350   8.723   8.248   6.752                        
  113DVPE   D3A 1351   8.724   8.243   6.448                        
  113DVPE   C4A 1352   8.701   8.272   6.131                        
  113DVPE   C1B 1353   8.589   8.049   7.032                        
  113DVPE   C2B 1354   8.593   8.053   6.744                        
  113DVPE   D3B 1355   8.589   8.035   6.455                        
  113DVPE   C4B 1356   8.577   8.024   6.128                        
  114DVPE   NH3 1357   8.643   8.762   7.968                        
  114DVPE   PO4 1358   8.662   8.767   7.660                        
  114DVPE   GL1 1359   8.632   8.757   7.340                        
  114DVPE   GL2 1360   8.672   8.884   7.342                        
  114DVPE   C1A 1361   8.647   8.759   7.060                        
  114DVPE   C2A 1362   8.643   8.755   6.761                        
  114DVPE   D3A 1363   8.654   8.795   6.443                        
  114DVPE   C4A 1364   8.651   8.787   6.174                        
  114DVPE   C1B 1365   8.695   9.007   7.066                        
  114DVPE   C2B 1366   8.688   9.015   6.729                        
  114DVPE   D3B 1367   8.721   9.041   6.458                        
  114DVPE   C4B 1368   8.727   9.008   6.131                        
  115DVPE   NH3 1369   8.619  10.245   7.963                        
  115DVPE   PO4 1370   8.583  10.267   7.670                        
  115DVPE   GL1 1371   8.615  10.260   7.342                        
  115DVPE   GL2 1372   8.710  10.348   7.359                        
  115DVPE   C1A 1373   8.588  10.247   7.046                        
  115DVPE   C2A 1374   8.594  10.251   6.737                        
  115DVPE   D3A 1375   8.596  10.265   6.435                        
  115DVPE   C4A 1376   8.573  10.267   6.163                        
  115DVPE   C1B 1377   8.779  10.412   7.054                        
  115DVPE   C2B 1378   8.816  10.411   6.768                        
  115DVPE   D3B 1379   8.785  10.390   6.441                        
  115DVPE   C4B 1380   8.803  10.409   6.140                        
  116DVPE   NH3 1381   8.786  11.100   7.948                        
  116DVPE   PO4 1382   8.787  11.115   7.675                        
  116DVPE   GL1 1383   8.768  11.089   7.344                        
  116DVPE   GL2 1384   8.775  10.999   7.369                        
  116DVPE   C1A 1385   8.798  11.073   7.074                        
  116DVPE   C2A 1386   8.799  11.117   6.742                        
  116DVPE   D3A 1387   8.789  11.083   6.461                        
  116DVPE   C4A 1388   8.765  11.114   6.140                        
  116DVPE   C1B 1389   8.727  10.874   7.070                        
  116DVPE   C2B 1390   8.726  10.838   6.769                        
  116DVPE   D3B 1391   8.724  10.838   6.460                        
  116DVPE   C4B 1392   8.743  10.868   6.130                        
  117DVPE   NH3 1393   9.521   1.875   7.936                        
  117DVPE   PO4 1394   9.543   1.867   7.651                        
  117DVPE   GL1 1395   9.535   1.874   7.357                        
  117DVPE   GL2 1396   9.431   1.975   7.335                        
  117DVPE   C1A 1397   9.537   1.865   7.061                        
  117DVPE   C2A 1398   9.526   1.856   6.763                        
  117DVPE   D3A 1399   9.517   1.847   6.435                        
  117DVPE   C4A 1400   9.498   1.882   6.170                        
  117DVPE   C1B 1401   9.357   2.082   7.052                        
  117DVPE   C2B 1402   9.375   2.080   6.736                        
  117DVPE   D3B 1403   9.385   2.043   6.453                        
  117DVPE   C4B 1404   9.372   2.042   6.173                        
  118DVPE   NH3 1405   9.451   4.158   7.929                        
  118DVPE   PO4 1406   9.426   4.173   7.633                        
  118DVPE   GL1 1407   9.439   4.198   7.374                        
  118DVPE   GL2 1408   9.377   4.288   7.371                        
  118DVPE   C1A 1409   9.451   4.158   7.059                        
  118DVPE   C2A 1410   9.460   4.178   6.751                        
  118DVPE   D3A 1411   9.417   4.195   6.442                        
  118DVPE   C4A 1412   9.417   4.195   6.141                        
  118DVPE   C1B 1413   9.322   4.395   7.050                        
  118DVPE   C2B 1414   9.322   4.396   6.753                        
  118DVPE   D3B 1415   9.325   4.401   6.432                        
  118DVPE   C4B 1416   9.327   4.390   6.166                        
  119DVPE   NH3 1417   9.423   5.162   7.954                        
  119DVPE   PO4 1418   9.412   5.177   7.659                        
  119DVPE   GL1 1419   9.420   5.169   7.373                        
  119DVPE   GL2 1420   9.374   5.071   7.343                        
  119DVPE   C1A 1421   9.406   5.181   7.047                        
  119DVPE   C2A 1422   9.446   5.192   6.732                        
  119DVPE   D3A 1423   9.406   5.149   6.442                        
  119DVPE   C4A 1424   9.428   5.192   6.162                        
  119DVPE   C1B 1425   9.277   4.945   7.059                        
  119DVPE   C2B 1426   9.275   4.948   6.729                        
  119DVPE   D3B 1427   9.294   4.974   6.452                        
  119DVPE   C4B 1428   9.288   4.986   6.147                        
  120DVPE   NH3 1429   9.328   8.012   7.958                        
  120DVPE   PO4 1430   9.371   8.008   7.628                        
  120DVPE   GL1 1431   9.335   7.984   7.347                        
  120DVPE   GL2 1432   9.377   8.109   7.375                        
  120DVPE   C1A 1433   9.345   7.999   7.046                        
  120DVPE   C2A 1434   9.341   8.018   6.752                        
  120DVPE   D3A 1435   9.370   7.989   6.460                        
  120DVPE   C4A 1436   9.358   7.989   6.171                        
  120DVPE   C1B 1437   9.408   8.253   7.037                        
  120DVPE   C2B 1438   9.413   8.225   6.735                        
  120DVPE   D3B 1439   9.386   8.234   6.427                        
  120DVPE   C4B 1440   9.391   8.236   6.152                        
  121DVPE   NH3 1441   9.504   8.851   7.957                        
  121DVPE   PO4 1442   9.491   8.854   7.644                        
  121DVPE   GL1 1443   9.519   8.864   7.351                        
  121DVPE   GL2 1444   9.415   8.910   7.368                        
  121DVPE   C1A 1445   9.504   8.851   7.053                        
  121DVPE   C2A 1446   9.478   8.869   6.756                        
  121DVPE   D3A 1447   9.499   8.847   6.433                        
  121DVPE   C4A 1448   9.496   8.840   6.164                        
  121DVPE   C1B 1449   9.318   8.994   7.070                        
  121DVPE   C2B 1450   9.316   8.979   6.770                        
  121DVPE   D3B 1451   9.283   9.005   6.428                        
  121DVPE   C4B 1452   9.286   9.003   6.131                        
  122DVPE   NH3 1453   9.473  10.243   7.927                        
  122DVPE   PO4 1454   9.480  10.258   7.672                        
  122DVPE   GL1 1455   9.434  10.236   7.352                        
  122DVPE   GL2 1456   9.436  10.379   7.342                        
  122DVPE   C1A 1457   9.449  10.273   7.027                        
  122DVPE   C2A 1458   9.483  10.258   6.744                        
  122DVPE   D3A 1459   9.452  10.283   6.453                        
  122DVPE   C4A 1460   9.464  10.278   6.131                        
  122DVPE   C1B 1461   9.366  10.504   7.065                        
  122DVPE   C2B 1462   9.372  10.504   6.744                        
  122DVPE   D3B 1463   9.363  10.501   6.430                        
  122DVPE   C4B 1464   9.365  10.482   6.170                        
  123DVPE   NH3 1465   9.302  11.123   7.968                        
  123DVPE   PO4 1466   9.298  11.103   7.644                        
  123DVPE   GL1 1467   9.312  11.136   7.342                        
  123DVPE   GL2 1468   9.414  11.018   7.357                        
  123DVPE   C1A 1469   9.303  11.124   7.057                        
  123DVPE   C2A 1470   9.296  11.131   6.743                        
  123DVPE   D3A 1471   9.321  11.112   6.464                        
  123DVPE   C4A 1472   9.301  11.141   6.151                        
  123DVPE   C1B 1473   9.517  10.944   7.065                        
  123DVPE   C2B 1474   9.499  10.954   6.742                        
  123DVPE   D3B 1475   9.520  10.958   6.448                        
  123DVPE   C4B 1476   9.525  10.957   6.152                        
  124DVPE   NH3 1477   9.681  11.468   7.932                        
  124DVPE   PO4 1478   9.647  11.441   7.673                        
  124DVPE   GL1 1479   9.657  11.460   7.333                        
  124DVPE   GL2 1480   9.712  11.595   7.328                        
  124DVPE   C1A 1481   9.686  11.450   7.062                        
  124DVPE   C2A 1482   9.655  11.439   6.730                        
  124DVPE   D3A 1483   9.649  11.468   6.456                        
  124DVPE   C4A 1484   9.673  11.447   6.137                        
  124DVPE   C1B 1485   9.737  11.705   7.055                        
  124DVPE   C2B 1486   9.727  11.693   6.734                        
  124DVPE   D3B 1487   9.699  11.716   6.442                        
  124DVPE   C4B 1488   9.694  11.700   6.164                        
  125DVPE   NH3 1489   9.970   1.231   7.965                        
  125DVPE   PO4 1490   9.967   1.227   7.663                        
  125DVPE   GL1 1491   9.936   1.208   7.370                        
  125DVPE   GL2 1492  10.092   1.222   7.361                        
  125DVPE   C1A 1493   9.969   1.219   7.048                        
  125DVPE   C2A 1494   9.937   1.247   6.752                        
  125DVPE   D3A 1495   9.980   1.218   6.432                        
  125DVPE   C4A 1496   9.979   1.230   6.138                        
  125DVPE   C1B 1497  10.222   1.184   7.068                        
  125DVPE   C2B 1498  10.214   1.160   6.751                        
  125DVPE   D3B 1499  10.222   1.179   6.468                        
  125DVPE   C4B 1500  10.179   1.165   6.171                        
  126DVPE   NH3 1501  10.043   2.036   7.943                        
  126DVPE   PO4 1502  10.018   2.052   7.658                        
  126DVPE   GL1 1503  10.043   2.062   7.352                        
  126DVPE   GL2 1504  10.050   1.957   7.338                        
  126DVPE   C1A 1505  10.047   2.035   7.064                        
  126DVPE   C2A 1506  10.050   2.071   6.769                        
  126DVPE   D3A 1507  10.011   2.076   6.472                        
  126DVPE   C4A 1508  10.007   2.075   6.165                        
  126DVPE   C1B 1509  10.125   1.818   7.043                        
  126DVPE   C2B 1510  10.108   1.816   6.764                        
  126DVPE   D3B 1511  10.145   1.836   6.439                        
  126DVPE   C4B 1512  10.113   1.810   6.171                        
  127DVPE   NH3 1513  10.181   4.215   7.949                        
  127DVPE   PO4 1514  10.173   4.253   7.626                        
  127DVPE   GL1 1515  10.157   4.255   7.331                        
  127DVPE   GL2 1516  10.088   4.290   7.366                        
  127DVPE   C1A 1517  10.169   4.222   7.026                        
  127DVPE   C2A 1518  10.162   4.254   6.764                        
  127DVPE   D3A 1519  10.177   4.224   6.462                        
  127DVPE   C4A 1520  10.202   4.228   6.130                        
  127DVPE   C1B 1521   9.974   4.343   7.062                        
  127DVPE   C2B 1522   9.965   4.331   6.761                        
  127DVPE   D3B 1523   9.959   4.365   6.468                        
  127DVPE   C4B 1524   9.973   4.323   6.135                        
  128DVPE   NH3 1525  10.128   4.999   7.949                        
  128DVPE   PO4 1526  10.149   4.998   7.656                        
  128DVPE   GL1 1527  10.124   4.975   7.341                        
  128DVPE   GL2 1528  10.034   5.029   7.375                        
  128DVPE   C1A 1529  10.149   4.955   7.047                        
  128DVPE   C2A 1530  10.132   4.968   6.742                        
  128DVPE   D3A 1531  10.131   4.982   6.426                        
  128DVPE   C4A 1532  10.160   4.964   6.148                        
  128DVPE   C1B 1533   9.913   5.106   7.055                        
  128DVPE   C2B 1534   9.941   5.077   6.762                        
  128DVPE   D3B 1535   9.936   5.075   6.471                        
  128DVPE   C4B 1536   9.943   5.072   6.128                        
  129DVPE   NH3 1537   9.970   8.897   7.961                        
  129DVPE   PO4 1538  10.009   8.941   7.651                        
  129DVPE   GL1 1539  10.003   8.919   7.352                        
  129DVPE   GL2 1540  10.132   8.964   7.328                        
  129DVPE   C1A 1541   9.984   8.920   7.037                        
  129DVPE   C2A 1542   9.973   8.936   6.743                        
  129DVPE   D3A 1543   9.998   8.928   6.474                        
  129DVPE   C4A 1544   9.994   8.909   6.129                        
  129DVPE   C1B 1545  10.242   8.943   7.041                        
  129DVPE   C2B 1546  10.250   8.937   6.732                        
  129DVPE   D3B 1547  10.223   8.985   6.438                        
  129DVPE   C4B 1548  10.259   8.943   6.155                        
  130DVPE   NH3 1549  10.253   9.764   7.960                        
  130DVPE   PO4 1550  10.237   9.794   7.634                        
  130DVPE   GL1 1551  10.234   9.800   7.345                        
  130DVPE   GL2 1552  10.113   9.738   7.356                        
  130DVPE   C1A 1553  10.228   9.775   7.061                        
  130DVPE   C2A 1554  10.232   9.766   6.739                        
  130DVPE   D3A 1555  10.230   9.784   6.448                        
  130DVPE   C4A 1556  10.206   9.795   6.153                        
  130DVPE   C1B 1557  10.023   9.651   7.039                        
  130DVPE   C2B 1558   9.997   9.662   6.741                        
  130DVPE   D3B 1559   9.994   9.636   6.431                        
  130DVPE   C4B 1560  10.033   9.672   6.166                        
  131DVPE   NH3 1561  10.442  12.694   7.958                        
  131DVPE   PO4 1562  10.430  12.708   7.634                        
  131DVPE   GL1 1563  10.438  12.716   7.354                        
  131DVPE   GL2 1564  10.419  12.817   7.342                        
  131DVPE   C1A 1565  10.417  12.688   7.041                        
  131DVPE   C2A 1566  10.433  12.689   6.745                        
  131DVPE   D3A 1567  10.421  12.694   6.442                        
  131DVPE   C4A 1568  10.410  12.692   6.135                        
  131DVPE   C1B 1569  10.441  12.932   7.073                        
  131DVPE   C2B 1570  10.438  12.961   6.734                        
  131DVPE   D3B 1571  10.417  12.928   6.444                        
  131DVPE   C4B 1572  10.420  12.930   6.157                        
  132DVPE   NH3 1573  10.373  13.625   7.930                        
  132DVPE   PO4 1574  10.338  13.619   7.631                        
  132DVPE   GL1 1575  10.347  13.639   7.352                        
  132DVPE   GL2 1576  10.246  13.640   7.366                        
  132DVPE   C1A 1577  10.346  13.657   7.060                        
  132DVPE   C2A 1578  10.349  13.622   6.741                        
  132DVPE   D3A 1579  10.335  13.614   6.431                        
  132DVPE   C4A 1580  10.372  13.609   6.172                        
  132DVPE   C1B 1581  10.104  13.599   7.036                        
  132DVPE   C2B 1582  10.126  13.627   6.766                        
  132DVPE   D3B 1583  10.122  13.630   6.469                        
  132DVPE   C4B 1584  10.121  13.594   6.138                        
  133DVPE   NH3 1585  10.700   0.319   7.930                        
  133DVPE   PO4 1586  10.688   0.304   7.661                        
  133DVPE   GL1 1587  10.702   0.306   7.336                        
  133DVPE   GL2 1588  10.784   0.366   7.368                        
  133DVPE   C1A 1589  10.693   0.298   7.041                        
  133DVPE   C2A 1590  10.702   0.325   6.733                        
  133DVPE   D3A 1591  10.687   0.293   6.465                        
  133DVPE   C4A 1592  10.677   0.306   6.166                        
  133DVPE   C1B 1593  10.867   0.461   7.035                        
  133DVPE   C2B 1594  10.893   0.459   6.726                        
  133DVPE   D3B 1595  10.903   0.489   6.443                        
  133DVPE   C4B 1596  10.866   0.470   6.170                        
  134DVPE   NH3 1597  10.816   1.149   7.972                        
  134DVPE   PO4 1598  10.843   1.115   7.641                        
  134DVPE   GL1 1599  10.818   1.126   7.337                        
  134DVPE   GL2 1600  10.671   1.126   7.338                        
  134DVPE   C1A 1601  10.820   1.143   7.028                        
  134DVPE   C2A 1602  10.822   1.131   6.740                        
  134DVPE   D3A 1603  10.805   1.154   6.473                        
  134DVPE   C4A 1604  10.813   1.137   6.166                        
  134DVPE   C1B 1605  10.590   1.170   7.033                        
  134DVPE   C2B 1606  10.593   1.135   6.748                        
  134DVPE   D3B 1607  10.553   1.154   6.472                        
  134DVPE   C4B 1608  10.586   1.162   6.130                        
  135DVPE   NH3 1609  10.692   2.683   7.931                        
  135DVPE   PO4 1610  10.681   2.685   7.655                        
  135DVPE   GL1 1611  10.679   2.702   7.329                        
  135DVPE   GL2 1612  10.836   2.711   7.326                        
  135DVPE   C1A 1613  10.710   2.689   7.051                        
  135DVPE   C2A 1614  10.670   2.688   6.729                        
  135DVPE   D3A 1615  10.708   2.681   6.458                        
  135DVPE   C4A 1616  10.674   2.683   6.148                        
  135DVPE   C1B 1617  10.954   2.740   7.033                        
  135DVPE   C2B 1618  10.938   2.746   6.754                        
  135DVPE   D3B 1619  10.961   2.709   6.438                        
  135DVPE   C4B 1620  10.949   2.725   6.153                        
  136DVPE   NH3 1621  10.807   4.360   7.956                        
  136DVPE   PO4 1622  10.782   4.377   7.629                        
  136DVPE   GL1 1623  10.792   4.367   7.337                        
  136DVPE   GL2 1624  10.709   4.254   7.327                        
  136DVPE   C1A 1625  10.779   4.370   7.032                        
  136DVPE   C2A 1626  10.812   4.365   6.746                        
  136DVPE   D3A 1627  10.815   4.367   6.434                        
  136DVPE   C4A 1628  10.818   4.366   6.160                        
  136DVPE   C1B 1629  10.638   4.150   7.052                        
  136DVPE   C2B 1630  10.638   4.165   6.765                        
  136DVPE   D3B 1631  10.645   4.132   6.438                        
  136DVPE   C4B 1632  10.639   4.174   6.151                        
  137DVPE   NH3 1633  10.587   4.907   7.972                        
  137DVPE   PO4 1634  10.624   4.888   7.635                        
  137DVPE   GL1 1635  10.601   4.915   7.370                        
  137DVPE   GL2 1636  10.695   5.021   7.326                        
  137DVPE   C1A 1637  10.609   4.888   7.054                        
  137DVPE   C2A 1638  10.594   4.920   6.773                        
  137DVPE   D3A 1639  10.610   4.906   6.435                        
  137DVPE   C4A 1640  10.583   4.882   6.161                        
  137DVPE   C1B 1641  10.754   5.117   7.068                        
  137DVPE   C2B 1642  10.754   5.106   6.739                        
  137DVPE   D3B 1643  10.745   5.100   6.461                        
  137DVPE   C4B 1644  10.736   5.114   6.134                        
  138DVPE   NH3 1645  10.806   7.239   7.944                        
  138DVPE   PO4 1646  10.791   7.251   7.657                        
  138DVPE   GL1 1647  10.797   7.257   7.358                        
  138DVPE   GL2 1648  10.803   7.377   7.334                        
  138DVPE   C1A 1649  10.792   7.236   7.034                        
  138DVPE   C2A 1650  10.783   7.255   6.757                        
  138DVPE   D3A 1651  10.802   7.234   6.432                        
  138DVPE   C4A 1652  10.814   7.250   6.142                        
  138DVPE   C1B 1653  10.855   7.450   7.061                        
  138DVPE   C2B 1654  10.873   7.472   6.767                        
  138DVPE   D3B 1655  10.872   7.465   6.458                        
  138DVPE   C4B 1656  10.856   7.481   6.137                        
  139DVPE   NH3 1657  10.899   8.101   7.937                        
  139DVPE   PO4 1658  10.868   8.077   7.656                        
  139DVPE   GL1 1659  10.887   8.095   7.328                        
  139DVPE   GL2 1660  10.847   8.210   7.360                        
  139DVPE   C1A 1661  10.895   8.061   7.034                        
  139DVPE   C2A 1662  10.874   8.097   6.764                        
  139DVPE   D3A 1663  10.887   8.073   6.456                        
  139DVPE   C4A 1664  10.867   8.086   6.163                        
  139DVPE   C1B 1665  10.752   8.292   7.066                        
  139DVPE   C2B 1666  10.740   8.296   6.726                        
  139DVPE   D3B 1667  10.738   8.281   6.467                        
  139DVPE   C4B 1668  10.740   8.295   6.143                        
  140DVPE   NH3 1669  10.729   9.016   7.929                        
  140DVPE   PO4 1670  10.750   9.027   7.673                        
  140DVPE   GL1 1671  10.748   9.004   7.373                        
  140DVPE   GL2 1672  10.841   8.919   7.360                        
  140DVPE   C1A 1673  10.737   9.038   7.044                        
  140DVPE   C2A 1674  10.736   9.045   6.752                        
  140DVPE   D3A 1675  10.717   9.026   6.454                        
  140DVPE   C4A 1676  10.758   9.014   6.166                        
  140DVPE   C1B 1677  10.907   8.829   7.070                        
  140DVPE   C2B 1678  10.928   8.839   6.730                        
  140DVPE   D3B 1679  10.899   8.837   6.461                        
  140DVPE   C4B 1680  10.905   8.856   6.150                        
  141DVPE   NH3 1681  10.850   9.585   7.963                        
  141DVPE   PO4 1682  10.834   9.616   7.661                        
  141DVPE   GL1 1683  10.825   9.590   7.343                        
  141DVPE   GL2 1684  10.816   9.740   7.351                        
  141DVPE   C1A 1685  10.838   9.592   7.066                        
  141DVPE   C2A 1686  10.838   9.626   6.752                        
  141DVPE   D3A 1687  10.839   9.609   6.458                        
  141DVPE   C4A 1688  10.822   9.610   6.131                        
  141DVPE   C1B 1689  10.850   9.861   7.057                        
  141DVPE   C2B 1690  10.812   9.865   6.754                        
  141DVPE   D3B 1691  10.813   9.877   6.437                        
  141DVPE   C4B 1692  10.835   9.842   6.166                        
  142DVPE   NH3 1693  10.829  10.615   7.940                        
  142DVPE   PO4 1694  10.849  10.582   7.668                        
  142DVPE   GL1 1695  10.830  10.616   7.354                        
  142DVPE   GL2 1696  10.808  10.465   7.345                        
  142DVPE   C1A 1697  10.836  10.622   7.057                        
  142DVPE   C2A 1698  10.833  10.605   6.739                        
  142DVPE   D3A 1699  10.866  10.615   6.445                        
  142DVPE   C4A 1700  10.867  10.578   6.168                        
  142DVPE   C1B 1701  10.783  10.340   7.057                        
  142DVPE   C2B 1702  10.792  10.354   6.751                        
  142DVPE   D3B 1703  10.820  10.349   6.459                        
  142DVPE   C4B 1704  10.800  10.347   6.163                        
  143DVPE   NH3 1705  10.768  11.203   7.972                        
  143DVPE   PO4 1706  10.750  11.212   7.649                        
  143DVPE   GL1 1707  10.764  11.229   7.332                        
  143DVPE   GL2 1708  10.826  11.316   7.370                        
  143DVPE   C1A 1709  10.735  11.220   7.064                        
  143DVPE   C2A 1710  10.755  11.227   6.727                        
  143DVPE   D3A 1711  10.751  11.209   6.463                        
  143DVPE   C4A 1712  10.784  11.218   6.171                        
  143DVPE   C1B 1713  10.892  11.389   7.057                        
  143DVPE   C2B 1714  10.928  11.405   6.760                        
  143DVPE   D3B 1715  10.936  11.411   6.437                        
  143DVPE   C4B 1716  10.926  11.430   6.163                        
  144DVPE   NH3 1717  10.870  12.790   7.945                        
  144DVPE   PO4 1718  10.903  12.809   7.637                        
  144DVPE   GL1 1719  10.860  12.811   7.345                        
  144DVPE   GL2 1720  10.997  12.783   7.363                        
  144DVPE   C1A 1721  10.891  12.780   7.032                        
  144DVPE   C2A 1722  10.890  12.809   6.753                        
  144DVPE   D3A 1723  10.864  12.818   6.425                        
  144DVPE   C4A 1724  10.905  12.789   6.150                        
  144DVPE   C1B 1725  11.141  12.780   7.033                        
  144DVPE   C2B 1726  11.149  12.789   6.772                        
  144DVPE   D3B 1727  11.114  12.782   6.437                        
  144DVPE   C4B 1728  11.126  12.822   6.148                        
  145DVPE   NH3 1729  11.382   1.121   7.945                        
  145DVPE   PO4 1730  11.417   1.116   7.656                        
  145DVPE   GL1 1731  11.395   1.101   7.359                        
  145DVPE   GL2 1732  11.313   1.166   7.331                        
  145DVPE   C1A 1733  11.405   1.117   7.052                        
  145DVPE   C2A 1734  11.387   1.112   6.735                        
  145DVPE   D3A 1735  11.422   1.107   6.469                        
  145DVPE   C4A 1736  11.383   1.112   6.175                        
  145DVPE   C1B 1737  11.189   1.241   7.035                        
  145DVPE   C2B 1738  11.178   1.243   6.760                        
  145DVPE   D3B 1739  11.199   1.247   6.450                        
  145DVPE   C4B 1740  11.202   1.231   6.145                        
  146DVPE   NH3 1741  11.373   2.010   7.942                        
  146DVPE   PO4 1742  11.354   2.020   7.628                        
  146DVPE   GL1 1743  11.360   2.036   7.371                        
  146DVPE   GL2 1744  11.273   1.907   7.346                        
  146DVPE   C1A 1745  11.366   2.038   7.029                        
  146DVPE   C2A 1746  11.355   2.010   6.736                        
  146DVPE   D3A 1747  11.332   2.005   6.466                        
  146DVPE   C4A 1748  11.370   2.025   6.151                        
  146DVPE   C1B 1749  11.243   1.810   7.068                        
  146DVPE   C2B 1750  11.221   1.832   6.773                        
  146DVPE   D3B 1751  11.214   1.796   6.461                        
  146DVPE   C4B 1752  11.216   1.787   6.167                        
  147DVPE   NH3 1753  11.392   5.231   7.971                        
  147DVPE   PO4 1754  11.380   5.202   7.644                        
  147DVPE   GL1 1755  11.351   5.244   7.344                        
  147DVPE   GL2 1756  11.263   5.141   7.354                        
  147DVPE   C1A 1757  11.363   5.244   7.072                        
  147DVPE   C2A 1758  11.353   5.209   6.746                        
  147DVPE   D3A 1759  11.350   5.211   6.461                        
  147DVPE   C4A 1760  11.361   5.236   6.155                        
  147DVPE   C1B 1761  11.182   5.058   7.054                        
  147DVPE   C2B 1762  11.187   5.037   6.767                        
  147DVPE   D3B 1763  11.181   5.042   6.470                        
  147DVPE   C4B 1764  11.213   5.060   6.157                        
  148DVPE   NH3 1765  11.476   5.836   7.965                        
  148DVPE   PO4 1766  11.501   5.833   7.664                        
  148DVPE   GL1 1767  11.476   5.823   7.357                        
  148DVPE   GL2 1768  11.367   5.841   7.336                        
  148DVPE   C1A 1769  11.502   5.810   7.038                        
  148DVPE   C2A 1770  11.497   5.817   6.749                        
  148DVPE   D3A 1771  11.518   5.799   6.455                        
  148DVPE   C4A 1772  11.484   5.803   6.142                        
  148DVPE   C1B 1773  11.258   5.869   7.026                        
  148DVPE   C2B 1774  11.229   5.842   6.731                        
  148DVPE   D3B 1775  11.240   5.838   6.429                        
  148DVPE   C4B 1776  11.255   5.878   6.131                        
  149DVPE   NH3 1777  11.670   7.465   7.967                        
  149DVPE   PO4 1778  11.641   7.470   7.650                        
  149DVPE   GL1 1779  11.638   7.435   7.356                        
  149DVPE   GL2 1780  11.546   7.396   7.367                        
  149DVPE   C1A 1781  11.655   7.469   7.062                        
  149DVPE   C2A 1782  11.640   7.451   6.760                        
  149DVPE   D3A 1783  11.634   7.452   6.428                        
  149DVPE   C4A 1784  11.633   7.458   6.127                        
  149DVPE   C1B 1785  11.410   7.371   7.030                        
  149DVPE   C2B 1786  11.417   7.377   6.736                        
  149DVPE   D3B 1787  11.397   7.354   6.460                        
  149DVPE   C4B 1788  11.434   7.360   6.156                        
  150DVPE   NH3 1789  11.595   8.020   7.926                        
  150DVPE   PO4 1790  11.602   8.055   7.635                        
  150DVPE   GL1 1791  11.568   8.054   7.345                        
  150DVPE   GL2 1792  11.531   8.160   7.367                        
  150DVPE   C1A 1793  11.602   8.020   7.051                        
  150DVPE   C2A 1794  11.567   8.042   6.734                        
  150DVPE   D3A 1795  11.609   8.030   6.426                        
  150DVPE   C4A 1796  11.591   8.023   6.146                        
  150DVPE   C1B 1797  11.479   8.249   7.032                        
  150DVPE   C2B 1798  11.493   8.269   6.739                        
  150DVPE   D3B 1799  11.509   8.244   6.447                        
  150DVPE   C4B 1800  11.490   8.276   6.163                        
  151DVPE   NH3 1801  11.471   9.664   7.946                        
  151DVPE   PO4 1802  11.462   9.685   7.637                        
  151DVPE   GL1 1803  11.431   9.640   7.349                        
  151DVPE   GL2 1804  11.523   9.734   7.347                        
  151DVPE   C1A 1805  11.466   9.688   7.044                        
  151DVPE   C2A 1806  11.448   9.669   6.730                        
  151DVPE   D3A 1807  11.475   9.687   6.426                        
  151DVPE   C4A 1808  11.433   9.647   6.141                        
  151DVPE   C1B 1809  11.629   9.840   7.052                        
  151DVPE   C2B 1810  11.636   9.841   6.764                        
  151DVPE   D3B 1811  11.649   9.857   6.447                        
  151DVPE   C4B 1812  11.648   9.841   6.141                        
  152DVPE   NH3 1813  11.452  10.413   7.974                        
  152DVPE   PO4 1814  11.429  10.418   7.671                        
  152DVPE   GL1 1815  11.409  10.441   7.328                        
  152DVPE   GL2 1816  11.514  10.487   7.348                        
  152DVPE   C1A 1817  11.418  10.434   7.057                        
  152DVPE   C2A 1818  11.447  10.451   6.737                        
  152DVPE   D3A 1819  11.420  10.409   6.446                        
  152DVPE   C4A 1820  11.421  10.412   6.170                        
  152DVPE   C1B 1821  11.615  10.569   7.073                        
  152DVPE   C2B 1822  11.622  10.589   6.756                        
  152DVPE   D3B 1823  11.652  10.556   6.470                        
  152DVPE   C4B 1824  11.651  10.563   6.170                        
  153DVPE   NH3 1825  11.429  11.125   7.960                        
  153DVPE   PO4 1826  11.462  11.169   7.674                        
  153DVPE   GL1 1827  11.443  11.147   7.333                        
  153DVPE   GL2 1828  11.540  11.225   7.366                        
  153DVPE   C1A 1829  11.441  11.153   7.052                        
  153DVPE   C2A 1830  11.470  11.134   6.732                        
  153DVPE   D3A 1831  11.449  11.141   6.431                        
  153DVPE   C4A 1832  11.455  11.164   6.148                        
  153DVPE   C1B 1833  11.632  11.339   7.071                        
  153DVPE   C2B 1834  11.617  11.355   6.747                        
  153DVPE   D3B 1835  11.631  11.343   6.444                        
  153DVPE   C4B 1836  11.597  11.327   6.137                        
  154DVPE   NH3 1837  11.508  11.964   7.966                        
  154DVPE   PO4 1838  11.497  11.979   7.652                        
  154DVPE   GL1 1839  11.515  11.991   7.360                        
  154DVPE   GL2 1840  11.552  12.096   7.365                        
  154DVPE   C1A 1841  11.506  11.952   7.071                        
  154DVPE   C2A 1842  11.492  11.982   6.775                        
  154DVPE   D3A 1843  11.524  11.965   6.440                        
  154DVPE   C4A 1844  11.535  11.999   6.128                        
  154DVPE   C1B 1845  11.644  12.219   7.035                        
  154DVPE   C2B 1846  11.609  12.209   6.747                        
  154DVPE   D3B 1847  11.641  12.204   6.469                        
  154DVPE   C4B 1848  11.609  12.201   6.136                        
  155DVPE   NH3 1849  11.763  12.833   7.944                        
  155DVPE   PO4 1850  11.758  12.806   7.630                        
  155DVPE   GL1 1851  11.747  12.828   7.338                        
  155DVPE   GL2 1852  11.603  12.884   7.352                        
  155DVPE   C1A 1853  11.727  12.825   7.058                        
  155DVPE   C2A 1854  11.757  12.839   6.727                        
  155DVPE   D3A 1855  11.737  12.829   6.460                        
  155DVPE   C4A 1856  11.744  12.848   6.141                        
  155DVPE   C1B 1857  11.504  12.912   7.056                        
  155DVPE   C2B 1858  11.491  12.899   6.740                        
  155DVPE   D3B 1859  11.482  12.891   6.426                        
  155DVPE   C4B 1860  11.517  12.937   6.143                        
  156DVPE   NH3 1861  11.675  13.663   7.962                        
  156DVPE   PO4 1862  11.697  13.622   7.673                        
  156DVPE   GL1 1863  11.698  13.662   7.351                        
  156DVPE   GL2 1864  11.553  13.632   7.330                        
  156DVPE   C1A 1865  11.682  13.633   7.027                        
  156DVPE   C2A 1866  11.697  13.616   6.727                        
  156DVPE   D3A 1867  11.665  13.639   6.449                        
  156DVPE   C4A 1868  11.670  13.624   6.126                        
  156DVPE   C1B 1869  11.419  13.571   7.049                        
  156DVPE   C2B 1870  11.462  13.596   6.746                        
  156DVPE   D3B 1871  11.459  13.588   6.463                        
  156DVPE   C4B 1872  11.458  13.563   6.143                        
  157DVPE   NH3 1873  11.794   6.165   7.952                        
  157DVPE   PO4 1874  11.799   6.188   7.672                        
  157DVPE   GL1 1875  11.779   6.199   7.352                        
  157DVPE   GL2 1876  11.913   6.143   7.332                        
  157DVPE   C1A 1877  11.815   6.189   7.066                        
  157DVPE   C2A 1878  11.801   6.188   6.747                        
  157DVPE   D3A 1879  11.790   6.209   6.439                        
  157DVPE   C4A 1880  11.795   6.208   6.146                        
  157DVPE   C1B 1881  12.020   6.105   7.046                        
  157DVPE   C2B 1882  12.018   6.101   6.764                        
  157DVPE   D3B 1883  12.054   6.067   6.473                        
  157DVPE   C4B 1884  12.044   6.111   6.163                        
  158DVPE   NH3 1885  12.317   9.016   7.975                        
  158DVPE   PO4 1886  12.283   9.004   7.666                        
  158DVPE   GL1 1887  12.304   9.021   7.350                        
  158DVPE   GL2 1888  12.261   8.861   7.338                        
  158DVPE   C1A 1889  12.281   9.003   7.071                        
  158DVPE   C2A 1890  12.287   9.001   6.738                        
  158DVPE   D3A 1891  12.310   9.011   6.447                        
  158DVPE   C4A 1892  12.273   9.015   6.157                        
  158DVPE   C1B 1893  12.213   8.780   7.071                        
  158DVPE   C2B 1894  12.211   8.762   6.770                        
  158DVPE   D3B 1895  12.242   8.780   6.463                        
  158DVPE   C4B 1896  12.218   8.732   6.135                        
  159DVPE   NH3 1897  12.285  10.346   7.973                        
  159DVPE   PO4 1898  12.260  10.308   7.671                        
  159DVPE   GL1 1899  12.289  10.328   7.337                        
  159DVPE   GL2 1900  12.246  10.460   7.337                        
  159DVPE   C1A 1901  12.296  10.326   7.073                        
  159DVPE   C2A 1902  12.264  10.314   6.727                        
  159DVPE   D3A 1903  12.282  10.356   6.459                        
  159DVPE   C4A 1904  12.270  10.346   6.145                        
  159DVPE   C1B 1905  12.231  10.572   7.065                        
  159DVPE   C2B 1906  12.197  10.580   6.749                        
  159DVPE   D3B 1907  12.204  10.563   6.466                        
  159DVPE   C4B 1908  12.232  10.572   6.128                        
  160DVPE   NH3 1909  12.340  12.083   7.963                        
  160DVPE   PO4 1910  12.325  12.100   7.673                        
  160DVPE   GL1 1911  12.328  12.085   7.360                        
  160DVPE   GL2 1912  12.218  11.981   7.359                        
  160DVPE   C1A 1913  12.317  12.088   7.051                        
  160DVPE   C2A 1914  12.309  12.122   6.730                        
  160DVPE   D3A 1915  12.316  12.083   6.445                        
  160DVPE   C4A 1916  12.315  12.088   6.169                        
  160DVPE   C1B 1917  12.180  11.927   7.050                        
  160DVPE   C2B 1918  12.154  11.910   6.743                        
  160DVPE   D3B 1919  12.162  11.904   6.469                        
  160DVPE   C4B 1920  12.179  11.892   6.175                        
  161DVPE   NH3 1921  12.225  12.877   7.962                        
  161DVPE   PO4 1922  12.253  12.905   7.641                        
  161DVPE   GL1 1923  12.250  12.906   7.325                        
  161DVPE   GL2 1924  12.254  12.781   7.351                        
  161DVPE   C1A 1925  12.255  12.876   7.070                        
  161DVPE   C2A 1926  12.260  12.866   6.760                        
  161DVPE   D3A 1927  12.264  12.864   6.465                        
  161DVPE   C4A 1928  12.250  12.892   6.166                        
  161DVPE   C1B 1929  12.303  12.635   7.032                        
  161DVPE   C2B 1930  12.273  12.642   6.729                        
  161DVPE   D3B 1931  12.297  12.661   6.474                        
  161DVPE   C4B 1932  12.283  12.636   6.147                        
  162DVPE   NH3 1933  12.117   2.769   7.954                        
  162DVPE   PO4 1934  12.112   2.787   7.658                        
  162DVPE   GL1 1935  12.083   2.783   7.353                        
  162DVPE   GL2 1936  12.177   2.683   7.373                        
  162DVPE   C1A 1937  12.108   2.793   7.039                        
  162DVPE   C2A 1938  12.119   2.770   6.767                        
  162DVPE   D3A 1939  12.098   2.773   6.440                        
  162DVPE   C4A 1940  12.127   2.815   6.146                        
  162DVPE   C1B 1941  12.259   2.603   7.047                        
  162DVPE   C2B 1942  12.283   2.600   6.751                        
  162DVPE   D3B 1943  12.265   2.592   6.435                        
  162DVPE   C4B 1944  12.264   2.613   6.167                        
  163DVPE   NH3 1945  12.990   9.278   7.951                        
  163DVPE   PO4 1946  12.984   9.283   7.654                        
  163DVPE   GL1 1947  13.001   9.292   7.374                        
  163DVPE   GL2 1948  12.901   9.384   7.331                        
  163DVPE   C1A 1949  12.975   9.315   7.058                        
  163DVPE   C2A 1950  13.014   9.324   6.757                        
  163DVPE   D3A 1951  12.975   9.301   6.453                        
  163DVPE   C4A 1952  13.005   9.284   6.172                        
  163DVPE   C1B 1953  12.812   9.493   7.031                        
  163DVPE   C2B 1954  12.828   9.449   6.734                        
  163DVPE   D3B 1955  12.830   9.477   6.456                        
  163DVPE   C4B 1956  12.833   9.474   6.142                        
  164DVPE   NH3 1957  12.841  10.301   7.957                        
  164DVPE   PO4 1958  12.839  10.294   7.665                        
  164DVPE   GL1 1959  12.831  10.269   7.338                        
  164DVPE   GL2 1960  12.906  10.204   7.359                        
  164DVPE   C1A 1961  12.847  10.297   7.044                        
  164DVPE   C2A 1962  12.833  10.300   6.730                        
  164DVPE   D3A 1963  12.832  10.291   6.464                        
  164DVPE   C4A 1964  12.804  10.268   6.148                        
  164DVPE   C1B 1965  12.979  10.097   7.036                        
  164DVPE   C2B 1966  12.980  10.094   6.751                        
  164DVPE   D3B 1967  13.018  10.095   6.462                        
  164DVPE   C4B 1968  12.991  10.131   6.156                        
  165DVPE   NH3 1969  12.801  13.565   7.939                        
  165DVPE   PO4 1970  12.806  13.550   7.651                        
  165DVPE   GL1 1971  12.797  13.553   7.348                        
  165DVPE   GL2 1972  12.937  13.616   7.354                        
  165DVPE   C1A 1973  12.836  13.578   7.051                        
  165DVPE   C2A 1974  12.802  13.544   6.753                        
  165DVPE   D3A 1975  12.818  13.560   6.441                        
  165DVPE   C4A 1976  12.836  13.545   6.175                        
  165DVPE   C1B 1977  13.040  13.674   7.049                        
  165DVPE   C2B 1978  13.044  13.657   6.729                        
  165DVPE   D3B 1979  13.065  13.656   6.445                        
  165DVPE   C4B 1980  13.072  13.670   6.157                        
  166DVPE   NH3 1981  12.866   2.651   7.961                        
  166DVPE   PO4 1982  12.870   2.658   7.629                        
  166DVPE   GL1 1983  12.867   2.653   7.327                        
  166DVPE   GL2 1984  12.855   2.545   7.325                        
  166DVPE   C1A 1985  12.861   2.684   7.058                        
  166DVPE   C2A 1986  12.860   2.694   6.741                        
  166DVPE   D3A 1987  12.848   2.654   6.430                        
  166DVPE   C4A 1988  12.844   2.681   6.169                        
  166DVPE   C1B 1989  12.834   2.401   7.032                        
  166DVPE   C2B 1990  12.801   2.418   6.768                        
  166DVPE   D3B 1991  12.814   2.400   6.435                        
  166DVPE   C4B 1992  12.840   2.443   6.160                        
  167DVPE   NH3 1993  12.733   3.120   7.947                        
  167DVPE   PO4 1994  12.756   3.097   7.658                        
  167DVPE   GL1 1995  12.738   3.094   7.363                        
  167DVPE   GL2 1996  12.833   3.033   7.373                        
  167DVPE   C1A 1997  12.725   3.104   7.045                        
  167DVPE   C2A 1998  12.758   3.092   6.771                        
  167DVPE   D3A 1999  12.749   3.121   6.426                        
  167DVPE   C4A 2000  12.763   3.119   6.168                        
  167DVPE   C1B 2001  12.944   2.981   7.031                        
  167DVPE   C2B 2002  12.943   2.962   6.762                        
  167DVPE   D3B 2003  12.956   2.935   6.469                        
  167DVPE   C4B 2004  12.945   2.936   6.126                        
  168DVPE   NH3 2005  12.873   3.652   7.958                        
  168DVPE   PO4 2006  12.885   3.655   7.674                        
  168DVPE   GL1 2007  12.855   3.643   7.353                        
  168DVPE   GL2 2008  12.938   3.544   7.341                        
  168DVPE   C1A 2009  12.864   3.669   7.062                        
  168DVPE   C2A 2010  12.882   3.668   6.761                        
  168DVPE   D3A 2011  12.855   3.651   6.445                        
  168DVPE   C4A 2012  12.868   3.649   6.165                        
  168DVPE   C1B 2013  13.041   3.487   7.048                        
  168DVPE   C2B 2014  13.032   3.471   6.756                        
  168DVPE   D3B 2015  13.056   3.464   6.458                        
  168DVPE   C4B 2016  13.053   3.458   6.158                        
  169DVPE   NH3 2017  13.509   6.846   7.956                        
  169DVPE   PO4 2018  13.511   6.841   7.658                        
  169DVPE   GL1 2019  13.505   6.844   7.337                        
  169DVPE   GL2 2020  13.602   6.895   7.349                        
  169DVPE   C1A 2021  13.539   6.840   7.046                        
  169DVPE   C2A 2022  13.542   6.852   6.746                        
  169DVPE   D3A 2023  13.544   6.817   6.438                        
  169DVPE   C4A 2024  13.538   6.809   6.141                        
  169DVPE   C1B 2025  13.727   7.012   7.066                        
  169DVPE   C2B 2026  13.730   6.995   6.752                        
  169DVPE   D3B 2027  13.734   6.982   6.441                        
  169DVPE   C4B 2028  13.737   6.969   6.137                        
  170DVPE   NH3 2029  13.536   8.543   7.967                        
  170DVPE   PO4 2030  13.577   8.542   7.647                        
  170DVPE   GL1 2031  13.568   8.564   7.361                        
  170DVPE   GL2 2032  13.644   8.463   7.339                        
  170DVPE   C1A 2033  13.570   8.549   7.062                        
  170DVPE   C2A 2034  13.533   8.563   6.740                        
  170DVPE   D3A 2035  13.536   8.570   6.442                        
  170DVPE   C4A 2036  13.553   8.574   6.153                        
  170DVPE   C1B 2037  13.700   8.354   7.061                        
  170DVPE   C2B 2038  13.689   8.349   6.756                        
  170DVPE   D3B 2039  13.679   8.357   6.462                        
  170DVPE   C4B 2040  13.694   8.367   6.145                        
  171DVPE   NH3 2041  13.730  10.228   7.953                        
  171DVPE   PO4 2042  13.718  10.232   7.634                        
  171DVPE   GL1 2043  13.741  10.226   7.339                        
  171DVPE   GL2 2044  13.635  10.157   7.344                        
  171DVPE   C1A 2045  13.717  10.214   7.038                        
  171DVPE   C2A 2046  13.744  10.217   6.767                        
  171DVPE   D3A 2047  13.718  10.214   6.442                        
  171DVPE   C4A 2048  13.709  10.211   6.133                        
  171DVPE   C1B 2049  13.515  10.069   7.029                        
  171DVPE   C2B 2050  13.508  10.096   6.749                        
  171DVPE   D3B 2051  13.540  10.094   6.449                        
  171DVPE   C4B 2052  13.530  10.074   6.127                        
  172DVPE   NH3 2053  13.504  11.099   7.970                        
  172DVPE   PO4 2054  13.534  11.113   7.658                        
  172DVPE   GL1 2055  13.520  11.097   7.329                        
  172DVPE   GL2 2056  13.627  11.025   7.372                        
  172DVPE   C1A 2057  13.519  11.135   7.034                        
  172DVPE   C2A 2058  13.531  11.133   6.768                        
  172DVPE   D3A 2059  13.507  11.118   6.461                        
  172DVPE   C4A 2060  13.527  11.109   6.165                        
  172DVPE   C1B 2061  13.737  10.975   7.052                        
  172DVPE   C2B 2062  13.729  10.985   6.740                        
  172DVPE   D3B 2063  13.733  10.995   6.449                        
  172DVPE   C4B 2064  13.754  10.969   6.125                        
  173DVPE   NH3 2065  13.487  13.604   7.934                        
  173DVPE   PO4 2066  13.489  13.563   7.658                        
  173DVPE   GL1 2067  13.494  13.613   7.334                        
  173DVPE   GL2 2068  13.634  13.608   7.341                        
  173DVPE   C1A 2069  13.519  13.594   7.049                        
  173DVPE   C2A 2070  13.508  13.601   6.765                        
  173DVPE   D3A 2071  13.502  13.610   6.451                        
  173DVPE   C4A 2072  13.502  13.586   6.165                        
  173DVPE   C1B 2073  13.740  13.600   7.048                        
  173DVPE   C2B 2074  13.751  13.633   6.773                        
  173DVPE   D3B 2075  13.747  13.623   6.431                        
  173DVPE   C4B 2076  13.728  13.596   6.130                        
  174POPE   NH3 2077   0.355   7.536   7.943                        
  174POPE   PO4 2078   0.325   7.580   7.626                        
  174POPE   GL1 2079   0.313   7.552   7.342                        
  174POPE   GL2 2080   0.388   7.693   7.374                        
  174POPE   C1A 2081   0.350   7.575   7.055                        
  174POPE   D2A 2082   0.322   7.557   6.759                        
  174POPE   C3A 2083   0.329   7.571   6.453                        
  174POPE   C4A 2084   0.326   7.544   6.127                        
  174POPE   C1B 2085   0.427   7.803   7.066                        
  174POPE   C2B 2086   0.419   7.818   6.748                        
  174POPE   C3B 2087   0.431   7.781   6.451                        
  174POPE   C4B 2088   0.397   7.779   6.172                        
  175POPE   NH3 2089   0.506   8.474   7.960                        
  175POPE   PO4 2090   0.507   8.467   7.632                        
  175POPE   GL1 2091   0.516   8.467   7.374                        
  175POPE   GL2 2092   0.350   8.467   7.355                        
  175POPE   C1A 2093   0.504   8.496   7.026                        
  175POPE   D2A 2094   0.491   8.469   6.730                        
  175POPE   C3A 2095   0.497   8.481   6.473                        
  175POPE   C4A 2096   0.515   8.463   6.141                        
  175POPE   C1B 2097   0.229   8.428   7.037                        
  175POPE   C2B 2098   0.247   8.403   6.766                        
  175POPE   C3B 2099   0.234   8.404   6.471                        
  175POPE   C4B 2100   0.248   8.412   6.171                        
  176POPE   NH3 2101   0.456  10.043   7.946                        
  176POPE   PO4 2102   0.437  10.025   7.645                        
  176POPE   GL1 2103   0.444  10.033   7.333                        
  176POPE   GL2 2104   0.368  10.137   7.340                        
  176POPE   C1A 2105   0.445  10.045   7.060                        
  176POPE   D2A 2106   0.448  10.051   6.741                        
  176POPE   C3A 2107   0.434  10.022   6.442                        
  176POPE   C4A 2108   0.469  10.025   6.168                        
  176POPE   C1B 2109   0.295  10.239   7.054                        
  176POPE   C2B 2110   0.292  10.237   6.751                        
  176POPE   C3B 2111   0.305  10.223   6.469                        
  176POPE   C4B 2112   0.307  10.219   6.134                        
  177POPE   NH3 2113   0.371  11.119   7.949                        
  177POPE   PO4 2114   0.352  11.136   7.649                        
  177POPE   GL1 2115   0.375  11.111   7.329                        
  177POPE   GL2 2116   0.382  10.982   7.371                        
  177POPE   C1A 2117   0.354  11.099   7.057                        
  177POPE   D2A 2118   0.379  11.104   6.738                        
  177POPE   C3A 2119   0.367  11.134   6.472                        
  177POPE   C4A 2120   0.356  11.134   6.134                        
  177POPE   C1B 2121   0.394  10.878   7.045                        
  177POPE   C2B 2122   0.377  10.891   6.758                        
  177POPE   C3B 2123   0.393  10.860   6.429                        
  177POPE   C4B 2124   0.389  10.867   6.140                        
  178POPE   NH3 2125   0.463   1.306   7.930                        
  178POPE   PO4 2126   0.415   1.320   7.634                        
  178POPE   GL1 2127   0.444   1.313   7.344                        
  178POPE   GL2 2128   0.359   1.226   7.361                        
  178POPE   C1A 2129   0.456   1.320   7.026                        
  178POPE   D2A 2130   0.451   1.299   6.762                        
  178POPE   C3A 2131   0.456   1.305   6.430                        
  178POPE   C4A 2132   0.461   1.314   6.133                        
  178POPE   C1B 2133   0.306   1.088   7.044                        
  178POPE   C2B 2134   0.317   1.114   6.729                        
  178POPE   C3B 2135   0.326   1.084   6.454                        
  178POPE   C4B 2136   0.301   1.104   6.126                        
  179POPE   NH3 2137   0.466   2.210   7.928                        
  179POPE   PO4 2138   0.465   2.217   7.662                        
  179POPE   GL1 2139   0.439   2.178   7.346                        
  179POPE   GL2 2140   0.381   2.273   7.367                        
  179POPE   C1A 2141   0.477   2.193   7.064                        
  179POPE   D2A 2142   0.459   2.222   6.730                        
  179POPE   C3A 2143   0.480   2.225   6.469                        
  179POPE   C4A 2144   0.478   2.202   6.141                        
  179POPE   C1B 2145   0.291   2.390   7.065                        
  179POPE   C2B 2146   0.304   2.408   6.754                        
  179POPE   C3B 2147   0.306   2.410   6.472                        
  179POPE   C4B 2148   0.268   2.390   6.173                        
  180POPE   NH3 2149   1.081  10.338   7.955                        
  180POPE   PO4 2150   1.081  10.349   7.635                        
  180POPE   GL1 2151   1.094  10.314   7.352                        
  180POPE   GL2 2152   1.115  10.204   7.325                        
  180POPE   C1A 2153   1.073  10.335   7.055                        
  180POPE   D2A 2154   1.091  10.348   6.746                        
  180POPE   C3A 2155   1.106  10.334   6.470                        
  180POPE   C4A 2156   1.071  10.355   6.154                        
  180POPE   C1B 2157   1.090  10.093   7.060                        
  180POPE   C2B 2158   1.097  10.106   6.766                        
  180POPE   C3B 2159   1.102  10.101   6.447                        
  180POPE   C4B 2160   1.123  10.090   6.170                        
  181POPE   NH3 2161   1.021  13.511   7.934                        
  181POPE   PO4 2162   1.034  13.513   7.654                        
  181POPE   GL1 2163   1.029  13.486   7.357                        
  181POPE   GL2 2164   1.095  13.609   7.330                        
  181POPE   C1A 2165   1.023  13.530   7.039                        
  181POPE   D2A 2166   1.043  13.532   6.745                        
  181POPE   C3A 2167   1.001  13.512   6.435                        
  181POPE   C4A 2168   1.036  13.487   6.125                        
  181POPE   C1B 2169   1.116  13.717   7.031                        
  181POPE   C2B 2170   1.109  13.733   6.755                        
  181POPE   C3B 2171   1.147  13.724   6.462                        
  181POPE   C4B 2172   1.117  13.733   6.174                        
  182POPE   NH3 2173   0.922   3.527   7.968                        
  182POPE   PO4 2174   0.902   3.528   7.652                        
  182POPE   GL1 2175   0.897   3.517   7.349                        
  182POPE   GL2 2176   1.028   3.545   7.342                        
  182POPE   C1A 2177   0.922   3.534   7.041                        
  182POPE   D2A 2178   0.913   3.522   6.757                        
  182POPE   C3A 2179   0.909   3.523   6.475                        
  182POPE   C4A 2180   0.902   3.530   6.157                        
  182POPE   C1B 2181   1.191   3.516   7.043                        
  182POPE   C2B 2182   1.160   3.519   6.753                        
  182POPE   C3B 2183   1.177   3.513   6.453                        
  182POPE   C4B 2184   1.179   3.521   6.135                        
  183POPE   NH3 2185   1.760  11.907   7.953                        
  183POPE   PO4 2186   1.764  11.899   7.672                        
  183POPE   GL1 2187   1.797  11.889   7.353                        
  183POPE   GL2 2188   1.782  12.024   7.353                        
  183POPE   C1A 2189   1.772  11.874   7.038                        
  183POPE   D2A 2190   1.782  11.869   6.754                        
  183POPE   C3A 2191   1.763  11.894   6.475                        
  183POPE   C4A 2192   1.789  11.900   6.127                        
  183POPE   C1B 2193   1.785  12.151   7.072                        
  183POPE   C2B 2194   1.801  12.150   6.751                        
  183POPE   C3B 2195   1.799  12.140   6.436                        
  183POPE   C4B 2196   1.772  12.122   6.131                        
  184POPE   NH3 2197   1.788  12.713   7.940                        
  184POPE   PO4 2198   1.791  12.706   7.649                        
  184POPE   GL1 2199   1.807  12.684   7.351                        
  184POPE   GL2 2200   1.772  12.826   7.348                        
  184POPE   C1A 2201   1.793  12.686   7.028                        
  184POPE   D2A 2202   1.783  12.709   6.729                        
  184POPE   C3A 2203   1.798  12.722   6.436                        
  184POPE   C4A 2204   1.797  12.696   6.170                        
  184POPE   C1B 2205   1.746  12.959   7.056                        
  184POPE   C2B 2206   1.776  12.956   6.748                        
  184POPE   C3B 2207   1.761  12.965   6.471                        
  184POPE   C4B 2208   1.767  12.961   6.152                        
  185POPE   NH3 2209   1.674  13.489   7.972                        
  185POPE   PO4 2210   1.664  13.463   7.658                        
  185POPE   GL1 2211   1.697  13.482   7.370                        
  185POPE   GL2 2212   1.752  13.577   7.341                        
  185POPE   C1A 2213   1.674  13.485   7.050                        
  185POPE   D2A 2214   1.673  13.502   6.774                        
  185POPE   C3A 2215   1.665  13.469   6.441                        
  185POPE   C4A 2216   1.664  13.493   6.155                        
  185POPE   C1B 2217   1.854  13.677   7.042                        
  185POPE   C2B 2218   1.873  13.655   6.752                        
  185POPE   C3B 2219   1.856  13.658   6.472                        
  185POPE   C4B 2220   1.858  13.675   6.128                        
  186POPE   NH3 2221   1.591   2.021   7.969                        
  186POPE   PO4 2222   1.594   2.007   7.656                        
  186POPE   GL1 2223   1.581   1.999   7.331                        
  186POPE   GL2 2224   1.640   1.925   7.373                        
  186POPE   C1A 2225   1.576   2.011   7.038                        
  186POPE   D2A 2226   1.561   1.993   6.746                        
  186POPE   C3A 2227   1.571   2.021   6.445                        
  186POPE   C4A 2228   1.556   2.025   6.141                        
  186POPE   C1B 2229   1.704   1.802   7.047                        
  186POPE   C2B 2230   1.659   1.779   6.766                        
  186POPE   C3B 2231   1.704   1.785   6.462                        
  186POPE   C4B 2232   1.695   1.796   6.154                        
  187POPE   NH3 2233   2.223   2.438   7.956                        
  187POPE   PO4 2234   2.242   2.454   7.654                        
  187POPE   GL1 2235   2.230   2.477   7.340                        
  187POPE   GL2 2236   2.187   2.337   7.364                        
  187POPE   C1A 2237   2.236   2.455   7.045                        
  187POPE   D2A 2238   2.213   2.448   6.746                        
  187POPE   C3A 2239   2.202   2.447   6.467                        
  187POPE   C4A 2240   2.243   2.471   6.157                        
  187POPE   C1B 2241   2.126   2.232   7.063                        
  187POPE   C2B 2242   2.101   2.219   6.768                        
  187POPE   C3B 2243   2.105   2.239   6.458                        
  187POPE   C4B 2244   2.140   2.209   6.174                        
  188POPE   NH3 2245   2.414   3.465   7.928                        
  188POPE   PO4 2246   2.405   3.461   7.671                        
  188POPE   GL1 2247   2.410   3.464   7.351                        
  188POPE   GL2 2248   2.500   3.479   7.345                        
  188POPE   C1A 2249   2.418   3.507   7.065                        
  188POPE   D2A 2250   2.385   3.506   6.765                        
  188POPE   C3A 2251   2.410   3.487   6.441                        
  188POPE   C4A 2252   2.406   3.489   6.127                        
  188POPE   C1B 2253   2.643   3.470   7.047                        
  188POPE   C2B 2254   2.673   3.461   6.741                        
  188POPE   C3B 2255   2.635   3.471   6.467                        
  188POPE   C4B 2256   2.629   3.483   6.126                        
  189POPE   NH3 2257   2.614   4.911   7.926                        
  189POPE   PO4 2258   2.639   4.938   7.672                        
  189POPE   GL1 2259   2.649   4.949   7.339                        
  189POPE   GL2 2260   2.774   4.962   7.331                        
  189POPE   C1A 2261   2.627   4.948   7.049                        
  189POPE   D2A 2262   2.660   4.937   6.758                        
  189POPE   C3A 2263   2.627   4.915   6.426                        
  189POPE   C4A 2264   2.621   4.911   6.161                        
  189POPE   C1B 2265   2.863   4.961   7.063                        
  189POPE   C2B 2266   2.860   4.992   6.759                        
  189POPE   C3B 2267   2.905   4.960   6.457                        
  189POPE   C4B 2268   2.897   4.995   6.160                        
  190POPE   NH3 2269   3.079   3.198   7.949                        
  190POPE   PO4 2270   3.060   3.192   7.652                        
  190POPE   GL1 2271   3.082   3.229   7.330                        
  190POPE   GL2 2272   3.153   3.147   7.374                        
  190POPE   C1A 2273   3.049   3.222   7.062                        
  190POPE   D2A 2274   3.090   3.193   6.745                        
  190POPE   C3A 2275   3.044   3.216   6.464                        
  190POPE   C4A 2276   3.055   3.212   6.155                        
  190POPE   C1B 2277   3.271   3.071   7.035                        
  190POPE   C2B 2278   3.275   3.067   6.757                        
  190POPE   C3B 2279   3.291   3.081   6.471                        
  190POPE   C4B 2280   3.266   3.073   6.156                        
  191POPE   NH3 2281   3.071   5.440   7.972                        
  191POPE   PO4 2282   3.039   5.459   7.655                        
  191POPE   GL1 2283   3.076   5.467   7.351                        
  191POPE   GL2 2284   3.158   5.478   7.357                        
  191POPE   C1A 2285   3.035   5.457   7.039                        
  191POPE   D2A 2286   3.056   5.462   6.745                        
  191POPE   C3A 2287   3.042   5.459   6.449                        
  191POPE   C4A 2288   3.041   5.437   6.153                        
  191POPE   C1B 2289   3.290   5.536   7.059                        
  191POPE   C2B 2290   3.308   5.529   6.772                        
  191POPE   C3B 2291   3.301   5.534   6.445                        
  191POPE   C4B 2292   3.283   5.506   6.133                        
  192POPE   NH3 2293   3.275   7.691   7.961                        
  192POPE   PO4 2294   3.299   7.707   7.663                        
  192POPE   GL1 2295   3.299   7.702   7.333                        
  192POPE   GL2 2296   3.153   7.797   7.370                        
  192POPE   C1A 2297   3.276   7.710   7.046                        
  192POPE   D2A 2298   3.258   7.696   6.763                        
  192POPE   C3A 2299   3.261   7.702   6.442                        
  192POPE   C4A 2300   3.299   7.706   6.131                        
  192POPE   C1B 2301   3.062   7.864   7.067                        
  192POPE   C2B 2302   3.060   7.824   6.744                        
  192POPE   C3B 2303   3.083   7.852   6.442                        
  192POPE   C4B 2304   3.079   7.871   6.171                        
  193POPE   NH3 2305   3.094   8.710   7.953                        
  193POPE   PO4 2306   3.072   8.681   7.651                        
  193POPE   GL1 2307   3.084   8.690   7.329                        
  193POPE   GL2 2308   3.170   8.620   7.360                        
  193POPE   C1A 2309   3.063   8.727   7.062                        
  193POPE   D2A 2310   3.064   8.697   6.753                        
  193POPE   C3A 2311   3.080   8.726   6.467                        
  193POPE   C4A 2312   3.078   8.693   6.138                        
  193POPE   C1B 2313   3.266   8.534   7.025                        
  193POPE   C2B 2314   3.251   8.546   6.764                        
  193POPE   C3B 2315   3.278   8.553   6.441                        
  193POPE   C4B 2316   3.280   8.547   6.170                        
  194POPE   NH3 2317   3.230  10.184   7.949                        
  194POPE   PO4 2318   3.236  10.161   7.663                        
  194POPE   GL1 2319   3.235  10.152   7.351                        
  194POPE   GL2 2320   3.165  10.273   7.343                        
  194POPE   C1A 2321   3.271  10.176   7.027                        
  194POPE   D2A 2322   3.255  10.144   6.743                        
  194POPE   C3A 2323   3.237  10.176   6.466                        
  194POPE   C4A 2324   3.234  10.159   6.145                        
  194POPE   C1B 2325   3.091  10.340   7.063                        
  194POPE   C2B 2326   3.066  10.367   6.756                        
  194POPE   C3B 2327   3.106  10.347   6.444                        
  194POPE   C4B 2328   3.074  10.344   6.136                        
  195POPE   NH3 2329   3.109  12.015   7.947                        
  195POPE   PO4 2330   3.120  12.017   7.651                        
  195POPE   GL1 2331   3.135  11.994   7.362                        
  195POPE   GL2 2332   3.152  11.902   7.363                        
  195POPE   C1A 2333   3.136  11.996   7.056                        
  195POPE   D2A 2334   3.135  12.000   6.741                        
  195POPE   C3A 2335   3.125  12.024   6.445                        
  195POPE   C4A 2336   3.114  11.986   6.130                        
  195POPE   C1B 2337   3.191  11.774   7.040                        
  195POPE   C2B 2338   3.224  11.780   6.741                        
  195POPE   C3B 2339   3.197  11.756   6.454                        
  195POPE   C4B 2340   3.206  11.777   6.146                        
  196POPE   NH3 2341   3.820   3.357   7.969                        
  196POPE   PO4 2342   3.831   3.358   7.664                        
  196POPE   GL1 2343   3.793   3.381   7.375                        
  196POPE   GL2 2344   3.836   3.255   7.329                        
  196POPE   C1A 2345   3.812   3.374   7.040                        
  196POPE   D2A 2346   3.823   3.371   6.733                        
  196POPE   C3A 2347   3.835   3.339   6.442                        
  196POPE   C4A 2348   3.818   3.336   6.174                        
  196POPE   C1B 2349   3.910   3.145   7.030                        
  196POPE   C2B 2350   3.869   3.105   6.762                        
  196POPE   C3B 2351   3.879   3.109   6.462                        
  196POPE   C4B 2352   3.910   3.118   6.163                        
  197POPE   NH3 2353   3.790   8.984   7.950                        
  197POPE   PO4 2354   3.824   8.981   7.660                        
  197POPE   GL1 2355   3.794   8.981   7.369                        
  197POPE   GL2 2356   3.899   8.860   7.362                        
  197POPE   C1A 2357   3.835   8.990   7.069                        
  197POPE   D2A 2358   3.811   8.957   6.756                        
  197POPE   C3A 2359   3.796   8.976   6.473                        
  197POPE   C4A 2360   3.827   8.958   6.144                        
  197POPE   C1B 2361   3.947   8.767   7.060                        
  197POPE   C2B 2362   3.953   8.766   6.738                        
  197POPE   C3B 2363   3.954   8.773   6.461                        
  197POPE   C4B 2364   3.965   8.775   6.160                        
  198POPE   NH3 2365   3.962   9.763   7.969                        
  198POPE   PO4 2366   3.977   9.756   7.668                        
  198POPE   GL1 2367   3.975   9.750   7.363                        
  198POPE   GL2 2368   3.866   9.661   7.342                        
  198POPE   C1A 2369   3.965   9.784   7.054                        
  198POPE   D2A 2370   3.984   9.782   6.731                        
  198POPE   C3A 2371   3.978   9.777   6.450                        
  198POPE   C4A 2372   3.949   9.754   6.163                        
  198POPE   C1B 2373   3.801   9.604   7.037                        
  198POPE   C2B 2374   3.804   9.579   6.754                        
  198POPE   C3B 2375   3.815   9.571   6.455                        
  198POPE   C4B 2376   3.781   9.576   6.173                        
  199POPE   NH3 2377   4.632   7.704   7.954                        
  199POPE   PO4 2378   4.637   7.687   7.673                        
  199POPE   GL1 2379   4.651   7.701   7.361                        
  199POPE   GL2 2380   4.550   7.685   7.373                        
  199POPE   C1A 2381   4.667   7.667   7.052                        
  199POPE   D2A 2382   4.657   7.670   6.736                        
  199POPE   C3A 2383   4.659   7.690   6.473                        
  199POPE   C4A 2384   4.666   7.657   6.151                        
  199POPE   C1B 2385   4.409   7.740   7.027                        
  199POPE   C2B 2386   4.408   7.723   6.726                        
  199POPE   C3B 2387   4.404   7.694   6.450                        
  199POPE   C4B 2388   4.395   7.710   6.138                        
  200POPE   NH3 2389   4.479  11.943   7.942                        
  200POPE   PO4 2390   4.469  11.934   7.670                        
  200POPE   GL1 2391   4.474  11.963   7.369                        
  200POPE   GL2 2392   4.532  11.835   7.325                        
  200POPE   C1A 2393   4.469  11.921   7.051                        
  200POPE   D2A 2394   4.467  11.920   6.731                        
  200POPE   C3A 2395   4.448  11.968   6.457                        
  200POPE   C4A 2396   4.440  11.919   6.151                        
  200POPE   C1B 2397   4.622  11.797   7.047                        
  200POPE   C2B 2398   4.661  11.800   6.730                        
  200POPE   C3B 2399   4.668  11.790   6.434                        
  200POPE   C4B 2400   4.656  11.759   6.162                        
  201POPE   NH3 2401   4.193   0.364   7.928                        
  201POPE   PO4 2402   4.215   0.345   7.643                        
  201POPE   GL1 2403   4.229   0.339   7.352                        
  201POPE   GL2 2404   4.320   0.370   7.344                        
  201POPE   C1A 2405   4.217   0.360   7.075                        
  201POPE   D2A 2406   4.205   0.367   6.746                        
  201POPE   C3A 2407   4.240   0.338   6.446                        
  201POPE   C4A 2408   4.222   0.333   6.167                        
  201POPE   C1B 2409   4.456   0.386   7.026                        
  201POPE   C2B 2410   4.454   0.373   6.749                        
  201POPE   C3B 2411   4.480   0.387   6.465                        
  201POPE   C4B 2412   4.477   0.415   6.158                        
  202POPE   NH3 2413   4.683   1.139   7.940                        
  202POPE   PO4 2414   4.702   1.169   7.675                        
  202POPE   GL1 2415   4.705   1.139   7.349                        
  202POPE   GL2 2416   4.577   1.212   7.336                        
  202POPE   C1A 2417   4.677   1.164   7.071                        
  202POPE   D2A 2418   4.682   1.159   6.731                        
  202POPE   C3A 2419   4.697   1.170   6.474                        
  202POPE   C4A 2420   4.698   1.162   6.134                        
  202POPE   C1B 2421   4.478   1.309   7.061                        
  202POPE   C2B 2422   4.489   1.287   6.742                        
  202POPE   C3B 2423   4.466   1.298   6.429                        
  202POPE   C4B 2424   4.488   1.274   6.137                        
  203POPE   NH3 2425   5.393   9.369   7.933                        
  203POPE   PO4 2426   5.369   9.370   7.661                        
  203POPE   GL1 2427   5.368   9.336   7.356                        
  203POPE   GL2 2428   5.250   9.406   7.349                        
  203POPE   C1A 2429   5.403   9.365   7.044                        
  203POPE   D2A 2430   5.371   9.356   6.748                        
  203POPE   C3A 2431   5.361   9.341   6.442                        
  203POPE   C4A 2432   5.390   9.334   6.145                        
  203POPE   C1B 2433   5.153   9.409   7.040                        
  203POPE   C2B 2434   5.164   9.430   6.752                        
  203POPE   C3B 2435   5.161   9.399   6.467                        
  203POPE   C4B 2436   5.150   9.404   6.161                        
  204POPE   NH3 2437   5.314  12.595   7.927                        
  204POPE   PO4 2438   5.325  12.598   7.642                        
  204POPE   GL1 2439   5.352  12.594   7.367                        
  204POPE   GL2 2440   5.236  12.674   7.349                        
  204POPE   C1A 2441   5.356  12.591   7.038                        
  204POPE   D2A 2442   5.338  12.604   6.772                        
  204POPE   C3A 2443   5.314  12.599   6.454                        
  204POPE   C4A 2444   5.315  12.578   6.144                        
  204POPE   C1B 2445   5.164  12.821   7.038                        
  204POPE   C2B 2446   5.183  12.786   6.750                        
  204POPE   C3B 2447   5.203  12.780   6.426                        
  204POPE   C4B 2448   5.165  12.776   6.157                        
  205POPE   NH3 2449   5.210   0.942   7.942                        
  205POPE   PO4 2450   5.234   0.959   7.660                        
  205POPE   GL1 2451   5.200   0.981   7.329                        
  205POPE   GL2 2452   5.236   1.049   7.328                        
  205POPE   C1A 2453   5.198   0.960   7.030                        
  205POPE   D2A 2454   5.208   0.949   6.764                        
  205POPE   C3A 2455   5.201   0.981   6.435                        
  205POPE   C4A 2456   5.209   0.981   6.126                        
  205POPE   C1B 2457   5.317   1.214   7.061                        
  205POPE   C2B 2458   5.319   1.188   6.727                        
  205POPE   C3B 2459   5.311   1.203   6.454                        
  205POPE   C4B 2460   5.325   1.181   6.129                        
  206POPE   NH3 2461   5.210   3.004   7.961                        
  206POPE   PO4 2462   5.224   2.999   7.653                        
  206POPE   GL1 2463   5.215   3.016   7.332                        
  206POPE   GL2 2464   5.281   2.874   7.369                        
  206POPE   C1A 2465   5.239   3.007   7.041                        
  206POPE   D2A 2466   5.208   3.002   6.761                        
  206POPE   C3A 2467   5.201   3.012   6.452                        
  206POPE   C4A 2468   5.221   2.969   6.140                        
  206POPE   C1B 2469   5.274   2.763   7.045                        
  206POPE   C2B 2470   5.275   2.757   6.763                        
  206POPE   C3B 2471   5.283   2.753   6.446                        
  206POPE   C4B 2472   5.320   2.770   6.141                        
  207POPE   NH3 2473   6.308   5.430   7.933                        
  207POPE   PO4 2474   6.279   5.453   7.642                        
  207POPE   GL1 2475   6.273   5.426   7.344                        
  207POPE   GL2 2476   6.356   5.562   7.373                        
  207POPE   C1A 2477   6.288   5.441   7.062                        
  207POPE   D2A 2478   6.297   5.447   6.737                        
  207POPE   C3A 2479   6.305   5.450   6.428                        
  207POPE   C4A 2480   6.313   5.452   6.144                        
  207POPE   C1B 2481   6.401   5.693   7.044                        
  207POPE   C2B 2482   6.371   5.660   6.741                        
  207POPE   C3B 2483   6.408   5.673   6.461                        
  207POPE   C4B 2484   6.384   5.691   6.143                        
  208POPE   NH3 2485   6.032   6.380   7.970                        
  208POPE   PO4 2486   6.051   6.360   7.650                        
  208POPE   GL1 2487   6.036   6.364   7.355                        
  208POPE   GL2 2488   6.064   6.235   7.330                        
  208POPE   C1A 2489   6.062   6.354   7.065                        
  208POPE   D2A 2490   6.064   6.375   6.752                        
  208POPE   C3A 2491   6.075   6.352   6.472                        
  208POPE   C4A 2492   6.048   6.348   6.153                        
  208POPE   C1B 2493   6.080   6.098   7.069                        
  208POPE   C2B 2494   6.056   6.123   6.736                        
  208POPE   C3B 2495   6.067   6.133   6.448                        
  208POPE   C4B 2496   6.078   6.105   6.142                        
  209POPE   NH3 2497   6.125   7.817   7.968                        
  209POPE   PO4 2498   6.108   7.777   7.628                        
  209POPE   GL1 2499   6.108   7.791   7.334                        
  209POPE   GL2 2500   5.977   7.879   7.352                        
  209POPE   C1A 2501   6.081   7.792   7.036                        
  209POPE   D2A 2502   6.104   7.811   6.744                        
  209POPE   C3A 2503   6.122   7.789   6.469                        
  209POPE   C4A 2504   6.082   7.791   6.170                        
  209POPE   C1B 2505   5.908   7.931   7.026                        
  209POPE   C2B 2506   5.916   7.928   6.757                        
  209POPE   C3B 2507   5.886   7.952   6.437                        
  209POPE   C4B 2508   5.888   7.937   6.144                        
  210POPE   NH3 2509   6.086   9.424   7.930                        
  210POPE   PO4 2510   6.074   9.407   7.645                        
  210POPE   GL1 2511   6.065   9.422   7.373                        
  210POPE   GL2 2512   5.965   9.505   7.363                        
  210POPE   C1A 2513   6.069   9.405   7.045                        
  210POPE   D2A 2514   6.056   9.404   6.739                        
  210POPE   C3A 2515   6.086   9.413   6.453                        
  210POPE   C4A 2516   6.045   9.407   6.136                        
  210POPE   C1B 2517   5.881   9.596   7.048                        
  210POPE   C2B 2518   5.913   9.593   6.769                        
  210POPE   C3B 2519   5.923   9.600   6.446                        
  210POPE   C4B 2520   5.892   9.585   6.158                        
  211POPE   NH3 2521   5.832  11.948   7.973                        
  211POPE   PO4 2522   5.817  11.974   7.643                        
  211POPE   GL1 2523   5.845  11.963   7.334                        
  211POPE   GL2 2524   5.928  11.908   7.347                        
  211POPE   C1A 2525   5.802  11.987   7.046                        
  211POPE   D2A 2526   5.807  11.955   6.772                        
  211POPE   C3A 2527   5.842  11.972   6.461                        
  211POPE   C4A 2528   5.833  11.974   6.164                        
  211POPE   C1B 2529   6.064  11.859   7.071                        
  211POPE   C2B 2530   6.036  11.857   6.765                        
  211POPE   C3B 2531   6.067  11.901   6.437                        
  211POPE   C4B 2532   6.050  11.903   6.149                        
  212POPE   NH3 2533   5.746   0.519   7.948                        
  212POPE   PO4 2534   5.775   0.472   7.674                        
  212POPE   GL1 2535   5.747   0.502   7.363                        
  212POPE   GL2 2536   5.722   0.386   7.369                        
  212POPE   C1A 2537   5.737   0.514   7.044                        
  212POPE   D2A 2538   5.740   0.520   6.738                        
  212POPE   C3A 2539   5.766   0.473   6.460                        
  212POPE   C4A 2540   5.773   0.478   6.146                        
  212POPE   C1B 2541   5.689   0.273   7.050                        
  212POPE   C2B 2542   5.724   0.277   6.755                        
  212POPE   C3B 2543   5.704   0.256   6.474                        
  212POPE   C4B 2544   5.719   0.259   6.173                        
  213POPE   NH3 2545   6.798   4.871   7.947                        
  213POPE   PO4 2546   6.796   4.907   7.637                        
  213POPE   GL1 2547   6.766   4.891   7.372                        
  213POPE   GL2 2548   6.661   4.959   7.326                        
  213POPE   C1A 2549   6.790   4.911   7.074                        
  213POPE   D2A 2550   6.788   4.916   6.739                        
  213POPE   C3A 2551   6.793   4.900   6.457                        
  213POPE   C4A 2552   6.770   4.869   6.153                        
  213POPE   C1B 2553   6.584   5.018   7.028                        
  213POPE   C2B 2554   6.543   4.995   6.769                        
  213POPE   C3B 2555   6.548   5.004   6.428                        
  213POPE   C4B 2556   6.557   5.036   6.138                        
  214POPE   NH3 2557   6.801   5.950   7.975                        
  214POPE   PO4 2558   6.818   5.902   7.639                        
  214POPE   GL1 2559   6.820   5.948   7.339                        
  214POPE   GL2 2560   6.764   6.057   7.343                        
  214POPE   C1A 2561   6.781   5.935   7.057                        
  214POPE   D2A 2562   6.796   5.933   6.730                        
  214POPE   C3A 2563   6.796   5.923   6.451                        
  214POPE   C4A 2564   6.795   5.941   6.144                        
  214POPE   C1B 2565   6.734   6.152   7.046                        
  214POPE   C2B 2566   6.763   6.168   6.769                        
  214POPE   C3B 2567   6.756   6.177   6.450                        
  214POPE   C4B 2568   6.758   6.149   6.146                        
  215POPE   NH3 2569   6.580  11.205   7.954                        
  215POPE   PO4 2570   6.549  11.223   7.662                        
  215POPE   GL1 2571   6.548  11.246   7.325                        
  215POPE   GL2 2572   6.655  11.319   7.364                        
  215POPE   C1A 2573   6.549  11.217   7.041                        
  215POPE   D2A 2574   6.543  11.242   6.732                        
  215POPE   C3A 2575   6.577  11.242   6.458                        
  215POPE   C4A 2576   6.564  11.215   6.170                        
  215POPE   C1B 2577   6.746  11.424   7.033                        
  215POPE   C2B 2578   6.721  11.424   6.754                        
  215POPE   C3B 2579   6.738  11.424   6.457                        
  215POPE   C4B 2580   6.741  11.422   6.167                        
  216POPE   NH3 2581   6.501  12.020   7.943                        
  216POPE   PO4 2582   6.513  12.003   7.657                        
  216POPE   GL1 2583   6.487  12.034   7.348                        
  216POPE   GL2 2584   6.594  12.075   7.364                        
  216POPE   C1A 2585   6.503  12.009   7.034                        
  216POPE   D2A 2586   6.501  12.011   6.760                        
  216POPE   C3A 2587   6.497  12.011   6.470                        
  216POPE   C4A 2588   6.505  12.001   6.129                        
  216POPE   C1B 2589   6.693  12.159   7.074                        
  216POPE   C2B 2590   6.721  12.137   6.757                        
  216POPE   C3B 2591   6.717  12.151   6.462                        
  216POPE   C4B 2592   6.687  12.176   6.170                        
  217POPE   NH3 2593   6.560  12.714   7.945                        
  217POPE   PO4 2594   6.546  12.751   7.646                        
  217POPE   GL1 2595   6.526  12.738   7.355                        
  217POPE   GL2 2596   6.632  12.844   7.340                        
  217POPE   C1A 2597   6.536  12.742   7.044                        
  217POPE   D2A 2598   6.546  12.747   6.743                        
  217POPE   C3A 2599   6.553  12.721   6.435                        
  217POPE   C4A 2600   6.543  12.747   6.149                        
  217POPE   C1B 2601   6.714  12.909   7.055                        
  217POPE   C2B 2602   6.715  12.903   6.751                        
  217POPE   C3B 2603   6.703  12.912   6.473                        
  217POPE   C4B 2604   6.735  12.912   6.163                        
  218POPE   NH3 2605   6.621  13.679   7.942                        
  218POPE   PO4 2606   6.643  13.685   7.629                        
  218POPE   GL1 2607   6.597  13.705   7.338                        
  218POPE   GL2 2608   6.735  13.584   7.355                        
  218POPE   C1A 2609   6.619  13.679   7.030                        
  218POPE   D2A 2610   6.611  13.669   6.763                        
  218POPE   C3A 2611   6.629  13.684   6.472                        
  218POPE   C4A 2612   6.614  13.706   6.134                        
  218POPE   C1B 2613   6.797  13.513   7.074                        
  218POPE   C2B 2614   6.797  13.507   6.744                        
  218POPE   C3B 2615   6.800  13.516   6.452                        
  218POPE   C4B 2616   6.801  13.510   6.150                        
  219POPE   NH3 2617   7.173   3.046   7.945                        
  219POPE   PO4 2618   7.191   3.052   7.650                        
  219POPE   GL1 2619   7.173   3.039   7.344                        
  219POPE   GL2 2620   7.307   2.996   7.356                        
  219POPE   C1A 2621   7.162   3.061   7.060                        
  219POPE   D2A 2622   7.196   3.074   6.742                        
  219POPE   C3A 2623   7.165   3.072   6.470                        
  219POPE   C4A 2624   7.178   3.064   6.142                        
  219POPE   C1B 2625   7.393   2.946   7.029                        
  219POPE   C2B 2626   7.408   2.936   6.744                        
  219POPE   C3B 2627   7.422   2.946   6.437                        
  219POPE   C4B 2628   7.420   2.929   6.149                        
  220POPE   NH3 2629   7.346   8.063   7.951                        
  220POPE   PO4 2630   7.346   8.046   7.640                        
  220POPE   GL1 2631   7.349   8.057   7.346                        
  220POPE   GL2 2632   7.421   8.187   7.326                        
  220POPE   C1A 2633   7.335   8.064   7.030                        
  220POPE   D2A 2634   7.361   8.049   6.749                        
  220POPE   C3A 2635   7.379   8.036   6.457                        
  220POPE   C4A 2636   7.358   8.074   6.168                        
  220POPE   C1B 2637   7.423   8.309   7.042                        
  220POPE   C2B 2638   7.443   8.281   6.738                        
  220POPE   C3B 2639   7.452   8.285   6.470                        
  220POPE   C4B 2640   7.460   8.293   6.156                        
  221POPE   NH3 2641   7.606  13.647   7.958                        
  221POPE   PO4 2642   7.561  13.666   7.631                        
  221POPE   GL1 2643   7.567  13.677   7.328                        
  221POPE   GL2 2644   7.489  13.608   7.338                        
  221POPE   C1A 2645   7.596  13.639   7.072                        
  221POPE   D2A 2646   7.581  13.668   6.766                        
  221POPE   C3A 2647   7.587  13.659   6.460                        
  221POPE   C4A 2648   7.564  13.649   6.147                        
  221POPE   C1B 2649   7.350  13.586   7.070                        
  221POPE   C2B 2650   7.324  13.601   6.735                        
  221POPE   C3B 2651   7.347  13.584   6.437                        
  221POPE   C4B 2652   7.353  13.570   6.152                        
  222POPE   NH3 2653   8.296   1.572   7.956                        
  222POPE   PO4 2654   8.294   1.536   7.655                        
  222POPE   GL1 2655   8.294   1.529   7.330                        
  222POPE   GL2 2656   8.454   1.562   7.335                        
  222POPE   C1A 2657   8.309   1.545   7.044                        
  222POPE   D2A 2658   8.330   1.544   6.737                        
  222POPE   C3A 2659   8.284   1.567   6.473                        
  222POPE   C4A 2660   8.314   1.532   6.159                        
  222POPE   C1B 2661   8.551   1.553   7.058                        
  222POPE   C2B 2662   8.565   1.554   6.768                        
  222POPE   C3B 2663   8.549   1.584   6.471                        
  222POPE   C4B 2664   8.562   1.583   6.150                        
  223POPE   NH3 2665   8.135   2.363   7.936                        
  223POPE   PO4 2666   8.089   2.386   7.643                        
  223POPE   GL1 2667   8.117   2.392   7.334                        
  223POPE   GL2 2668   8.223   2.303   7.330                        
  223POPE   C1A 2669   8.122   2.385   7.047                        
  223POPE   D2A 2670   8.103   2.396   6.734                        
  223POPE   C3A 2671   8.102   2.363   6.448                        
  223POPE   C4A 2672   8.102   2.380   6.148                        
  223POPE   C1B 2673   8.285   2.202   7.031                        
  223POPE   C2B 2674   8.312   2.192   6.731                        
  223POPE   C3B 2675   8.301   2.222   6.452                        
  223POPE   C4B 2676   8.295   2.210   6.131                        
  224POPE   NH3 2677   7.933   3.029   7.968                        
  224POPE   PO4 2678   7.955   3.043   7.651                        
  224POPE   GL1 2679   7.934   3.012   7.364                        
  224POPE   GL2 2680   8.058   3.036   7.355                        
  224POPE   C1A 2681   7.959   3.021   7.070                        
  224POPE   D2A 2682   7.921   3.020   6.746                        
  224POPE   C3A 2683   7.941   3.012   6.435                        
  224POPE   C4A 2684   7.958   3.020   6.147                        
  224POPE   C1B 2685   8.200   3.107   7.047                        
  224POPE   C2B 2686   8.194   3.101   6.773                        
  224POPE   C3B 2687   8.187   3.084   6.465                        
  224POPE   C4B 2688   8.198   3.081   6.134                        
  225POPE   NH3 2689   7.997   4.569   7.962                        
  225POPE   PO4 2690   8.033   4.547   7.626                        
  225POPE   GL1 2691   8.003   4.538   7.358                        
  225POPE   GL2 2692   8.091   4.624   7.346                        
  225POPE   C1A 2693   8.011   4.540   7.074                        
  225POPE   D2A 2694   7.990   4.545   6.734                        
  225POPE   C3A 2695   8.018   4.560   6.442                        
  225POPE   C4A 2696   7.987   4.571   6.144                        
  225POPE   C1B 2697   8.186   4.735   7.055                        
  225POPE   C2B 2698   8.181   4.751   6.751                        
  225POPE   C3B 2699   8.186   4.762   6.427                        
  225POPE   C4B 2700   8.179   4.732   6.133                        
  226POPE   NH3 2701   7.957   9.248   7.956                        
  226POPE   PO4 2702   7.952   9.257   7.646                        
  226POPE   GL1 2703   7.954   9.225   7.364                        
  226POPE   GL2 2704   8.003   9.378   7.374                        
  226POPE   C1A 2705   7.982   9.228   7.034                        
  226POPE   D2A 2706   7.954   9.236   6.749                        
  226POPE   C3A 2707   7.948   9.245   6.452                        
  226POPE   C4A 2708   7.945   9.259   6.135                        
  226POPE   C1B 2709   8.082   9.475   7.042                        
  226POPE   C2B 2710   8.051   9.461   6.735                        
  226POPE   C3B 2711   8.068   9.488   6.425                        
  226POPE   C4B 2712   8.082   9.475   6.161                        
  227POPE   NH3 2713   8.023  11.029   7.932                        
  227POPE   PO4 2714   7.998  11.020   7.631                        
  227POPE   GL1 2715   8.015  11.046   7.365                        
  227POPE   GL2 2716   8.021  10.929   7.329                        
  227POPE   C1A 2717   8.021  11.058   7.036                        
  227POPE   D2A 2718   8.041  11.051   6.735                        
  227POPE   C3A 2719   8.042  11.058   6.468                        
  227POPE   C4A 2720   8.012  11.057   6.134                        
  227POPE   C1B 2721   7.998  10.780   7.037                        
  227POPE   C2B 2722   8.017  10.784   6.745                        
  227POPE   C3B 2723   7.998  10.810   6.439                        
  227POPE   C4B 2724   8.001  10.764   6.147                        
  228POPE   NH3 2725   8.689   1.050   7.967                        
  228POPE   PO4 2726   8.674   1.086   7.638                        
  228POPE   GL1 2727   8.688   1.071   7.362                        
  228POPE   GL2 2728   8.816   1.015   7.366                        
  228POPE   C1A 2729   8.664   1.055   7.050                        
  228POPE   D2A 2730   8.700   1.048   6.769                        
  228POPE   C3A 2731   8.679   1.076   6.466                        
  228POPE   C4A 2732   8.666   1.073   6.131                        
  228POPE   C1B 2733   8.887   0.971   7.052                        
  228POPE   C2B 2734   8.906   0.985   6.725                        
  228POPE   C3B 2735   8.929   0.960   6.453                        
  228POPE   C4B 2736   8.894   0.966   6.168                        
  229POPE   NH3 2737   8.562   9.603   7.963                        
  229POPE   PO4 2738   8.564   9.610   7.634                        
  229POPE   GL1 2739   8.572   9.597   7.372                        
  229POPE   GL2 2740   8.680   9.614   7.369                        
  229POPE   C1A 2741   8.564   9.592   7.063                        
  229POPE   D2A 2742   8.559   9.596   6.729                        
  229POPE   C3A 2743   8.569   9.581   6.468                        
  229POPE   C4A 2744   8.558   9.593   6.152                        
  229POPE   C1B 2745   8.780   9.704   7.038                        
  229POPE   C2B 2746   8.777   9.692   6.758                        
  229POPE   C3B 2747   8.784   9.680   6.434                        
  229POPE   C4B 2748   8.818   9.666   6.163                        
  230POPE   NH3 2749   8.336  11.505   7.933                        
  230POPE   PO4 2750   8.350  11.491   7.628                        
  230POPE   GL1 2751   8.369  11.496   7.370                        
  230POPE   GL2 2752   8.462  11.474   7.373                        
  230POPE   C1A 2753   8.330  11.501   7.059                        
  230POPE   D2A 2754   8.363  11.505   6.771                        
  230POPE   C3A 2755   8.347  11.505   6.430                        
  230POPE   C4A 2756   8.346  11.471   6.133                        
  230POPE   C1B 2757   8.611  11.431   7.031                        
  230POPE   C2B 2758   8.587  11.389   6.747                        
  230POPE   C3B 2759   8.611  11.386   6.456                        
  230POPE   C4B 2760   8.603  11.384   6.135                        
  231POPE   NH3 2761   9.244   0.471   7.926                        
  231POPE   PO4 2762   9.255   0.439   7.645                        
  231POPE   GL1 2763   9.235   0.448   7.336                        
  231POPE   GL2 2764   9.357   0.423   7.367                        
  231POPE   C1A 2765   9.255   0.443   7.036                        
  231POPE   D2A 2766   9.265   0.460   6.740                        
  231POPE   C3A 2767   9.242   0.476   6.445                        
  231POPE   C4A 2768   9.269   0.460   6.163                        
  231POPE   C1B 2769   9.489   0.381   7.062                        
  231POPE   C2B 2770   9.496   0.371   6.760                        
  231POPE   C3B 2771   9.490   0.367   6.437                        
  231POPE   C4B 2772   9.472   0.404   6.134                        
  232POPE   NH3 2773   9.538   1.216   7.942                        
  232POPE   PO4 2774   9.579   1.231   7.665                        
  232POPE   GL1 2775   9.552   1.201   7.359                        
  232POPE   GL2 2776   9.429   1.188   7.364                        
  232POPE   C1A 2777   9.532   1.197   7.046                        
  232POPE   D2A 2778   9.557   1.200   6.754                        
  232POPE   C3A 2779   9.536   1.198   6.452                        
  232POPE   C4A 2780   9.542   1.200   6.157                        
  232POPE   C1B 2781   9.319   1.158   7.057                        
  232POPE   C2B 2782   9.330   1.170   6.739                        
  232POPE   C3B 2783   9.289   1.170   6.455                        
  232POPE   C4B 2784   9.326   1.177   6.155                        
  233POPE   NH3 2785   9.245   5.783   7.940                        
  233POPE   PO4 2786   9.208   5.784   7.669                        
  233POPE   GL1 2787   9.223   5.796   7.357                        
  233POPE   GL2 2788   9.352   5.820   7.341                        
  233POPE   C1A 2789   9.229   5.782   7.031                        
  233POPE   D2A 2790   9.244   5.806   6.733                        
  233POPE   C3A 2791   9.254   5.790   6.461                        
  233POPE   C4A 2792   9.246   5.798   6.138                        
  233POPE   C1B 2793   9.494   5.839   7.051                        
  233POPE   C2B 2794   9.480   5.834   6.743                        
  233POPE   C3B 2795   9.465   5.831   6.472                        
  233POPE   C4B 2796   9.493   5.875   6.153                        
  234POPE   NH3 2797   9.344   7.231   7.929                        
  234POPE   PO4 2798   9.363   7.197   7.637                        
  234POPE   GL1 2799   9.324   7.202   7.359                        
  234POPE   GL2 2800   9.401   7.335   7.370                        
  234POPE   C1A 2801   9.359   7.211   7.030                        
  234POPE   D2A 2802   9.341   7.195   6.755                        
  234POPE   C3A 2803   9.324   7.237   6.442                        
  234POPE   C4A 2804   9.336   7.226   6.172                        
  234POPE   C1B 2805   9.450   7.428   7.052                        
  234POPE   C2B 2806   9.431   7.428   6.730                        
  234POPE   C3B 2807   9.438   7.463   6.469                        
  234POPE   C4B 2808   9.415   7.451   6.148                        
  235POPE   NH3 2809  10.152   3.427   7.938                        
  235POPE   PO4 2810  10.159   3.414   7.661                        
  235POPE   GL1 2811  10.185   3.431   7.367                        
  235POPE   GL2 2812  10.120   3.543   7.352                        
  235POPE   C1A 2813  10.185   3.428   7.063                        
  235POPE   D2A 2814  10.137   3.407   6.758                        
  235POPE   C3A 2815  10.146   3.449   6.455                        
  235POPE   C4A 2816  10.166   3.445   6.136                        
  235POPE   C1B 2817  10.046   3.646   7.028                        
  235POPE   C2B 2818  10.040   3.658   6.730                        
  235POPE   C3B 2819  10.010   3.663   6.430                        
  235POPE   C4B 2820  10.020   3.654   6.149                        
  236POPE   NH3 2821  10.250  11.804   7.932                        
  236POPE   PO4 2822  10.249  11.796   7.641                        
  236POPE   GL1 2823  10.201  11.803   7.357                        
  236POPE   GL2 2824  10.261  11.905   7.334                        
  236POPE   C1A 2825  10.232  11.804   7.026                        
  236POPE   D2A 2826  10.243  11.806   6.738                        
  236POPE   C3A 2827  10.216  11.798   6.468                        
  236POPE   C4A 2828  10.237  11.830   6.130                        
  236POPE   C1B 2829  10.326  12.040   7.053                        
  236POPE   C2B 2830  10.334  12.034   6.727                        
  236POPE   C3B 2831  10.313  12.053   6.471                        
  236POPE   C4B 2832  10.326  12.060   6.155                        
  237POPE   NH3 2833  10.851   3.402   7.970                        
  237POPE   PO4 2834  10.856   3.422   7.643                        
  237POPE   GL1 2835  10.826   3.397   7.335                        
  237POPE   GL2 2836  10.795   3.539   7.347                        
  237POPE   C1A 2837  10.837   3.384   7.047                        
  237POPE   D2A 2838  10.855   3.403   6.760                        
  237POPE   C3A 2839  10.831   3.416   6.437                        
  237POPE   C4A 2840  10.837   3.413   6.139                        
  237POPE   C1B 2841  10.765   3.632   7.056                        
  237POPE   C2B 2842  10.743   3.621   6.761                        
  237POPE   C3B 2843  10.752   3.640   6.473                        
  237POPE   C4B 2844  10.729   3.631   6.153                        
  238POPE   NH3 2845  10.772   5.727   7.950                        
  238POPE   PO4 2846  10.757   5.688   7.634                        
  238POPE   GL1 2847  10.796   5.732   7.339                        
  238POPE   GL2 2848  10.730   5.828   7.335                        
  238POPE   C1A 2849  10.768   5.704   7.071                        
  238POPE   D2A 2850  10.764   5.707   6.772                        
  238POPE   C3A 2851  10.759   5.726   6.452                        
  238POPE   C4A 2852  10.764   5.733   6.135                        
  238POPE   C1B 2853  10.637   5.916   7.044                        
  238POPE   C2B 2854  10.640   5.930   6.770                        
  238POPE   C3B 2855  10.666   5.933   6.449                        
  238POPE   C4B 2856  10.642   5.950   6.129                        
  239POPE   NH3 2857  10.910   6.486   7.937                        
  239POPE   PO4 2858  10.931   6.515   7.641                        
  239POPE   GL1 2859  10.915   6.522   7.346                        
  239POPE   GL2 2860  10.822   6.609   7.337                        
  239POPE   C1A 2861  10.894   6.516   7.041                        
  239POPE   D2A 2862  10.917   6.521   6.766                        
  239POPE   C3A 2863  10.926   6.493   6.453                        
  239POPE   C4A 2864  10.914   6.496   6.162                        
  239POPE   C1B 2865  10.742   6.668   7.063                        
  239POPE   C2B 2866  10.754   6.696   6.733                        
  239POPE   C3B 2867  10.725   6.704   6.428                        
  239POPE   C4B 2868  10.745   6.692   6.162                        
  240POPE   NH3 2869  11.466   2.696   7.932                        
  240POPE   PO4 2870  11.423   2.674   7.637                        
  240POPE   GL1 2871  11.441   2.699   7.343                        
  240POPE   GL2 2872  11.497   2.792   7.364                        
  240POPE   C1A 2873  11.430   2.680   7.045                        
  240POPE   D2A 2874  11.453   2.668   6.766                        
  240POPE   C3A 2875  11.454   2.663   6.425                        
  240POPE   C4A 2876  11.430   2.667   6.153                        
  240POPE   C1B 2877  11.564   2.914   7.053                        
  240POPE   C2B 2878  11.547   2.885   6.753                        
  240POPE   C3B 2879  11.536   2.886   6.426                        
  240POPE   C4B 2880  11.551   2.922   6.143                        
  241POPE   NH3 2881  11.589   3.400   7.928                        
  241POPE   PO4 2882  11.593   3.386   7.655                        
  241POPE   GL1 2883  11.578   3.390   7.371                        
  241POPE   GL2 2884  11.470   3.457   7.330                        
  241POPE   C1A 2885  11.561   3.393   7.062                        
  241POPE   D2A 2886  11.554   3.383   6.746                        
  241POPE   C3A 2887  11.584   3.389   6.472                        
  241POPE   C4A 2888  11.583   3.395   6.161                        
  241POPE   C1B 2889  11.329   3.531   7.049                        
  241POPE   C2B 2890  11.350   3.513   6.772                        
  241POPE   C3B 2891  11.335   3.505   6.453                        
  241POPE   C4B 2892  11.363   3.494   6.169                        
  242POPE   NH3 2893  11.648   6.712   7.944                        
  242POPE   PO4 2894  11.635   6.706   7.643                        
  242POPE   GL1 2895  11.658   6.690   7.348                        
  242POPE   GL2 2896  11.531   6.691   7.350                        
  242POPE   C1A 2897  11.652   6.726   7.042                        
  242POPE   D2A 2898  11.635   6.719   6.763                        
  242POPE   C3A 2899  11.674   6.718   6.455                        
  242POPE   C4A 2900  11.641   6.713   6.161                        
  242POPE   C1B 2901  11.388   6.680   7.053                        
  242POPE   C2B 2902  11.412   6.673   6.732                        
  242POPE   C3B 2903  11.397   6.660   6.442                        
  242POPE   C4B 2904  11.426   6.669   6.163                        
  243POPE   NH3 2905  12.276   9.565   7.965                        
  243POPE   PO4 2906  12.263   9.566   7.652                        
  243POPE   GL1 2907  12.278   9.547   7.369                        
  243POPE   GL2 2908  12.250   9.706   7.326                        
  243POPE   C1A 2909  12.272   9.590   7.036                        
  243POPE   D2A 2910  12.278   9.551   6.744                        
  243POPE   C3A 2911  12.302   9.581   6.428                        
  243POPE   C4A 2912  12.306   9.579   6.169                        
  243POPE   C1B 2913  12.223   9.799   7.046                        
  243POPE   C2B 2914  12.224   9.797   6.766                        
  243POPE   C3B 2915  12.221   9.828   6.435                        
  243POPE   C4B 2916  12.232   9.793   6.133                        
  244POPE   NH3 2917  12.105  11.274   7.938                        
  244POPE   PO4 2918  12.108  11.285   7.633                        
  244POPE   GL1 2919  12.087  11.268   7.369                        
  244POPE   GL2 2920  12.210  11.283   7.368                        
  244POPE   C1A 2921  12.127  11.252   7.028                        
  244POPE   D2A 2922  12.102  11.282   6.772                        
  244POPE   C3A 2923  12.087  11.281   6.461                        
  244POPE   C4A 2924  12.130  11.268   6.158                        
  244POPE   C1B 2925  12.347  11.250   7.035                        
  244POPE   C2B 2926  12.341  11.240   6.747                        
  244POPE   C3B 2927  12.357  11.278   6.445                        
  244POPE   C4B 2928  12.378  11.274   6.129                        
  245POPE   NH3 2929  12.353  13.609   7.958                        
  245POPE   PO4 2930  12.356  13.611   7.665                        
  245POPE   GL1 2931  12.385  13.631   7.358                        
  245POPE   GL2 2932  12.265  13.602   7.342                        
  245POPE   C1A 2933  12.350  13.608   7.034                        
  245POPE   D2A 2934  12.350  13.593   6.740                        
  245POPE   C3A 2935  12.384  13.633   6.437                        
  245POPE   C4A 2936  12.364  13.631   6.149                        
  245POPE   C1B 2937  12.126  13.554   7.055                        
  245POPE   C2B 2938  12.144  13.556   6.762                        
  245POPE   C3B 2939  12.126  13.538   6.429                        
  245POPE   C4B 2940  12.136  13.567   6.168                        
  246POPE   NH3 2941  11.798   2.106   7.926                        
  246POPE   PO4 2942  11.808   2.111   7.662                        
  246POPE   GL1 2943  11.811   2.090   7.363                        
  246POPE   GL2 2944  11.763   2.215   7.330                        
  246POPE   C1A 2945  11.829   2.102   7.030                        
  246POPE   D2A 2946  11.804   2.080   6.729                        
  246POPE   C3A 2947  11.816   2.111   6.472                        
  246POPE   C4A 2948  11.809   2.097   6.161                        
  246POPE   C1B 2949  11.761   2.334   7.071                        
  246POPE   C2B 2950  11.731   2.332   6.732                        
  246POPE   C3B 2951  11.757   2.335   6.453                        
  246POPE   C4B 2952  11.762   2.348   6.143                        
  247POPE   NH3 2953  12.107   3.396   7.950                        
  247POPE   PO4 2954  12.115   3.387   7.639                        
  247POPE   GL1 2955  12.111   3.387   7.327                        
  247POPE   GL2 2956  12.214   3.321   7.353                        
  247POPE   C1A 2957  12.142   3.379   7.046                        
  247POPE   D2A 2958  12.139   3.414   6.756                        
  247POPE   C3A 2959  12.097   3.381   6.471                        
  247POPE   C4A 2960  12.125   3.377   6.160                        
  247POPE   C1B 2961  12.345   3.287   7.026                        
  247POPE   C2B 2962  12.327   3.280   6.756                        
  247POPE   C3B 2963  12.354   3.293   6.437                        
  247POPE   C4B 2964  12.347   3.307   6.150                        
  248POPE   NH3 2965  11.974   3.999   7.956                        
  248POPE   PO4 2966  11.975   4.004   7.631                        
  248POPE   GL1 2967  11.971   3.989   7.371                        
  248POPE   GL2 2968  11.915   3.847   7.356                        
  248POPE   C1A 2969  11.964   3.988   7.048                        
  248POPE   D2A 2970  11.956   3.965   6.743                        
  248POPE   C3A 2971  11.939   3.992   6.468                        
  248POPE   C4A 2972  11.931   3.965   6.140                        
  248POPE   C1B 2973  11.861   3.758   7.067                        
  248POPE   C2B 2974  11.840   3.754   6.729                        
  248POPE   C3B 2975  11.864   3.757   6.451                        
  248POPE   C4B 2976  11.847   3.760   6.131                        
  249POPE   NH3 2977  12.959   7.171   7.946                        
  249POPE   PO4 2978  12.945   7.192   7.629                        
  249POPE   GL1 2979  12.945   7.198   7.333                        
  249POPE   GL2 2980  12.903   7.065   7.367                        
  249POPE   C1A 2981  12.922   7.193   7.073                        
  249POPE   D2A 2982  12.948   7.204   6.751                        
  249POPE   C3A 2983  12.968   7.179   6.435                        
  249POPE   C4A 2984  12.969   7.169   6.174                        
  249POPE   C1B 2985  12.883   6.971   7.073                        
  249POPE   C2B 2986  12.856   6.954   6.745                        
  249POPE   C3B 2987  12.890   6.928   6.467                        
  249POPE   C4B 2988  12.866   6.933   6.148                        
  250POPE   NH3 2989  12.787   8.586   7.934                        
  250POPE   PO4 2990  12.797   8.581   7.627                        
  250POPE   GL1 2991  12.771   8.565   7.364                        
  250POPE   GL2 2992  12.898   8.563   7.344                        
  250POPE   C1A 2993  12.768   8.576   7.072                        
  250POPE   D2A 2994  12.778   8.568   6.730                        
  250POPE   C3A 2995  12.809   8.589   6.444                        
  250POPE   C4A 2996  12.791   8.570   6.144                        
  250POPE   C1B 2997  13.024   8.537   7.037                        
  250POPE   C2B 2998  13.019   8.531   6.738                        
  250POPE   C3B 2999  13.055   8.529   6.454                        
  250POPE   C4B 3000  13.031   8.552   6.154                        
  251POPE   NH3 3001  12.926  11.151   7.961                        
  251POPE   PO4 3002  12.920  11.172   7.672                        
  251POPE   GL1 3003  12.932  11.142   7.343                        
  251POPE   GL2 3004  12.913  11.053   7.358                        
  251POPE   C1A 3005  12.934  11.174   7.072                        
  251POPE   D2A 3006  12.912  11.132   6.752                        
  251POPE   C3A 3007  12.936  11.151   6.445                        
  251POPE   C4A 3008  12.928  11.177   6.161                        
  251POPE   C1B 3009  12.899  10.894   7.071                        
  251POPE   C2B 3010  12.877  10.925   6.765                        
  251POPE   C3B 3011  12.923  10.894   6.473                        
  251POPE   C4B 3012  12.920  10.925   6.163                        
  252POPE   NH3 3013  13.665   6.104   7.930                        
  252POPE   PO4 3014  13.646   6.104   7.650                        
  252POPE   GL1 3015  13.640   6.074   7.336                        
  252POPE   GL2 3016  13.612   6.208   7.359                        
  252POPE   C1A 3017  13.637   6.110   7.031                        
  252POPE   D2A 3018  13.637   6.110   6.729                        
  252POPE   C3A 3019  13.632   6.116   6.475                        
  252POPE   C4A 3020  13.661   6.069   6.136                        
  252POPE   C1B 3021  13.585   6.344   7.035                        
  252POPE   C2B 3022  13.599   6.362   6.731                        
  252POPE   C3B 3023  13.589   6.314   6.462                        
  252POPE   C4B 3024  13.579   6.320   6.151                        
  253POPE   NH3 3025  13.608   3.023   7.942                        
  253POPE   PO4 3026  13.575   3.003   7.647                        
  253POPE   GL1 3027  13.596   2.996   7.359                        
  253POPE   GL2 3028  13.620   3.106   7.339                        
  253POPE   C1A 3029  13.592   3.031   7.041                        
  253POPE   D2A 3030  13.592   2.983   6.765                        
  253POPE   C3A 3031  13.564   3.019   6.438                        
  253POPE   C4A 3032  13.601   2.989   6.150                        
  253POPE   C1B 3033  13.687   3.233   7.057                        
  253POPE   C2B 3034  13.673   3.236   6.725                        
  253POPE   C3B 3035  13.647   3.238   6.437                        
  253POPE   C4B 3036  13.653   3.223   6.151                        
  254POPG   GL0 3037   0.495  11.834   7.945                        
  254POPG   PO4 3038   0.515  11.824   7.635                        
  254POPG   GL1 3039   0.487  11.827   7.371                        
  254POPG   GL2 3040   0.391  11.827   7.328                        
  254POPG   C1A 3041   0.485  11.857   7.043                        
  254POPG   D2A 3042   0.483  11.859   6.728                        
  254POPG   C3A 3043   0.506  11.855   6.445                        
  254POPG   C4A 3044   0.483  11.823   6.152                        
  254POPG   C1B 3045   0.242  11.871   7.038                        
  254POPG   C2B 3046   0.268  11.857   6.761                        
  254POPG   C3B 3047   0.237  11.871   6.433                        
  254POPG   C4B 3048   0.255  11.852   6.175                        
  255POPG   GL0 3049   0.483  13.721   7.971                        
  255POPG   PO4 3050   0.484  13.715   7.635                        
  255POPG   GL1 3051   0.456  13.692   7.345                        
  255POPG   GL2 3052   0.354  13.643   7.352                        
  255POPG   C1A 3053   0.470  13.725   7.074                        
  255POPG   D2A 3054   0.484  13.730   6.757                        
  255POPG   C3A 3055   0.454  13.699   6.467                        
  255POPG   C4A 3056   0.476  13.731   6.145                        
  255POPG   C1B 3057   0.297  13.572   7.053                        
  255POPG   C2B 3058   0.269  13.539   6.767                        
  255POPG   C3B 3059   0.259  13.564   6.447                        
  255POPG   C4B 3060   0.260  13.551   6.145                        
  256POPG   GL0 3061   0.240   2.980   7.958                        
  256POPG   PO4 3062   0.252   3.005   7.666                        
  256POPG   GL1 3063   0.282   3.005   7.363                        
  256POPG   GL2 3064   0.384   3.049   7.370                        
  256POPG   C1A 3065   0.241   2.988   7.072                        
  256POPG   D2A 3066   0.255   2.971   6.734                        
  256POPG   C3A 3067   0.238   2.998   6.443                        
  256POPG   C4A 3068   0.284   2.986   6.136                        
  256POPG   C1B 3069   0.487   3.083   7.029                        
  256POPG   C2B 3070   0.513   3.062   6.759                        
  256POPG   C3B 3071   0.466   3.099   6.437                        
  256POPG   C4B 3072   0.483   3.074   6.132                        
  257POPG   GL0 3073   0.449   3.628   7.930                        
  257POPG   PO4 3074   0.418   3.651   7.648                        
  257POPG   GL1 3075   0.435   3.620   7.369                        
  257POPG   GL2 3076   0.366   3.755   7.370                        
  257POPG   C1A 3077   0.455   3.642   7.058                        
  257POPG   D2A 3078   0.441   3.643   6.753                        
  257POPG   C3A 3079   0.432   3.657   6.441                        
  257POPG   C4A 3080   0.430   3.626   6.143                        
  257POPG   C1B 3081   0.321   3.841   7.034                        
  257POPG   C2B 3082   0.319   3.872   6.746                        
  257POPG   C3B 3083   0.338   3.832   6.472                        
  257POPG   C4B 3084   0.304   3.858   6.128                        
  258POPG   GL0 3085   0.908   6.382   7.931                        
  258POPG   PO4 3086   0.936   6.387   7.657                        
  258POPG   GL1 3087   0.927   6.424   7.359                        
  258POPG   GL2 3088   1.065   6.465   7.349                        
  258POPG   C1A 3089   0.948   6.398   7.036                        
  258POPG   D2A 3090   0.928   6.387   6.726                        
  258POPG   C3A 3091   0.928   6.398   6.472                        
  258POPG   C4A 3092   0.913   6.431   6.171                        
  258POPG   C1B 3093   1.154   6.550   7.068                        
  258POPG   C2B 3094   1.149   6.525   6.753                        
  258POPG   C3B 3095   1.154   6.556   6.434                        
  258POPG   C4B 3096   1.157   6.546   6.165                        
  259POPG   GL0 3097   1.161   9.488   7.933                        
  259POPG   PO4 3098   1.179   9.496   7.657                        
  259POPG   GL1 3099   1.165   9.473   7.342                        
  259POPG   GL2 3100   1.126   9.364   7.339                        
  259POPG   C1A 3101   1.162   9.501   7.056                        
  259POPG   D2A 3102   1.133   9.515   6.774                        
  259POPG   C3A 3103   1.160   9.498   6.446                        
  259POPG   C4A 3104   1.167   9.510   6.143                        
  259POPG   C1B 3105   1.067   9.285   7.069                        
  259POPG   C2B 3106   1.032   9.285   6.763                        
  259POPG   C3B 3107   1.043   9.263   6.444                        
  259POPG   C4B 3108   1.042   9.252   6.131                        
  260POPG   GL0 3109   1.182   0.355   7.959                        
  260POPG   PO4 3110   1.163   0.363   7.662                        
  260POPG   GL1 3111   1.174   0.373   7.367                        
  260POPG   GL2 3112   1.046   0.425   7.353                        
  260POPG   C1A 3113   1.191   0.371   7.073                        
  260POPG   D2A 3114   1.184   0.393   6.732                        
  260POPG   C3A 3115   1.195   0.358   6.461                        
  260POPG   C4A 3116   1.156   0.351   6.159                        
  260POPG   C1B 3117   0.923   0.479   7.060                        
  260POPG   C2B 3118   0.959   0.465   6.736                        
  260POPG   C3B 3119   0.919   0.466   6.434                        
  260POPG   C4B 3120   0.939   0.468   6.147                        
  261POPG   GL0 3121   1.024   1.582   7.965                        
  261POPG   PO4 3122   1.051   1.599   7.656                        
  261POPG   GL1 3123   1.055   1.578   7.359                        
  261POPG   GL2 3124   0.991   1.492   7.341                        
  261POPG   C1A 3125   1.038   1.564   7.075                        
  261POPG   D2A 3126   1.048   1.599   6.753                        
  261POPG   C3A 3127   1.039   1.562   6.446                        
  261POPG   C4A 3128   1.066   1.570   6.164                        
  261POPG   C1B 3129   0.975   1.352   7.038                        
  261POPG   C2B 3130   0.981   1.326   6.749                        
  261POPG   C3B 3131   0.955   1.335   6.429                        
  261POPG   C4B 3132   0.976   1.359   6.147                        
  262POPG   GL0 3133   0.936   2.865   7.954                        
  262POPG   PO4 3134   0.924   2.904   7.640                        
  262POPG   GL1 3135   0.957   2.881   7.355                        
  262POPG   GL2 3136   1.078   2.878   7.350                        
  262POPG   C1A 3137   0.917   2.901   7.055                        
  262POPG   D2A 3138   0.958   2.895   6.741                        
  262POPG   C3A 3139   0.960   2.863   6.433                        
  262POPG   C4A 3140   0.951   2.885   6.147                        
  262POPG   C1B 3141   1.176   2.879   7.071                        
  262POPG   C2B 3142   1.169   2.873   6.761                        
  262POPG   C3B 3143   1.187   2.858   6.428                        
  262POPG   C4B 3144   1.205   2.844   6.173                        
  263POPG   GL0 3145   1.679   7.326   7.928                        
  263POPG   PO4 3146   1.698   7.328   7.628                        
  263POPG   GL1 3147   1.702   7.342   7.349                        
  263POPG   GL2 3148   1.798   7.360   7.358                        
  263POPG   C1A 3149   1.682   7.325   7.073                        
  263POPG   D2A 3150   1.668   7.350   6.741                        
  263POPG   C3A 3151   1.701   7.323   6.448                        
  263POPG   C4A 3152   1.677   7.347   6.139                        
  263POPG   C1B 3153   1.940   7.409   7.032                        
  263POPG   C2B 3154   1.923   7.422   6.748                        
  263POPG   C3B 3155   1.939   7.435   6.441                        
  263POPG   C4B 3156   1.891   7.430   6.134                        
  264POPG   GL0 3157   1.791  10.404   7.958                        
  264POPG   PO4 3158   1.768  10.411   7.626                        
  264POPG   GL1 3159   1.799  10.403   7.336                        
  264POPG   GL2 3160   1.746  10.498   7.358                        
  264POPG   C1A 3161   1.793  10.380   7.039                        
  264POPG   D2A 3162   1.795  10.388   6.773                        
  264POPG   C3A 3163   1.800  10.414   6.433                        
  264POPG   C4A 3164   1.798  10.370   6.174                        
  264POPG   C1B 3165   1.731  10.664   7.040                        
  264POPG   C2B 3166   1.753  10.630   6.762                        
  264POPG   C3B 3167   1.743  10.665   6.434                        
  264POPG   C4B 3168   1.747  10.662   6.141                        
  265POPG   GL0 3169   2.019   3.988   7.931                        
  265POPG   PO4 3170   2.006   3.965   7.644                        
  265POPG   GL1 3171   2.007   3.973   7.331                        
  265POPG   GL2 3172   2.040   3.872   7.330                        
  265POPG   C1A 3173   2.026   3.996   7.066                        
  265POPG   D2A 3174   2.014   3.985   6.752                        
  265POPG   C3A 3175   1.999   3.971   6.461                        
  265POPG   C4A 3176   1.985   4.004   6.172                        
  265POPG   C1B 3177   2.129   3.737   7.070                        
  265POPG   C2B 3178   2.109   3.733   6.728                        
  265POPG   C3B 3179   2.126   3.776   6.447                        
  265POPG   C4B 3180   2.119   3.736   6.174                        
  266POPG   GL0 3181   2.491   4.112   7.954                        
  266POPG   PO4 3182   2.515   4.117   7.641                        
  266POPG   GL1 3183   2.524   4.131   7.335                        
  266POPG   GL2 3184   2.620   4.183   7.363                        
  266POPG   C1A 3185   2.523   4.098   7.027                        
  266POPG   D2A 3186   2.511   4.126   6.728                        
  266POPG   C3A 3187   2.505   4.097   6.445                        
  266POPG   C4A 3188   2.502   4.121   6.145                        
  266POPG   C1B 3189   2.688   4.319   7.048                        
  266POPG   C2B 3190   2.680   4.307   6.733                        
  266POPG   C3B 3191   2.708   4.323   6.450                        
  266POPG   C4B 3192   2.673   4.317   6.163                        
  267POPG   GL0 3193   2.610   8.933   7.956                        
  267POPG   PO4 3194   2.612   8.968   7.645                        
  267POPG   GL1 3195   2.609   8.939   7.329                        
  267POPG   GL2 3196   2.485   8.996   7.356                        
  267POPG   C1A 3197   2.634   8.939   7.031                        
  267POPG   D2A 3198   2.628   8.943   6.769                        
  267POPG   C3A 3199   2.640   8.960   6.475                        
  267POPG   C4A 3200   2.619   8.945   6.129                        
  267POPG   C1B 3201   2.404   9.009   7.046                        
  267POPG   C2B 3202   2.379   8.993   6.742                        
  267POPG   C3B 3203   2.410   8.989   6.461                        
  267POPG   C4B 3204   2.407   8.975   6.144                        
  268POPG   GL0 3205   3.204   3.840   7.972                        
  268POPG   PO4 3206   3.235   3.841   7.673                        
  268POPG   GL1 3207   3.202   3.848   7.358                        
  268POPG   GL2 3208   3.133   3.753   7.367                        
  268POPG   C1A 3209   3.196   3.872   7.072                        
  268POPG   D2A 3210   3.198   3.866   6.729                        
  268POPG   C3A 3211   3.210   3.863   6.471                        
  268POPG   C4A 3212   3.214   3.830   6.162                        
  268POPG   C1B 3213   3.066   3.641   7.044                        
  268POPG   C2B 3214   3.079   3.641   6.771                        
  268POPG   C3B 3215   3.077   3.644   6.431                        
  268POPG   C4B 3216   3.103   3.662   6.142                        
  269POPG   GL0 3217   3.603   5.921   7.931                        
  269POPG   PO4 3218   3.621   5.924   7.638                        
  269POPG   GL1 3219   3.642   5.893   7.369                        
  269POPG   GL2 3220   3.717   5.815   7.334                        
  269POPG   C1A 3221   3.606   5.920   7.033                        
  269POPG   D2A 3222   3.627   5.933   6.775                        
  269POPG   C3A 3223   3.620   5.897   6.471                        
  269POPG   C4A 3224   3.634   5.920   6.139                        
  269POPG   C1B 3225   3.833   5.764   7.074                        
  269POPG   C2B 3226   3.800   5.747   6.774                        
  269POPG   C3B 3227   3.843   5.741   6.441                        
  269POPG   C4B 3228   3.832   5.769   6.150                        
  270POPG   GL0 3229   3.741  10.535   7.968                        
  270POPG   PO4 3230   3.732  10.497   7.669                        
  270POPG   GL1 3231   3.733  10.504   7.347                        
  270POPG   GL2 3232   3.858  10.453   7.375                        
  270POPG   C1A 3233   3.761  10.498   7.041                        
  270POPG   D2A 3234   3.744  10.532   6.752                        
  270POPG   C3A 3235   3.731  10.497   6.449                        
  270POPG   C4A 3236   3.749  10.498   6.166                        
  270POPG   C1B 3237   3.968  10.408   7.072                        
  270POPG   C2B 3238   3.999  10.401   6.754                        
  270POPG   C3B 3239   3.967  10.402   6.447                        
  270POPG   C4B 3240   3.959  10.391   6.133                        
  271POPG   GL0 3241   3.830  11.137   7.973                        
  271POPG   PO4 3242   3.836  11.144   7.641                        
  271POPG   GL1 3243   3.834  11.141   7.362                        
  271POPG   GL2 3244   3.847  11.253   7.364                        
  271POPG   C1A 3245   3.841  11.135   7.055                        
  271POPG   D2A 3246   3.823  11.137   6.759                        
  271POPG   C3A 3247   3.844  11.127   6.445                        
  271POPG   C4A 3248   3.853  11.126   6.157                        
  271POPG   C1B 3249   3.902  11.366   7.032                        
  271POPG   C2B 3250   3.902  11.374   6.749                        
  271POPG   C3B 3251   3.910  11.345   6.432                        
  271POPG   C4B 3252   3.907  11.345   6.158                        
  272POPG   GL0 3253   4.420   7.029   7.926                        
  272POPG   PO4 3254   4.403   7.003   7.662                        
  272POPG   GL1 3255   4.402   7.037   7.352                        
  272POPG   GL2 3256   4.546   6.966   7.340                        
  272POPG   C1A 3257   4.407   7.030   7.027                        
  272POPG   D2A 3258   4.419   7.025   6.775                        
  272POPG   C3A 3259   4.406   7.016   6.444                        
  272POPG   C4A 3260   4.404   7.004   6.130                        
  272POPG   C1B 3261   4.629   6.949   7.070                        
  272POPG   C2B 3262   4.674   6.941   6.738                        
  272POPG   C3B 3263   4.670   6.945   6.458                        
  272POPG   C4B 3264   4.672   6.980   6.126                        
  273POPG   GL0 3265   4.608   9.435   7.956                        
  273POPG   PO4 3266   4.591   9.448   7.634                        
  273POPG   GL1 3267   4.594   9.420   7.339                        
  273POPG   GL2 3268   4.519   9.330   7.344                        
  273POPG   C1A 3269   4.609   9.423   7.030                        
  273POPG   D2A 3270   4.614   9.434   6.774                        
  273POPG   C3A 3271   4.610   9.440   6.447                        
  273POPG   C4A 3272   4.624   9.403   6.165                        
  273POPG   C1B 3273   4.483   9.199   7.055                        
  273POPG   C2B 3274   4.444   9.231   6.727                        
  273POPG   C3B 3275   4.482   9.246   6.427                        
  273POPG   C4B 3276   4.472   9.216   6.129                        
  274POPG   GL0 3277   4.660  12.866   7.950                        
  274POPG   PO4 3278   4.666  12.824   7.657                        
  274POPG   GL1 3279   4.690  12.863   7.339                        
  274POPG   GL2 3280   4.553  12.776   7.348                        
  274POPG   C1A 3281   4.670  12.866   7.030                        
  274POPG   D2A 3282   4.687  12.822   6.734                        
  274POPG   C3A 3283   4.686  12.850   6.474                        
  274POPG   C4A 3284   4.699  12.859   6.151                        
  274POPG   C1B 3285   4.448  12.698   7.062                        
  274POPG   C2B 3286   4.443  12.734   6.731                        
  274POPG   C3B 3287   4.466  12.702   6.448                        
  274POPG   C4B 3288   4.438  12.715   6.144                        
  275POPG   GL0 3289   4.578   2.368   7.944                        
  275POPG   PO4 3290   4.564   2.371   7.666                        
  275POPG   GL1 3291   4.566   2.398   7.344                        
  275POPG   GL2 3292   4.703   2.437   7.348                        
  275POPG   C1A 3293   4.589   2.364   7.037                        
  275POPG   D2A 3294   4.599   2.360   6.775                        
  275POPG   C3A 3295   4.569   2.376   6.450                        
  275POPG   C4A 3296   4.569   2.380   6.166                        
  275POPG   C1B 3297   4.835   2.465   7.036                        
  275POPG   C2B 3298   4.816   2.450   6.774                        
  275POPG   C3B 3299   4.812   2.438   6.431                        
  275POPG   C4B 3300   4.823   2.456   6.162                        
  276POPG   GL0 3301   5.870  12.694   7.971                        
  276POPG   PO4 3302   5.860  12.692   7.669                        
  276POPG   GL1 3303   5.888  12.721   7.329                        
  276POPG   GL2 3304   5.950  12.796   7.370                        
  276POPG   C1A 3305   5.859  12.717   7.026                        
  276POPG   D2A 3306   5.902  12.707   6.750                        
  276POPG   C3A 3307   5.876  12.725   6.474                        
  276POPG   C4A 3308   5.853  12.733   6.157                        
  276POPG   C1B 3309   5.997  12.901   7.066                        
  276POPG   C2B 3310   5.996  12.943   6.725                        
  276POPG   C3B 3311   6.020  12.925   6.467                        
  276POPG   C4B 3312   5.996  12.915   6.173                        
  277POPG   GL0 3313   6.360   4.215   7.948                        
  277POPG   PO4 3314   6.339   4.221   7.670                        
  277POPG   GL1 3315   6.354   4.187   7.340                        
  277POPG   GL2 3316   6.220   4.193   7.368                        
  277POPG   C1A 3317   6.371   4.202   7.056                        
  277POPG   D2A 3318   6.361   4.191   6.736                        
  277POPG   C3A 3319   6.354   4.174   6.438                        
  277POPG   C4A 3320   6.369   4.213   6.155                        
  277POPG   C1B 3321   6.109   4.137   7.060                        
  277POPG   C2B 3322   6.089   4.154   6.745                        
  277POPG   C3B 3323   6.093   4.168   6.434                        
  277POPG   C4B 3324   6.133   4.171   6.142                        
  278POPG   GL0 3325   6.563   2.851   7.932                        
  278POPG   PO4 3326   6.550   2.879   7.625                        
  278POPG   GL1 3327   6.573   2.866   7.331                        
  278POPG   GL2 3328   6.648   2.983   7.352                        
  278POPG   C1A 3329   6.555   2.865   7.045                        
  278POPG   D2A 3330   6.544   2.869   6.771                        
  278POPG   C3A 3331   6.549   2.858   6.462                        
  278POPG   C4A 3332   6.579   2.887   6.153                        
  278POPG   C1B 3333   6.694   3.070   7.054                        
  278POPG   C2B 3334   6.710   3.087   6.737                        
  278POPG   C3B 3335   6.704   3.058   6.445                        
  278POPG   C4B 3336   6.687   3.097   6.136                        
  279POPG   GL0 3337   6.892   4.133   7.951                        
  279POPG   PO4 3338   6.919   4.147   7.648                        
  279POPG   GL1 3339   6.908   4.141   7.332                        
  279POPG   GL2 3340   6.849   4.269   7.347                        
  279POPG   C1A 3341   6.898   4.180   7.037                        
  279POPG   D2A 3342   6.918   4.148   6.754                        
  279POPG   C3A 3343   6.901   4.134   6.465                        
  279POPG   C4A 3344   6.872   4.134   6.135                        
  279POPG   C1B 3345   6.804   4.374   7.028                        
  279POPG   C2B 3346   6.808   4.395   6.735                        
  279POPG   C3B 3347   6.823   4.403   6.462                        
  279POPG   C4B 3348   6.841   4.374   6.146                        
  280POPG   GL0 3349   6.513   6.751   7.969                        
  280POPG   PO4 3350   6.492   6.775   7.635                        
  280POPG   GL1 3351   6.482   6.772   7.331                        
  280POPG   GL2 3352   6.627   6.727   7.337                        
  280POPG   C1A 3353   6.501   6.771   7.042                        
  280POPG   D2A 3354   6.489   6.767   6.735                        
  280POPG   C3A 3355   6.490   6.751   6.460                        
  280POPG   C4A 3356   6.497   6.782   6.129                        
  280POPG   C1B 3357   6.757   6.712   7.064                        
  280POPG   C2B 3358   6.750   6.666   6.750                        
  280POPG   C3B 3359   6.742   6.678   6.471                        
  280POPG   C4B 3360   6.727   6.672   6.158                        
  281POPG   GL0 3361   7.717   2.470   7.971                        
  281POPG   PO4 3362   7.724   2.476   7.674                        
  281POPG   GL1 3363   7.752   2.462   7.350                        
  281POPG   GL2 3364   7.624   2.519   7.361                        
  281POPG   C1A 3365   7.756   2.458   7.031                        
  281POPG   D2A 3366   7.709   2.450   6.756                        
  281POPG   C3A 3367   7.715   2.481   6.430                        
  281POPG   C4A 3368   7.722   2.442   6.148                        
  281POPG   C1B 3369   7.507   2.568   7.031                        
  281POPG   C2B 3370   7.514   2.581   6.749                        
  281POPG   C3B 3371   7.500   2.567   6.469                        
  281POPG   C4B 3372   7.514   2.557   6.135                        
  282POPG   GL0 3373   7.370   3.492   7.966                        
  282POPG   PO4 3374   7.371   3.508   7.630                        
  282POPG   GL1 3375   7.384   3.514   7.369                        
  282POPG   GL2 3376   7.389   3.649   7.362                        
  282POPG   C1A 3377   7.389   3.491   7.058                        
  282POPG   D2A 3378   7.369   3.498   6.726                        
  282POPG   C3A 3379   7.369   3.501   6.433                        
  282POPG   C4A 3380   7.403   3.490   6.141                        
  282POPG   C1B 3381   7.406   3.761   7.073                        
  282POPG   C2B 3382   7.407   3.770   6.769                        
  282POPG   C3B 3383   7.372   3.745   6.441                        
  282POPG   C4B 3384   7.372   3.755   6.137                        
  283POPG   GL0 3385   7.293   9.008   7.933                        
  283POPG   PO4 3386   7.266   8.996   7.632                        
  283POPG   GL1 3387   7.312   9.003   7.350                        
  283POPG   GL2 3388   7.396   8.971   7.347                        
  283POPG   C1A 3389   7.275   8.984   7.038                        
  283POPG   D2A 3390   7.307   8.981   6.748                        
  283POPG   C3A 3391   7.279   9.016   6.456                        
  283POPG   C4A 3392   7.281   9.005   6.157                        
  283POPG   C1B 3393   7.520   8.918   7.031                        
  283POPG   C2B 3394   7.530   8.900   6.739                        
  283POPG   C3B 3395   7.519   8.908   6.440                        
  283POPG   C4B 3396   7.508   8.894   6.130                        
  284POPG   GL0 3397   7.495  10.423   7.926                        
  284POPG   PO4 3398   7.476  10.439   7.673                        
  284POPG   GL1 3399   7.458  10.446   7.366                        
  284POPG   GL2 3400   7.395  10.529   7.374                        
  284POPG   C1A 3401   7.459  10.426   7.034                        
  284POPG   D2A 3402   7.449  10.449   6.729                        
  284POPG   C3A 3403   7.458  10.443   6.436                        
  284POPG   C4A 3404   7.480  10.444   6.156                        
  284POPG   C1B 3405   7.269  10.587   7.052                        
  284POPG   C2B 3406   7.303  10.590   6.753                        
  284POPG   C3B 3407   7.317  10.621   6.473                        
  284POPG   C4B 3408   7.279  10.616   6.142                        
  285POPG   GL0 3409   7.409  12.891   7.962                        
  285POPG   PO4 3410   7.396  12.921   7.647                        
  285POPG   GL1 3411   7.432  12.890   7.339                        
  285POPG   GL2 3412   7.301  12.949   7.364                        
  285POPG   C1A 3413   7.410  12.884   7.034                        
  285POPG   D2A 3414   7.395  12.876   6.762                        
  285POPG   C3A 3415   7.413  12.923   6.469                        
  285POPG   C4A 3416   7.411  12.885   6.125                        
  285POPG   C1B 3417   7.207  13.025   7.065                        
  285POPG   C2B 3418   7.229  13.028   6.733                        
  285POPG   C3B 3419   7.184  13.037   6.453                        
  285POPG   C4B 3420   7.202  13.057   6.170                        
  286POPG   GL0 3421   8.083   7.064   7.963                        
  286POPG   PO4 3422   8.092   7.054   7.656                        
  286POPG   GL1 3423   8.096   7.054   7.329                        
  286POPG   GL2 3424   7.998   6.979   7.326                        
  286POPG   C1A 3425   8.099   7.092   7.070                        
  286POPG   D2A 3426   8.069   7.074   6.729                        
  286POPG   C3A 3427   8.074   7.070   6.433                        
  286POPG   C4A 3428   8.085   7.069   6.147                        
  286POPG   C1B 3429   7.916   6.908   7.061                        
  286POPG   C2B 3430   7.903   6.878   6.729                        
  286POPG   C3B 3431   7.923   6.896   6.464                        
  286POPG   C4B 3432   7.895   6.886   6.140                        
  287POPG   GL0 3433   7.940   7.651   7.967                        
  287POPG   PO4 3434   7.916   7.650   7.670                        
  287POPG   GL1 3435   7.913   7.667   7.352                        
  287POPG   GL2 3436   8.004   7.745   7.335                        
  287POPG   C1A 3437   7.906   7.659   7.041                        
  287POPG   D2A 3438   7.930   7.647   6.768                        
  287POPG   C3A 3439   7.936   7.675   6.460                        
  287POPG   C4A 3440   7.910   7.642   6.150                        
  287POPG   C1B 3441   8.112   7.821   7.062                        
  287POPG   C2B 3442   8.113   7.858   6.728                        
  287POPG   C3B 3443   8.089   7.822   6.465                        
  287POPG   C4B 3444   8.094   7.842   6.146                        
  288POPG   GL0 3445   8.939   1.969   7.950                        
  288POPG   PO4 3446   8.933   1.955   7.634                        
  288POPG   GL1 3447   8.952   1.967   7.339                        
  288POPG   GL2 3448   8.805   2.012   7.345                        
  288POPG   C1A 3449   8.933   1.979   7.055                        
  288POPG   D2A 3450   8.929   1.952   6.736                        
  288POPG   C3A 3451   8.952   1.950   6.440                        
  288POPG   C4A 3452   8.944   1.990   6.126                        
  288POPG   C1B 3453   8.716   2.113   7.036                        
  288POPG   C2B 3454   8.693   2.095   6.732                        
  288POPG   C3B 3455   8.686   2.105   6.427                        
  288POPG   C4B 3456   8.694   2.107   6.157                        
  289POPG   GL0 3457   8.803   3.459   7.933                        
  289POPG   PO4 3458   8.781   3.456   7.657                        
  289POPG   GL1 3459   8.827   3.478   7.344                        
  289POPG   GL2 3460   8.671   3.448   7.349                        
  289POPG   C1A 3461   8.829   3.483   7.042                        
  289POPG   D2A 3462   8.790   3.473   6.728                        
  289POPG   C3A 3463   8.826   3.490   6.444                        
  289POPG   C4A 3464   8.794   3.444   6.153                        
  289POPG   C1B 3465   8.533   3.415   7.052                        
  289POPG   C2B 3466   8.548   3.457   6.766                        
  289POPG   C3B 3467   8.564   3.418   6.436                        
  289POPG   C4B 3468   8.544   3.455   6.151                        
  290POPG   GL0 3469   8.578   5.098   7.946                        
  290POPG   PO4 3470   8.543   5.094   7.648                        
  290POPG   GL1 3471   8.581   5.088   7.352                        
  290POPG   GL2 3472   8.672   5.041   7.351                        
  290POPG   C1A 3473   8.580   5.069   7.031                        
  290POPG   D2A 3474   8.576   5.097   6.775                        
  290POPG   C3A 3475   8.554   5.111   6.457                        
  290POPG   C4A 3476   8.555   5.093   6.137                        
  290POPG   C1B 3477   8.768   5.001   7.069                        
  290POPG   C2B 3478   8.764   5.002   6.754                        
  290POPG   C3B 3479   8.789   4.974   6.457                        
  290POPG   C4B 3480   8.769   4.977   6.160                        
  291POPG   GL0 3481   9.268   3.447   7.970                        
  291POPG   PO4 3482   9.283   3.439   7.664                        
  291POPG   GL1 3483   9.282   3.437   7.337                        
  291POPG   GL2 3484   9.415   3.522   7.360                        
  291POPG   C1A 3485   9.287   3.460   7.056                        
  291POPG   D2A 3486   9.269   3.459   6.771                        
  291POPG   C3A 3487   9.272   3.423   6.462                        
  291POPG   C4A 3488   9.265   3.435   6.143                        
  291POPG   C1B 3489   9.499   3.591   7.047                        
  291POPG   C2B 3490   9.490   3.617   6.738                        
  291POPG   C3B 3491   9.468   3.605   6.427                        
  291POPG   C4B 3492   9.478   3.567   6.167                        
  292POPG   GL0 3493   9.504   6.529   7.950                        
  292POPG   PO4 3494   9.508   6.523   7.650                        
  292POPG   GL1 3495   9.515   6.510   7.353                        
  292POPG   GL2 3496   9.384   6.601   7.371                        
  292POPG   C1A 3497   9.490   6.508   7.035                        
  292POPG   D2A 3498   9.485   6.495   6.758                        
  292POPG   C3A 3499   9.515   6.507   6.432                        
  292POPG   C4A 3500   9.491   6.498   6.143                        
  292POPG   C1B 3501   9.282   6.654   7.063                        
  292POPG   C2B 3502   9.285   6.631   6.763                        
  292POPG   C3B 3503   9.312   6.640   6.472                        
  292POPG   C4B 3504   9.290   6.632   6.150                        
  293POPG   GL0 3505   9.515   9.702   7.951                        
  293POPG   PO4 3506   9.504   9.695   7.659                        
  293POPG   GL1 3507   9.548   9.675   7.347                        
  293POPG   GL2 3508   9.409   9.653   7.365                        
  293POPG   C1A 3509   9.552   9.668   7.049                        
  293POPG   D2A 3510   9.523   9.669   6.741                        
  293POPG   C3A 3511   9.542   9.710   6.452                        
  293POPG   C4A 3512   9.543   9.673   6.141                        
  293POPG   C1B 3513   9.290   9.634   7.059                        
  293POPG   C2B 3514   9.273   9.621   6.748                        
  293POPG   C3B 3515   9.263   9.634   6.454                        
  293POPG   C4B 3516   9.278   9.628   6.133                        
  294POPG   GL0 3517  10.215   0.400   7.952                        
  294POPG   PO4 3518  10.194   0.443   7.648                        
  294POPG   GL1 3519  10.215   0.427   7.359                        
  294POPG   GL2 3520  10.092   0.377   7.365                        
  294POPG   C1A 3521  10.183   0.439   7.054                        
  294POPG   D2A 3522  10.200   0.412   6.738                        
  294POPG   C3A 3523  10.178   0.415   6.460                        
  294POPG   C4A 3524  10.225   0.447   6.158                        
  294POPG   C1B 3525   9.982   0.310   7.028                        
  294POPG   C2B 3526   9.967   0.348   6.760                        
  294POPG   C3B 3527   9.961   0.311   6.460                        
  294POPG   C4B 3528   9.948   0.316   6.165                        
  295POPG   GL0 3529  10.024   2.705   7.951                        
  295POPG   PO4 3530   9.985   2.691   7.654                        
  295POPG   GL1 3531   9.988   2.686   7.359                        
  295POPG   GL2 3532  10.123   2.735   7.339                        
  295POPG   C1A 3533   9.998   2.701   7.040                        
  295POPG   D2A 3534   9.992   2.691   6.762                        
  295POPG   C3A 3535   9.985   2.700   6.472                        
  295POPG   C4A 3536  10.002   2.722   6.142                        
  295POPG   C1B 3537  10.261   2.779   7.061                        
  295POPG   C2B 3538  10.263   2.789   6.738                        
  295POPG   C3B 3539  10.223   2.783   6.458                        
  295POPG   C4B 3540  10.236   2.763   6.151                        
  296POPG   GL0 3541   9.951   5.896   7.952                        
  296POPG   PO4 3542   9.924   5.905   7.661                        
  296POPG   GL1 3543   9.907   5.901   7.349                        
  296POPG   GL2 3544  10.060   5.855   7.335                        
  296POPG   C1A 3545   9.909   5.920   7.075                        
  296POPG   D2A 3546   9.927   5.930   6.751                        
  296POPG   C3A 3547   9.935   5.900   6.445                        
  296POPG   C4A 3548   9.914   5.895   6.157                        
  296POPG   C1B 3549  10.140   5.827   7.045                        
  296POPG   C2B 3550  10.165   5.799   6.739                        
  296POPG   C3B 3551  10.155   5.839   6.472                        
  296POPG   C4B 3552  10.172   5.832   6.164                        
  297POPG   GL0 3553   9.985   6.642   7.969                        
  297POPG   PO4 3554   9.976   6.685   7.629                        
  297POPG   GL1 3555   9.997   6.663   7.346                        
  297POPG   GL2 3556  10.097   6.649   7.334                        
  297POPG   C1A 3557  10.010   6.637   7.027                        
  297POPG   D2A 3558   9.999   6.677   6.744                        
  297POPG   C3A 3559   9.994   6.671   6.453                        
  297POPG   C4A 3560  10.015   6.636   6.163                        
  297POPG   C1B 3561  10.210   6.584   7.053                        
  297POPG   C2B 3562  10.226   6.578   6.773                        
  297POPG   C3B 3563  10.246   6.581   6.431                        
  297POPG   C4B 3564  10.249   6.612   6.151                        
  298POPG   GL0 3565  10.209   7.305   7.932                        
  298POPG   PO4 3566  10.166   7.322   7.626                        
  298POPG   GL1 3567  10.206   7.322   7.343                        
  298POPG   GL2 3568  10.094   7.386   7.358                        
  298POPG   C1A 3569  10.183   7.305   7.074                        
  298POPG   D2A 3570  10.203   7.333   6.741                        
  298POPG   C3A 3571  10.209   7.315   6.453                        
  298POPG   C4A 3572  10.190   7.325   6.142                        
  298POPG   C1B 3573  10.030   7.481   7.045                        
  298POPG   C2B 3574  10.027   7.482   6.761                        
  298POPG   C3B 3575  10.028   7.493   6.456                        
  298POPG   C4B 3576   9.999   7.487   6.141                        
  299POPG   GL0 3577  10.106   8.049   7.975                        
  299POPG   PO4 3578  10.127   8.004   7.642                        
  299POPG   GL1 3579  10.116   8.007   7.333                        
  299POPG   GL2 3580  10.082   8.141   7.339                        
  299POPG   C1A 3581  10.119   8.011   7.039                        
  299POPG   D2A 3582  10.125   8.019   6.742                        
  299POPG   C3A 3583  10.138   8.041   6.449                        
  299POPG   C4A 3584  10.135   8.008   6.135                        
  299POPG   C1B 3585  10.056   8.294   7.041                        
  299POPG   C2B 3586  10.081   8.269   6.772                        
  299POPG   C3B 3587  10.070   8.251   6.454                        
  299POPG   C4B 3588  10.099   8.273   6.157                        
  300POPG   GL0 3589  10.606   2.036   7.942                        
  300POPG   PO4 3590  10.565   2.017   7.629                        
  300POPG   GL1 3591  10.603   2.031   7.328                        
  300POPG   GL2 3592  10.674   1.987   7.349                        
  300POPG   C1A 3593  10.594   2.013   7.055                        
  300POPG   D2A 3594  10.583   2.049   6.767                        
  300POPG   C3A 3595  10.593   2.050   6.431                        
  300POPG   C4A 3596  10.597   2.011   6.137                        
  300POPG   C1B 3597  10.772   1.904   7.059                        
  300POPG   C2B 3598  10.769   1.903   6.762                        
  300POPG   C3B 3599  10.793   1.916   6.438                        
  300POPG   C4B 3600  10.784   1.898   6.151                        
  301POPG   GL0 3601  11.045  12.106   7.929                        
  301POPG   PO4 3602  11.036  12.137   7.653                        
  301POPG   GL1 3603  11.042  12.137   7.326                        
  301POPG   GL2 3604  10.900  12.054   7.365                        
  301POPG   C1A 3605  11.015  12.138   7.038                        
  301POPG   D2A 3606  11.020  12.103   6.758                        
  301POPG   C3A 3607  11.032  12.113   6.431                        
  301POPG   C4A 3608  11.024  12.147   6.170                        
  301POPG   C1B 3609  10.788  12.005   7.040                        
  301POPG   C2B 3610  10.796  12.014   6.770                        
  301POPG   C3B 3611  10.781  12.015   6.444                        
  301POPG   C4B 3612  10.778  12.033   6.164                        
  302POPG   GL0 3613  10.997  13.589   7.950                        
  302POPG   PO4 3614  10.990  13.594   7.636                        
  302POPG   GL1 3615  11.007  13.601   7.364                        
  302POPG   GL2 3616  10.884  13.524   7.365                        
  302POPG   C1A 3617  11.026  13.596   7.037                        
  302POPG   D2A 3618  11.018  13.574   6.725                        
  302POPG   C3A 3619  11.012  13.577   6.428                        
  302POPG   C4A 3620  11.019  13.598   6.134                        
  302POPG   C1B 3621  10.796  13.514   7.031                        
  302POPG   C2B 3622  10.764  13.513   6.741                        
  302POPG   C3B 3623  10.797  13.473   6.452                        
  302POPG   C4B 3624  10.769  13.480   6.125                        
  303POPG   GL0 3625  11.388   0.335   7.927                        
  303POPG   PO4 3626  11.373   0.326   7.633                        
  303POPG   GL1 3627  11.387   0.301   7.326                        
  303POPG   GL2 3628  11.492   0.366   7.342                        
  303POPG   C1A 3629  11.364   0.320   7.040                        
  303POPG   D2A 3630  11.356   0.345   6.754                        
  303POPG   C3A 3631  11.353   0.303   6.474                        
  303POPG   C4A 3632  11.348   0.347   6.167                        
  303POPG   C1B 3633  11.568   0.432   7.043                        
  303POPG   C2B 3634  11.611   0.434   6.729                        
  303POPG   C3B 3635  11.590   0.439   6.460                        
  303POPG   C4B 3636  11.582   0.433   6.155                        
  304POPG   GL0 3637  11.276   4.173   7.970                        
  304POPG   PO4 3638  11.314   4.195   7.652                        
  304POPG   GL1 3639  11.294   4.176   7.346                        
  304POPG   GL2 3640  11.358   4.265   7.340                        
  304POPG   C1A 3641  11.307   4.209   7.040                        
  304POPG   D2A 3642  11.292   4.197   6.729                        
  304POPG   C3A 3643  11.276   4.180   6.456                        
  304POPG   C4A 3644  11.287   4.209   6.141                        
  304POPG   C1B 3645  11.426   4.393   7.065                        
  304POPG   C2B 3646  11.433   4.386   6.746                        
  304POPG   C3B 3647  11.454   4.404   6.434                        
  304POPG   C4B 3648  11.419   4.416   6.141                        
  305POPG   GL0 3649  11.412   8.972   7.973                        
  305POPG   PO4 3650  11.407   8.985   7.630                        
  305POPG   GL1 3651  11.415   8.959   7.325                        
  305POPG   GL2 3652  11.531   8.957   7.327                        
  305POPG   C1A 3653  11.426   8.970   7.065                        
  305POPG   D2A 3654  11.420   8.967   6.746                        
  305POPG   C3A 3655  11.421   8.953   6.426                        
  305POPG   C4A 3656  11.407   8.970   6.163                        
  305POPG   C1B 3657  11.682   8.935   7.053                        
  305POPG   C2B 3658  11.659   8.901   6.742                        
  305POPG   C3B 3659  11.682   8.907   6.468                        
  305POPG   C4B 3660  11.647   8.932   6.148                        
  306POPG   GL0 3661  12.156   7.257   7.961                        
  306POPG   PO4 3662  12.133   7.253   7.653                        
  306POPG   GL1 3663  12.123   7.263   7.354                        
  306POPG   GL2 3664  12.267   7.341   7.325                        
  306POPG   C1A 3665  12.128   7.259   7.032                        
  306POPG   D2A 3666  12.130   7.256   6.761                        
  306POPG   C3A 3667  12.148   7.264   6.464                        
  306POPG   C4A 3668  12.148   7.277   6.146                        
  306POPG   C1B 3669  12.329   7.397   7.039                        
  306POPG   C2B 3670  12.334   7.423   6.736                        
  306POPG   C3B 3671  12.346   7.386   6.435                        
  306POPG   C4B 3672  12.325   7.379   6.125                        
  307POPG   GL0 3673  12.353   7.950   7.949                        
  307POPG   PO4 3674  12.340   7.989   7.672                        
  307POPG   GL1 3675  12.316   7.971   7.329                        
  307POPG   GL2 3676  12.257   8.047   7.357                        
  307POPG   C1A 3677  12.346   7.961   7.071                        
  307POPG   D2A 3678  12.358   7.950   6.761                        
  307POPG   C3A 3679  12.341   7.945   6.464                        
  307POPG   C4A 3680  12.361   7.983   6.129                        
  307POPG   C1B 3681  12.168   8.149   7.066                        
  307POPG   C2B 3682  12.196   8.164   6.744                        
  307POPG   C3B 3683  12.195   8.144   6.464                        
  307POPG   C4B 3684  12.182   8.156   6.170                        
  308POPG   GL0 3685  12.871   6.502   7.966                        
  308POPG   PO4 3686  12.895   6.516   7.646                        
  308POPG   GL1 3687  12.881   6.544   7.359                        
  308POPG   GL2 3688  12.958   6.433   7.375                        
  308POPG   C1A 3689  12.863   6.506   7.048                        
  308POPG   D2A 3690  12.871   6.543   6.731                        
  308POPG   C3A 3691  12.883   6.527   6.470                        
  308POPG   C4A 3692  12.896   6.512   6.156                        
  308POPG   C1B 3693  13.067   6.330   7.056                        
  308POPG   C2B 3694  13.048   6.354   6.759                        
  308POPG   C3B 3695  13.045   6.348   6.434                        
  308POPG   C4B 3696  13.063   6.361   6.132                        
  309POPG   GL0 3697  12.794   7.845   7.953                        
  309POPG   PO4 3698  12.824   7.866   7.659                        
  309POPG   GL1 3699  12.799   7.846   7.356                        
  309POPG   GL2 3700  12.911   7.784   7.363                        
  309POPG   C1A 3701  12.830   7.861   7.062                        
  309POPG   D2A 3702  12.790   7.848   6.770                        
  309POPG   C3A 3703  12.798   7.831   6.433                        
  309POPG   C4A 3704  12.835   7.855   6.149                        
  309POPG   C1B 3705  13.036   7.721   7.038                        
  309POPG   C2B 3706  13.031   7.674   6.743                        
  309POPG   C3B 3707  12.990   7.716   6.437                        
  309POPG   C4B 3708  13.020   7.709   6.143                        
  310POPG   GL0 3709  13.055  11.919   7.975                        
  310POPG   PO4 3710  13.055  11.938   7.652                        
  310POPG   GL1 3711  13.072  11.916   7.356                        
  310POPG   GL2 3712  12.938  11.947   7.335                        
  310POPG   C1A 3713  13.051  11.911   7.064                        
  310POPG   D2A 3714  13.043  11.944   6.775                        
  310POPG   C3A 3715  13.069  11.905   6.452                        
  310POPG   C4A 3716  13.034  11.935   6.155                        
  310POPG   C1B 3717  12.796  11.992   7.072                        
  310POPG   C2B 3718  12.821  11.988   6.725                        
  310POPG   C3B 3719  12.830  11.980   6.443                        
  310POPG   C4B 3720  12.819  12.002   6.155                        
  311POPG   GL0 3721  12.933  12.926   7.932                        
  311POPG   PO4 3722  12.960  12.954   7.658                        
  311POPG   GL1 3723  12.931  12.922   7.371                        
  311POPG   GL2 3724  12.952  12.823   7.361                        
  311POPG   C1A 3725  12.940  12.918   7.060                        
  311POPG   D2A 3726  12.958  12.923   6.764                        
  311POPG   C3A 3727  12.943  12.948   6.475                        
  311POPG   C4A 3728  12.965  12.933   6.160                        
  311POPG   C1B 3729  12.930  12.703   7.073                        
  311POPG   C2B 3730  12.956  12.693   6.752                        
  311POPG   C3B 3731  12.960  12.677   6.435                        
  311POPG   C4B 3732  12.957  12.662   6.132                        
  312POPG   GL0 3733  13.553   9.235   7.966                        
  312POPG   PO4 3734  13.555   9.202   7.650                        
  312POPG   GL1 3735  13.554   9.212   7.356                        
  312POPG   GL2 3736  13.619   9.303   7.362                        
  312POPG   C1A 3737  13.572   9.204   7.050                        
  312POPG   D2A 3738  13.557   9.208   6.752                        
  312POPG   C3A 3739  13.559   9.216   6.435                        
  312POPG   C4A 3740  13.579   9.206   6.138                        
  312POPG   C1B 3741  13.681   9.416   7.034                        
  312POPG   C2B 3742  13.669   9.427   6.741                        
  312POPG   C3B 3743  13.672   9.429   6.471                        
  312POPG   C4B 3744  13.667   9.451   6.148                        
  313POPG   GL0 3745  13.483  12.660   7.963                        
  313POPG   PO4 3746  13.504  12.668   7.670                        
  313POPG   GL1 3747  13.518  12.647   7.359                        
  313POPG   GL2 3748  13.650  12.732   7.331                        
  313POPG   C1A 3749  13.502  12.673   7.039                        
  313POPG   D2A 3750  13.527  12.650   6.769                        
  313POPG   C3A 3751  13.519  12.647   6.472                        
  313POPG   C4A 3752  13.505  12.679   6.155                        
  313POPG   C1B 3753  13.740  12.756   7.055                        
  313POPG   C2B 3754  13.728  12.744   6.764                        
  313POPG   C3B 3755  13.765  12.762   6.464                        
  313POPG   C4B 3756  13.735  12.768   6.153                        
  314POPG   GL0 3757  13.543   3.676   7.941                        
  314POPG   PO4 3758  13.539   3.705   7.666                        
  314POPG   GL1 3759  13.533   3.680   7.356                        
  314POPG   GL2 3760  13.637   3.775   7.356                        
  314POPG   C1A 3761  13.526   3.679   7.039                        
  314POPG   D2A 3762  13.544   3.685   6.725                        
  314POPG   C3A 3763  13.520   3.676   6.433                        
  314POPG   C4A 3764  13.538   3.674   6.151                        
  314POPG   C1B 3765  13.711   3.848   7.049                        
  314POPG   C2B 3766  13.743   3.846   6.735                        
  314POPG   C3B 3767  13.746   3.843   6.456                        
  314POPG   C4B 3768  13.712   3.813   6.136                        
  315TOCL   GLC 3769   3.049   1.264   6.775                        
  315TOCL  PO41 3770   3.052   1.235   6.639                        
  315TOCL  GL11 3771   2.968   1.133   6.551                        
  315TOCL  GL21 3772   2.944   1.332   6.557                        
  315TOCL  C1A1 3773   2.911   1.029   6.455                        
  315TOCL  D2A1 3774   2.817   0.880   6.356                        
  315TOCL  C3A1 3775   2.756   0.739   6.252                        
  315TOCL  C4A1 3776   2.676   0.650   6.142                        
  315TOCL  C1B1 3777   2.810   1.388   6.428                        
  315TOCL  D2B1 3778   2.673   1.446   6.358                        
  315TOCL  C3B1 3779   2.534   1.517   6.233                        
  315TOCL  C4B1 3780   2.429   1.584   6.139                        
  315TOCL  PO42 3781   3.057   1.259   6.854                        
  315TOCL  GL12 3782   3.142   1.178   6.945                        
  315TOCL  GL22 3783   3.103   1.356   6.970                        
  315TOCL  C1A2 3784   3.266   1.083   7.033                        
  315TOCL  D2A2 3785   3.410   1.047   7.164                        
  315TOCL  C3A2 3786   3.542   0.953   7.243                        
  315TOCL  C4A2 3787   3.630   0.898   7.368                        
  315TOCL  C1B2 3788   3.171   1.493   7.064                        
  315TOCL  D2B2 3789   3.262   1.619   7.144                        
  315TOCL  C3B2 3790   3.348   1.763   7.229                        
  315TOCL  C4B2 3791   3.385   1.845   7.356                        
  316TOCL   GLC 3792   7.027   1.262   6.739                        
  316TOCL  PO41 3793   7.019   1.270   6.644                        
  316TOCL  GL11 3794   6.894   1.174   6.569                        
  316TOCL  GL21 3795   6.933   1.381   6.529                        
  316TOCL  C1A1 3796   6.780   1.080   6.435                        
  316TOCL  D2A1 3797   6.684   0.987   6.330                        
  316TOCL  C3A1 3798   6.593   0.904   6.271                        
  316TOCL  C4A1 3799   6.454   0.855   6.169                        
  316TOCL  C1B1 3800   6.847   1.463   6.463                        
  316TOCL  D2B1 3801   6.805   1.592   6.371                        
  316TOCL  C3B1 3802   6.679   1.728   6.273                        
  316TOCL  C4B1 3803   6.616   1.811   6.141                        
  316TOCL  PO42 3804   7.048   1.261   6.826                        
  316TOCL  GL12 3805   7.119   1.121   6.932                        
  316TOCL  GL22 3806   7.126   1.339   6.926                        
  316TOCL  C1A2 3807   7.170   1.037   7.072                        
  316TOCL  D2A2 3808   7.256   0.920   7.158                        
  316TOCL  C3A2 3809   7.349   0.812   7.236                        
  316TOCL  C4A2 3810   7.434   0.678   7.354                        
  316TOCL  C1B2 3811   7.245   1.433   7.028                        
  316TOCL  D2B2 3812   7.367   1.484   7.137                        
  316TOCL  C3B2 3813   7.507   1.581   7.235                        
  316TOCL  C4B2 3814   7.597   1.642   7.372                        
  317TOCL   GLC 3815  12.751   1.260   6.732                        
  317TOCL  PO41 3816  12.756   1.256   6.642                        
  317TOCL  GL11 3817  12.698   1.123   6.559                        
  317TOCL  GL21 3818  12.645   1.306   6.533                        
  317TOCL  C1A1 3819  12.617   1.012   6.467                        
  317TOCL  D2A1 3820  12.562   0.897   6.348                        
  317TOCL  C3A1 3821  12.494   0.748   6.257                        
  317TOCL  C4A1 3822  12.410   0.641   6.174                        
  317TOCL  C1B1 3823  12.530   1.404   6.454                        
  317TOCL  D2B1 3824  12.405   1.452   6.330                        
  317TOCL  C3B1 3825  12.262   1.524   6.232                        
  317TOCL  C4B1 3826  12.163   1.606   6.129                        
  317TOCL  PO42 3827  12.768   1.242   6.843                        
  317TOCL  GL12 3828  12.889   1.159   6.954                        
  317TOCL  GL22 3829  12.822   1.370   6.959                        
  317TOCL  C1A2 3830  13.017   1.127   7.036                        
  317TOCL  D2A2 3831  13.139   1.031   7.128                        
  317TOCL  C3A2 3832  13.267   0.967   7.245                        
  317TOCL  C4A2 3833  13.354   0.874   7.345                        
  317TOCL  C1B2 3834  12.878   1.487   7.044                        
  317TOCL  D2B2 3835  12.980   1.604   7.171                        
  317TOCL  C3B2 3836  13.047   1.744   7.233                        
  317TOCL  C4B2 3837  13.097   1.865   7.353                        
  318TOCL   GLC 3838   1.226   4.987   6.750                        
  318TOCL  PO41 3839   1.233   5.025   6.659                        
  318TOCL  GL11 3840   1.258   4.857   6.568                        
  318TOCL  GL21 3841   1.112   4.973   6.549                        
  318TOCL  C1A1 3842   1.239   4.719   6.442                        
  318TOCL  D2A1 3843   1.280   4.576   6.368                        
  318TOCL  C3A1 3844   1.293   4.445   6.261                        
  318TOCL  C4A1 3845   1.259   4.306   6.135                        
  318TOCL  C1B1 3846   0.973   5.011   6.463                        
  318TOCL  D2B1 3847   0.843   4.964   6.341                        
  318TOCL  C3B1 3848   0.696   4.959   6.244                        
  318TOCL  C4B1 3849   0.526   4.960   6.141                        
  318TOCL  PO42 3850   1.267   4.985   6.854                        
  318TOCL  GL12 3851   1.386   4.990   6.938                        
  318TOCL  GL22 3852   1.262   5.122   6.970                        
  318TOCL  C1A2 3853   1.528   5.004   7.058                        
  318TOCL  D2A2 3854   1.678   5.025   7.149                        
  318TOCL  C3A2 3855   1.822   5.027   7.260                        
  318TOCL  C4A2 3856   1.966   5.048   7.342                        
  318TOCL  C1B2 3857   1.242   5.277   7.035                        
  318TOCL  D2B2 3858   1.245   5.402   7.154                        
  318TOCL  C3B2 3859   1.216   5.582   7.258                        
  318TOCL  C4B2 3860   1.240   5.712   7.345                        
  319TOCL   GLC 3861   5.005   4.982   6.744                        
  319TOCL  PO41 3862   4.961   4.956   6.668                        
  319TOCL  GL11 3863   5.049   5.088   6.569                        
  319TOCL  GL21 3864   5.116   4.894   6.570                        
  319TOCL  C1A1 3865   5.098   5.224   6.460                        
  319TOCL  D2A1 3866   5.148   5.348   6.372                        
  319TOCL  C3A1 3867   5.183   5.478   6.273                        
  319TOCL  C4A1 3868   5.245   5.608   6.152                        
  319TOCL  C1B1 3869   5.227   4.854   6.428                        
  319TOCL  D2B1 3870   5.365   4.828   6.368                        
  319TOCL  C3B1 3871   5.485   4.754   6.242                        
  319TOCL  C4B1 3872   5.647   4.671   6.137                        
  319TOCL  PO42 3873   4.969   4.970   6.866                        
  319TOCL  GL12 3874   4.839   5.043   6.935                        
  319TOCL  GL22 3875   4.933   4.860   6.973                        
  319TOCL  C1A2 3876   4.714   5.080   7.055                        
  319TOCL  D2A2 3877   4.576   5.145   7.133                        
  319TOCL  C3A2 3878   4.457   5.182   7.235                        
  319TOCL  C4A2 3879   4.333   5.261   7.344                        
  319TOCL  C1B2 3880   4.875   4.704   7.030                        
  319TOCL  D2B2 3881   4.792   4.592   7.159                        
  319TOCL  C3B2 3882   4.783   4.428   7.247                        
  319TOCL  C4B2 3883   4.720   4.307   7.364                        
  320TOCL   GLC 3884  12.747   4.990   6.739                        
  320TOCL  PO41 3885  12.759   4.971   6.672                        
  320TOCL  GL11 3886  12.664   4.860   6.535                        
  320TOCL  GL21 3887  12.654   5.082   6.563                        
  320TOCL  C1A1 3888  12.548   4.807   6.437                        
  320TOCL  D2A1 3889  12.439   4.713   6.364                        
  320TOCL  C3A1 3890  12.329   4.609   6.253                        
  320TOCL  C4A1 3891  12.208   4.499   6.171                        
  320TOCL  C1B1 3892  12.569   5.196   6.429                        
  320TOCL  D2B1 3893  12.482   5.305   6.326                        
  320TOCL  C3B1 3894  12.371   5.392   6.260                        
  320TOCL  C4B1 3895  12.250   5.486   6.173                        
  320TOCL  PO42 3896  12.729   4.962   6.869                        
  320TOCL  GL12 3897  12.822   4.868   6.966                        
  320TOCL  GL22 3898  12.878   5.072   6.964                        
  320TOCL  C1A2 3899  12.951   4.750   7.040                        
  320TOCL  D2A2 3900  13.054   4.662   7.146                        
  320TOCL  C3A2 3901  13.143   4.551   7.237                        
  320TOCL  C4A2 3902  13.206   4.482   7.344                        
  320TOCL  C1B2 3903  12.965   5.177   7.058                        
  320TOCL  D2B2 3904  13.041   5.262   7.163                        
  320TOCL  C3B2 3905  13.153   5.346   7.274                        
  320TOCL  C4B2 3906  13.279   5.460   7.342                        
  321TOCL   GLC 3907   8.953  12.733   6.753                        
  321TOCL  PO41 3908   8.982  12.772   6.671                        
  321TOCL  GL11 3909   8.842  12.681   6.531                        
  321TOCL  GL21 3910   8.908  12.879   6.543                        
  321TOCL  C1A1 3911   8.747  12.561   6.438                        
  321TOCL  D2A1 3912   8.642  12.499   6.361                        
  321TOCL  C3A1 3913   8.531  12.426   6.260                        
  321TOCL  C4A1 3914   8.396  12.351   6.148                        
  321TOCL  C1B1 3915   8.831  12.961   6.458                        
  321TOCL  D2B1 3916   8.734  13.082   6.335                        
  321TOCL  C3B1 3917   8.651  13.188   6.236                        
  321TOCL  C4B1 3918   8.572  13.325   6.173                        
  321TOCL  PO42 3919   8.970  12.755   6.872                        
  321TOCL  GL12 3920   9.032  12.649   6.967                        
  321TOCL  GL22 3921   9.106  12.850   6.955                        
  321TOCL  C1A2 3922   9.134  12.538   7.054                        
  321TOCL  D2A2 3923   9.239  12.420   7.131                        
  321TOCL  C3A2 3924   9.309  12.267   7.272                        
  321TOCL  C4A2 3925   9.396  12.153   7.343                        
  321TOCL  C1B2 3926   9.184  12.911   7.027                        
  321TOCL  D2B2 3927   9.312  13.008   7.158                        
  321TOCL  C3B2 3928   9.455  13.058   7.245                        
  321TOCL  C4B2 3929   9.561  13.173   7.335                        
  322DOPE   NH3 3930   0.276   2.942   4.058                        
  322DOPE   PO4 3931   0.261   2.960   4.339                        
  322DOPE   GL1 3932   0.263   2.970   4.642                        
  322DOPE   GL2 3933   0.396   2.981   4.666                        
  322DOPE   C1A 3934   0.245   2.933   4.951                        
  322DOPE   D2A 3935   0.229   2.948   5.265                        
  322DOPE   C3A 3936   0.261   2.980   5.553                        
  322DOPE   C4A 3937   0.232   2.960   5.874                        
  322DOPE   C1B 3938   0.494   3.028   4.940                        
  322DOPE   D2B 3939   0.480   3.001   5.242                        
  322DOPE   C3B 3940   0.506   3.005   5.567                        
  322DOPE   C4B 3941   0.489   3.047   5.867                        
  323DOPE   NH3 3942   1.050   5.202   4.064                        
  323DOPE   PO4 3943   1.061   5.176   4.369                        
  323DOPE   GL1 3944   1.057   5.176   4.672                        
  323DOPE   GL2 3945   1.074   5.078   4.644                        
  323DOPE   C1A 3946   1.047   5.171   4.966                        
  323DOPE   D2A 3947   1.023   5.186   5.237                        
  323DOPE   C3A 3948   1.026   5.199   5.527                        
  323DOPE   C4A 3949   1.025   5.191   5.833                        
  323DOPE   C1B 3950   1.084   4.962   4.953                        
  323DOPE   D2B 3951   1.071   4.918   5.270                        
  323DOPE   C3B 3952   1.050   4.929   5.527                        
  323DOPE   C4B 3953   1.083   4.956   5.865                        
  324DOPE   NH3 3954   1.128   7.562   4.037                        
  324DOPE   PO4 3955   1.146   7.554   4.358                        
  324DOPE   GL1 3956   1.144   7.596   4.653                        
  324DOPE   GL2 3957   1.117   7.432   4.638                        
  324DOPE   C1A 3958   1.123   7.600   4.956                        
  324DOPE   D2A 3959   1.120   7.557   5.244                        
  324DOPE   C3A 3960   1.131   7.560   5.572                        
  324DOPE   C4A 3961   1.123   7.597   5.825                        
  324DOPE   C1B 3962   1.153   7.308   4.930                        
  324DOPE   D2B 3963   1.164   7.320   5.258                        
  324DOPE   C3B 3964   1.125   7.334   5.573                        
  324DOPE   C4B 3965   1.153   7.343   5.873                        
  325DOPE   NH3 3966   2.745   7.538   4.067                        
  325DOPE   PO4 3967   2.723   7.548   4.330                        
  325DOPE   GL1 3968   2.719   7.559   4.673                        
  325DOPE   GL2 3969   2.618   7.579   4.651                        
  325DOPE   C1A 3970   2.725   7.561   4.930                        
  325DOPE   D2A 3971   2.702   7.544   5.251                        
  325DOPE   C3A 3972   2.703   7.548   5.565                        
  325DOPE   C4A 3973   2.706   7.539   5.873                        
  325DOPE   C1B 3974   2.491   7.656   4.934                        
  325DOPE   D2B 3975   2.477   7.628   5.267                        
  325DOPE   C3B 3976   2.471   7.637   5.541                        
  325DOPE   C4B 3977   2.511   7.636   5.872                        
  326DOPE   NH3 3978   2.629  10.672   4.028                        
  326DOPE   PO4 3979   2.593  10.668   4.335                        
  326DOPE   GL1 3980   2.594  10.648   4.660                        
  326DOPE   GL2 3981   2.609  10.550   4.665                        
  326DOPE   C1A 3982   2.600  10.684   4.961                        
  326DOPE   D2A 3983   2.636  10.666   5.242                        
  326DOPE   C3A 3984   2.610  10.679   5.534                        
  326DOPE   C4A 3985   2.614  10.685   5.870                        
  326DOPE   C1B 3986   2.602  10.421   4.936                        
  326DOPE   D2B 3987   2.605  10.423   5.244                        
  326DOPE   C3B 3988   2.563  10.390   5.536                        
  326DOPE   C4B 3989   2.566  10.415   5.850                        
  327DOPE   NH3 3990   2.847   2.323   4.038                        
  327DOPE   PO4 3991   2.869   2.334   4.326                        
  327DOPE   GL1 3992   2.869   2.316   4.674                        
  327DOPE   GL2 3993   2.893   2.436   4.630                        
  327DOPE   C1A 3994   2.862   2.337   4.954                        
  327DOPE   D2A 3995   2.852   2.305   5.242                        
  327DOPE   C3A 3996   2.874   2.301   5.544                        
  327DOPE   C4A 3997   2.842   2.333   5.866                        
  327DOPE   C1B 3998   2.939   2.530   4.955                        
  327DOPE   D2B 3999   2.964   2.564   5.270                        
  327DOPE   C3B 4000   2.976   2.553   5.571                        
  327DOPE   C4B 4001   2.945   2.556   5.869                        
  328DOPE   NH3 4002   3.938   1.111   4.037                        
  328DOPE   PO4 4003   3.960   1.108   4.343                        
  328DOPE   GL1 4004   3.965   1.132   4.634                        
  328DOPE   GL2 4005   4.085   1.095   4.664                        
  328DOPE   C1A 4006   3.949   1.103   4.954                        
  328DOPE   D2A 4007   3.923   1.125   5.229                        
  328DOPE   C3A 4008   3.961   1.129   5.538                        
  328DOPE   C4A 4009   3.950   1.105   5.830                        
  328DOPE   C1B 4010   4.187   1.058   4.946                        
  328DOPE   D2B 4011   4.199   1.094   5.261                        
  328DOPE   C3B 4012   4.169   1.092   5.567                        
  328DOPE   C4B 4013   4.206   1.092   5.844                        
  329DOPE   NH3 4014   5.536   1.182   4.047                        
  329DOPE   PO4 4015   5.553   1.204   4.364                        
  329DOPE   GL1 4016   5.523   1.190   4.626                        
  329DOPE   GL2 4017   5.429   1.082   4.668                        
  329DOPE   C1A 4018   5.517   1.173   4.952                        
  329DOPE   D2A 4019   5.520   1.176   5.259                        
  329DOPE   C3A 4020   5.540   1.177   5.528                        
  329DOPE   C4A 4021   5.509   1.216   5.870                        
  329DOPE   C1B 4022   5.341   0.995   4.946                        
  329DOPE   D2B 4023   5.355   1.026   5.232                        
  329DOPE   C3B 4024   5.355   0.988   5.573                        
  329DOPE   C4B 4025   5.367   1.020   5.828                        
  330DOPE   NH3 4026   5.412  11.317   4.054                        
  330DOPE   PO4 4027   5.439  11.354   4.371                        
  330DOPE   GL1 4028   5.413  11.331   4.640                        
  330DOPE   GL2 4029   5.546  11.401   4.662                        
  330DOPE   C1A 4030   5.410  11.316   4.937                        
  330DOPE   D2A 4031   5.423  11.357   5.246                        
  330DOPE   C3A 4032   5.453  11.331   5.535                        
  330DOPE   C4A 4033   5.455  11.330   5.825                        
  330DOPE   C1B 4034   5.657  11.471   4.940                        
  330DOPE   D2B 4035   5.629  11.479   5.253                        
  330DOPE   C3B 4036   5.628  11.486   5.564                        
  330DOPE   C4B 4037   5.612  11.472   5.875                        
  331DOPE   NH3 4038   5.463  13.752   4.036                        
  331DOPE   PO4 4039   5.445  13.737   4.349                        
  331DOPE   GL1 4040   5.460  13.715   4.669                        
  331DOPE   GL2 4041   5.487  13.608   4.666                        
  331DOPE   C1A 4042   5.438  13.734   4.935                        
  331DOPE   D2A 4043   5.447  13.718   5.269                        
  331DOPE   C3A 4044   5.421  13.721   5.540                        
  331DOPE   C4A 4045   5.441  13.711   5.832                        
  331DOPE   C1B 4046   5.571  13.497   4.947                        
  331DOPE   D2B 4047   5.590  13.507   5.237                        
  331DOPE   C3B 4048   5.589  13.521   5.567                        
  331DOPE   C4B 4049   5.578  13.514   5.863                        
  332DOPE   NH3 4050   6.263   8.778   4.038                        
  332DOPE   PO4 4051   6.294   8.811   4.352                        
  332DOPE   GL1 4052   6.276   8.795   4.634                        
  332DOPE   GL2 4053   6.235   8.929   4.627                        
  332DOPE   C1A 4054   6.271   8.805   4.932                        
  332DOPE   D2A 4055   6.265   8.786   5.227                        
  332DOPE   C3A 4056   6.273   8.805   5.542                        
  332DOPE   C4A 4057   6.261   8.811   5.827                        
  332DOPE   C1B 4058   6.237   9.020   4.955                        
  332DOPE   D2B 4059   6.230   9.021   5.271                        
  332DOPE   C3B 4060   6.235   9.045   5.534                        
  332DOPE   C4B 4061   6.224   9.008   5.865                        
  333DOPE   NH3 4062   6.845  12.233   4.032                        
  333DOPE   PO4 4063   6.809  12.224   4.374                        
  333DOPE   GL1 4064   6.852  12.229   4.627                        
  333DOPE   GL2 4065   6.897  12.137   4.672                        
  333DOPE   C1A 4066   6.827  12.246   4.955                        
  333DOPE   D2A 4067   6.813  12.239   5.241                        
  333DOPE   C3A 4068   6.840  12.243   5.558                        
  333DOPE   C4A 4069   6.825  12.266   5.832                        
  333DOPE   C1B 4070   6.969  12.060   4.958                        
  333DOPE   D2B 4071   6.958  12.063   5.271                        
  333DOPE   C3B 4072   6.979  12.051   5.528                        
  333DOPE   C4B 4073   6.991  12.050   5.846                        
  334DOPE   NH3 4074   6.935  12.817   4.031                        
  334DOPE   PO4 4075   6.956  12.814   4.356                        
  334DOPE   GL1 4076   6.956  12.842   4.645                        
  334DOPE   GL2 4077   6.861  12.885   4.644                        
  334DOPE   C1A 4078   6.962  12.860   4.934                        
  334DOPE   D2A 4079   6.931  12.853   5.228                        
  334DOPE   C3A 4080   6.969  12.821   5.555                        
  334DOPE   C4A 4081   6.934  12.812   5.854                        
  334DOPE   C1B 4082   6.737  12.950   4.969                        
  334DOPE   D2B 4083   6.732  12.932   5.240                        
  334DOPE   C3B 4084   6.708  12.952   5.544                        
  334DOPE   C4B 4085   6.733  12.944   5.865                        
  335DOPE   NH3 4086   7.578   6.603   4.055                        
  335DOPE   PO4 4087   7.606   6.600   4.352                        
  335DOPE   GL1 4088   7.595   6.586   4.664                        
  335DOPE   GL2 4089   7.687   6.716   4.664                        
  335DOPE   C1A 4090   7.608   6.600   4.952                        
  335DOPE   D2A 4091   7.590   6.573   5.244                        
  335DOPE   C3A 4092   7.602   6.595   5.548                        
  335DOPE   C4A 4093   7.597   6.567   5.839                        
  335DOPE   C1B 4094   7.736   6.815   4.947                        
  335DOPE   D2B 4095   7.733   6.812   5.232                        
  335DOPE   C3B 4096   7.745   6.806   5.539                        
  335DOPE   C4B 4097   7.709   6.807   5.826                        
  336DOPE   NH3 4098   8.397   0.286   4.043                        
  336DOPE   PO4 4099   8.378   0.270   4.328                        
  336DOPE   GL1 4100   8.372   0.288   4.632                        
  336DOPE   GL2 4101   8.320   0.354   4.658                        
  336DOPE   C1A 4102   8.375   0.252   4.969                        
  336DOPE   D2A 4103   8.389   0.269   5.244                        
  336DOPE   C3A 4104   8.401   0.259   5.544                        
  336DOPE   C4A 4105   8.365   0.281   5.855                        
  336DOPE   C1B 4106   8.258   0.479   4.935                        
  336DOPE   D2B 4107   8.249   0.460   5.225                        
  336DOPE   C3B 4108   8.265   0.477   5.560                        
  336DOPE   C4B 4109   8.273   0.497   5.873                        
  337DOPE   NH3 4110   8.534   8.281   4.031                        
  337DOPE   PO4 4111   8.531   8.297   4.369                        
  337DOPE   GL1 4112   8.546   8.281   4.674                        
  337DOPE   GL2 4113   8.442   8.223   4.674                        
  337DOPE   C1A 4114   8.542   8.321   4.967                        
  337DOPE   D2A 4115   8.510   8.281   5.266                        
  337DOPE   C3A 4116   8.510   8.278   5.531                        
  337DOPE   C4A 4117   8.553   8.300   5.851                        
  337DOPE   C1B 4118   8.350   8.142   4.944                        
  337DOPE   D2B 4119   8.349   8.145   5.262                        
  337DOPE   C3B 4120   8.359   8.152   5.569                        
  337DOPE   C4B 4121   8.337   8.105   5.838                        
  338DOPE   NH3 4122   9.770   8.121   4.045                        
  338DOPE   PO4 4123   9.731   8.132   4.353                        
  338DOPE   GL1 4124   9.742   8.127   4.626                        
  338DOPE   GL2 4125   9.895   8.116   4.628                        
  338DOPE   C1A 4126   9.751   8.124   4.949                        
  338DOPE   D2A 4127   9.750   8.111   5.260                        
  338DOPE   C3A 4128   9.768   8.153   5.557                        
  338DOPE   C4A 4129   9.732   8.108   5.871                        
  338DOPE   C1B 4130   9.990   8.055   4.949                        
  338DOPE   D2B 4131   9.991   8.070   5.239                        
  338DOPE   C3B 4132   9.978   8.091   5.571                        
  338DOPE   C4B 4133   9.975   8.080   5.831                        
  339DOPE   NH3 4134  10.566   4.402   4.046                        
  339DOPE   PO4 4135  10.556   4.425   4.368                        
  339DOPE   GL1 4136  10.536   4.415   4.644                        
  339DOPE   GL2 4137  10.633   4.342   4.631                        
  339DOPE   C1A 4138  10.544   4.432   4.968                        
  339DOPE   D2A 4139  10.555   4.416   5.249                        
  339DOPE   C3A 4140  10.538   4.405   5.574                        
  339DOPE   C4A 4141  10.562   4.438   5.865                        
  339DOPE   C1B 4142  10.737   4.266   4.972                        
  339DOPE   D2B 4143  10.748   4.296   5.272                        
  339DOPE   C3B 4144  10.784   4.278   5.552                        
  339DOPE   C4B 4145  10.758   4.267   5.848                        
  340DOPE   NH3 4146  10.532  11.212   4.034                        
  340DOPE   PO4 4147  10.518  11.184   4.337                        
  340DOPE   GL1 4148  10.521  11.176   4.663                        
  340DOPE   GL2 4149  10.632  11.224   4.673                        
  340DOPE   C1A 4150  10.548  11.198   4.934                        
  340DOPE   D2A 4151  10.535  11.167   5.241                        
  340DOPE   C3A 4152  10.543  11.198   5.550                        
  340DOPE   C4A 4153  10.530  11.177   5.857                        
  340DOPE   C1B 4154  10.784  11.275   4.936                        
  340DOPE   D2B 4155  10.791  11.298   5.244                        
  340DOPE   C3B 4156  10.763  11.269   5.538                        
  340DOPE   C4B 4157  10.777  11.292   5.860                        
  341DOPE   NH3 4158  11.467   3.491   4.044                        
  341DOPE   PO4 4159  11.490   3.493   4.348                        
  341DOPE   GL1 4160  11.486   3.500   4.659                        
  341DOPE   GL2 4161  11.397   3.627   4.656                        
  341DOPE   C1A 4162  11.475   3.489   4.928                        
  341DOPE   D2A 4163  11.486   3.500   5.244                        
  341DOPE   C3A 4164  11.469   3.477   5.571                        
  341DOPE   C4A 4165  11.449   3.515   5.844                        
  341DOPE   C1B 4166  11.351   3.720   4.971                        
  341DOPE   D2B 4167  11.331   3.728   5.251                        
  341DOPE   C3B 4168  11.324   3.697   5.570                        
  341DOPE   C4B 4169  11.342   3.690   5.870                        
  342DOPE   NH3 4170  11.364   4.432   4.053                        
  342DOPE   PO4 4171  11.356   4.405   4.337                        
  342DOPE   GL1 4172  11.340   4.429   4.668                        
  342DOPE   GL2 4173  11.408   4.304   4.643                        
  342DOPE   C1A 4174  11.354   4.407   4.973                        
  342DOPE   D2A 4175  11.357   4.403   5.251                        
  342DOPE   C3A 4176  11.343   4.445   5.553                        
  342DOPE   C4A 4177  11.322   4.406   5.840                        
  342DOPE   C1B 4178  11.470   4.181   4.952                        
  342DOPE   D2B 4179  11.436   4.215   5.248                        
  342DOPE   C3B 4180  11.467   4.209   5.532                        
  342DOPE   C4B 4181  11.466   4.183   5.841                        
  343DOPE   NH3 4182  11.283   5.840   4.053                        
  343DOPE   PO4 4183  11.270   5.811   4.373                        
  343DOPE   GL1 4184  11.275   5.822   4.660                        
  343DOPE   GL2 4185  11.332   5.711   4.637                        
  343DOPE   C1A 4186  11.257   5.833   4.941                        
  343DOPE   D2A 4187  11.272   5.853   5.266                        
  343DOPE   C3A 4188  11.251   5.841   5.573                        
  343DOPE   C4A 4189  11.277   5.832   5.864                        
  343DOPE   C1B 4190  11.325   5.613   4.934                        
  343DOPE   D2B 4191  11.349   5.614   5.263                        
  343DOPE   C3B 4192  11.323   5.591   5.558                        
  343DOPE   C4B 4193  11.353   5.590   5.864                        
  344DOPE   NH3 4194  12.267  11.300   4.069                        
  344DOPE   PO4 4195  12.277  11.287   4.334                        
  344DOPE   GL1 4196  12.261  11.305   4.650                        
  344DOPE   GL2 4197  12.116  11.246   4.670                        
  344DOPE   C1A 4198  12.280  11.284   4.960                        
  344DOPE   D2A 4199  12.265  11.293   5.263                        
  344DOPE   C3A 4200  12.264  11.275   5.555                        
  344DOPE   C4A 4201  12.253  11.302   5.842                        
  344DOPE   C1B 4202  12.032  11.226   4.932                        
  344DOPE   D2B 4203  12.005  11.220   5.232                        
  344DOPE   C3B 4204  12.010  11.246   5.563                        
  344DOPE   C4B 4205  11.992  11.222   5.827                        
  345DOPE   NH3 4206  12.909  11.179   4.026                        
  345DOPE   PO4 4207  12.921  11.156   4.348                        
  345DOPE   GL1 4208  12.916  11.185   4.627                        
  345DOPE   GL2 4209  12.897  11.292   4.651                        
  345DOPE   C1A 4210  12.934  11.160   4.963                        
  345DOPE   D2A 4211  12.925  11.182   5.245                        
  345DOPE   C3A 4212  12.903  11.148   5.558                        
  345DOPE   C4A 4213  12.931  11.186   5.826                        
  345DOPE   C1B 4214  12.904  11.426   4.973                        
  345DOPE   D2B 4215  12.889  11.439   5.250                        
  345DOPE   C3B 4216  12.889  11.398   5.540                        
  345DOPE   C4B 4217  12.883  11.434   5.845                        
  346DOPE   NH3 4218  12.894   3.487   4.060                        
  346DOPE   PO4 4219  12.869   3.510   4.341                        
  346DOPE   GL1 4220  12.896   3.519   4.663                        
  346DOPE   GL2 4221  12.887   3.393   4.669                        
  346DOPE   C1A 4222  12.894   3.497   4.941                        
  346DOPE   D2A 4223  12.887   3.501   5.243                        
  346DOPE   C3A 4224  12.911   3.524   5.570                        
  346DOPE   C4A 4225  12.903   3.496   5.859                        
  346DOPE   C1B 4226  12.885   3.243   4.965                        
  346DOPE   D2B 4227  12.840   3.264   5.234                        
  346DOPE   C3B 4228  12.856   3.238   5.546                        
  346DOPE   C4B 4229  12.860   3.272   5.839                        
  347DOPE   NH3 4230  13.597  10.071   4.039                        
  347DOPE   PO4 4231  13.571  10.048   4.344                        
  347DOPE   GL1 4232  13.575  10.046   4.647                        
  347DOPE   GL2 4233  13.627  10.161   4.655                        
  347DOPE   C1A 4234  13.553  10.034   4.954                        
  347DOPE   D2A 4235  13.584  10.049   5.253                        
  347DOPE   C3A 4236  13.562  10.067   5.556                        
  347DOPE   C4A 4237  13.578  10.063   5.829                        
  347DOPE   C1B 4238  13.663  10.313   4.973                        
  347DOPE   D2B 4239  13.669  10.269   5.264                        
  347DOPE   C3B 4240  13.678  10.292   5.563                        
  347DOPE   C4B 4241  13.658  10.266   5.858                        
  348DVPE   NH3 4242   0.444   4.233   4.034                        
  348DVPE   PO4 4243   0.463   4.208   4.343                        
  348DVPE   GL1 4244   0.465   4.220   4.674                        
  348DVPE   GL2 4245   0.350   4.338   4.650                        
  348DVPE   C1A 4246   0.429   4.193   4.963                        
  348DVPE   C2A 4247   0.459   4.237   5.269                        
  348DVPE   D3A 4248   0.419   4.214   5.535                        
  348DVPE   C4A 4249   0.457   4.231   5.828                        
  348DVPE   C1B 4250   0.296   4.445   4.937                        
  348DVPE   C2B 4251   0.329   4.409   5.260                        
  348DVPE   D3B 4252   0.296   4.423   5.539                        
  348DVPE   C4B 4253   0.314   4.435   5.827                        
  349DVPE   NH3 4254   0.289   5.690   4.063                        
  349DVPE   PO4 4255   0.300   5.678   4.358                        
  349DVPE   GL1 4256   0.303   5.665   4.631                        
  349DVPE   GL2 4257   0.396   5.779   4.664                        
  349DVPE   C1A 4258   0.310   5.673   4.967                        
  349DVPE   C2A 4259   0.309   5.695   5.228                        
  349DVPE   D3A 4260   0.296   5.673   5.555                        
  349DVPE   C4A 4261   0.320   5.658   5.849                        
  349DVPE   C1B 4262   0.431   5.857   4.962                        
  349DVPE   C2B 4263   0.473   5.895   5.230                        
  349DVPE   D3B 4264   0.444   5.893   5.540                        
  349DVPE   C4B 4265   0.446   5.890   5.872                        
  350DVPE   NH3 4266   0.287   6.544   4.059                        
  350DVPE   PO4 4267   0.264   6.495   4.353                        
  350DVPE   GL1 4268   0.266   6.504   4.644                        
  350DVPE   GL2 4269   0.371   6.553   4.628                        
  350DVPE   C1A 4270   0.253   6.501   4.942                        
  350DVPE   C2A 4271   0.249   6.535   5.261                        
  350DVPE   D3A 4272   0.288   6.528   5.550                        
  350DVPE   C4A 4273   0.286   6.522   5.841                        
  350DVPE   C1B 4274   0.504   6.548   4.937                        
  350DVPE   C2B 4275   0.530   6.589   5.258                        
  350DVPE   D3B 4276   0.523   6.566   5.548                        
  350DVPE   C4B 4277   0.530   6.558   5.863                        
  351DVPE   NH3 4278   0.318   8.029   4.061                        
  351DVPE   PO4 4279   0.307   8.048   4.328                        
  351DVPE   GL1 4280   0.291   8.027   4.657                        
  351DVPE   GL2 4281   0.375   8.171   4.650                        
  351DVPE   C1A 4282   0.278   8.074   4.961                        
  351DVPE   C2A 4283   0.311   8.064   5.249                        
  351DVPE   D3A 4284   0.271   8.052   5.548                        
  351DVPE   C4A 4285   0.278   8.050   5.868                        
  351DVPE   C1B 4286   0.466   8.244   4.965                        
  351DVPE   C2B 4287   0.442   8.246   5.248                        
  351DVPE   D3B 4288   0.450   8.267   5.555                        
  351DVPE   C4B 4289   0.438   8.259   5.848                        
  352DVPE   NH3 4290   0.448   8.817   4.063                        
  352DVPE   PO4 4291   0.431   8.808   4.363                        
  352DVPE   GL1 4292   0.474   8.849   4.644                        
  352DVPE   GL2 4293   0.394   8.932   4.652                        
  352DVPE   C1A 4294   0.428   8.845   4.969                        
  352DVPE   C2A 4295   0.427   8.813   5.232                        
  352DVPE   D3A 4296   0.461   8.822   5.552                        
  352DVPE   C4A 4297   0.426   8.816   5.827                        
  352DVPE   C1B 4298   0.337   9.027   4.965                        
  352DVPE   C2B 4299   0.320   9.024   5.229                        
  352DVPE   D3B 4300   0.314   9.013   5.534                        
  352DVPE   C4B 4301   0.320   9.031   5.835                        
  353DVPE   NH3 4302   0.476   9.785   4.073                        
  353DVPE   PO4 4303   0.485   9.786   4.351                        
  353DVPE   GL1 4304   0.461   9.755   4.666                        
  353DVPE   GL2 4305   0.355   9.709   4.657                        
  353DVPE   C1A 4306   0.487   9.770   4.967                        
  353DVPE   C2A 4307   0.486   9.774   5.243                        
  353DVPE   D3A 4308   0.473   9.789   5.569                        
  353DVPE   C4A 4309   0.468   9.762   5.847                        
  353DVPE   C1B 4310   0.301   9.606   4.941                        
  353DVPE   C2B 4311   0.310   9.597   5.263                        
  353DVPE   D3B 4312   0.300   9.585   5.560                        
  353DVPE   C4B 4313   0.294   9.610   5.867                        
  354DVPE   NH3 4314   0.328  11.141   4.063                        
  354DVPE   PO4 4315   0.375  11.112   4.329                        
  354DVPE   GL1 4316   0.357  11.137   4.667                        
  354DVPE   GL2 4317   0.353  11.232   4.636                        
  354DVPE   C1A 4318   0.376  11.122   4.939                        
  354DVPE   C2A 4319   0.343  11.135   5.243                        
  354DVPE   D3A 4320   0.374  11.116   5.539                        
  354DVPE   C4A 4321   0.343  11.097   5.847                        
  354DVPE   C1B 4322   0.386  11.377   4.955                        
  354DVPE   C2B 4323   0.384  11.357   5.253                        
  354DVPE   D3B 4324   0.422  11.379   5.548                        
  354DVPE   C4B 4325   0.404  11.381   5.849                        
  355DVPE   NH3 4326   0.262  13.631   4.055                        
  355DVPE   PO4 4327   0.265  13.602   4.362                        
  355DVPE   GL1 4328   0.262  13.597   4.629                        
  355DVPE   GL2 4329   0.379  13.594   4.650                        
  355DVPE   C1A 4330   0.269  13.642   4.951                        
  355DVPE   C2A 4331   0.272  13.604   5.265                        
  355DVPE   D3A 4332   0.247  13.614   5.546                        
  355DVPE   C4A 4333   0.271  13.616   5.838                        
  355DVPE   C1B 4334   0.504  13.576   4.956                        
  355DVPE   C2B 4335   0.474  13.565   5.258                        
  355DVPE   D3B 4336   0.506  13.573   5.567                        
  355DVPE   C4B 4337   0.505  13.591   5.832                        
  356DVPE   NH3 4338   1.234   6.642   4.063                        
  356DVPE   PO4 4339   1.227   6.657   4.355                        
  356DVPE   GL1 4340   1.255   6.635   4.648                        
  356DVPE   GL2 4341   1.116   6.711   4.631                        
  356DVPE   C1A 4342   1.218   6.649   4.973                        
  356DVPE   C2A 4343   1.226   6.641   5.236                        
  356DVPE   D3A 4344   1.220   6.621   5.561                        
  356DVPE   C4A 4345   1.247   6.634   5.863                        
  356DVPE   C1B 4346   0.986   6.718   4.973                        
  356DVPE   C2B 4347   1.018   6.735   5.272                        
  356DVPE   D3B 4348   1.030   6.731   5.542                        
  356DVPE   C4B 4349   1.002   6.718   5.836                        
  357DVPE   NH3 4350   0.991  11.278   4.045                        
  357DVPE   PO4 4351   0.987  11.303   4.343                        
  357DVPE   GL1 4352   1.016  11.295   4.656                        
  357DVPE   GL2 4353   1.123  11.304   4.646                        
  357DVPE   C1A 4354   0.993  11.279   4.929                        
  357DVPE   C2A 4355   0.996  11.313   5.267                        
  357DVPE   D3A 4356   1.008  11.308   5.554                        
  357DVPE   C4A 4357   0.971  11.315   5.829                        
  357DVPE   C1B 4358   1.234  11.276   4.945                        
  357DVPE   C2B 4359   1.248  11.262   5.243                        
  357DVPE   D3B 4360   1.240  11.281   5.547                        
  357DVPE   C4B 4361   1.236  11.260   5.830                        
  358DVPE   NH3 4362   1.232  12.043   4.042                        
  358DVPE   PO4 4363   1.253  12.043   4.331                        
  358DVPE   GL1 4364   1.241  12.053   4.625                        
  358DVPE   GL2 4365   1.133  12.056   4.638                        
  358DVPE   C1A 4366   1.267  12.020   4.972                        
  358DVPE   C2A 4367   1.249  12.037   5.257                        
  358DVPE   D3A 4368   1.231  12.037   5.536                        
  358DVPE   C4A 4369   1.235  12.019   5.839                        
  358DVPE   C1B 4370   0.991  12.065   4.933                        
  358DVPE   C2B 4371   1.002  12.081   5.245                        
  358DVPE   D3B 4372   1.020  12.076   5.544                        
  358DVPE   C4B 4373   1.013  12.064   5.845                        
  359DVPE   NH3 4374   1.185  12.895   4.073                        
  359DVPE   PO4 4375   1.172  12.900   4.329                        
  359DVPE   GL1 4376   1.196  12.932   4.638                        
  359DVPE   GL2 4377   1.138  12.802   4.626                        
  359DVPE   C1A 4378   1.162  12.913   4.926                        
  359DVPE   C2A 4379   1.180  12.901   5.263                        
  359DVPE   D3A 4380   1.154  12.929   5.558                        
  359DVPE   C4A 4381   1.187  12.908   5.848                        
  359DVPE   C1B 4382   1.058  12.696   4.970                        
  359DVPE   C2B 4383   1.078  12.690   5.257                        
  359DVPE   D3B 4384   1.079  12.701   5.529                        
  359DVPE   C4B 4385   1.052  12.668   5.872                        
  360DVPE   NH3 4386   1.122  13.745   4.069                        
  360DVPE   PO4 4387   1.160  13.740   4.370                        
  360DVPE   GL1 4388   1.126  13.759   4.668                        
  360DVPE   GL2 4389   1.114  13.628   4.649                        
  360DVPE   C1A 4390   1.148  13.715   4.939                        
  360DVPE   C2A 4391   1.147  13.740   5.260                        
  360DVPE   D3A 4392   1.160  13.755   5.533                        
  360DVPE   C4A 4393   1.145  13.723   5.827                        
  360DVPE   C1B 4394   1.092  13.496   4.973                        
  360DVPE   C2B 4395   1.092  13.517   5.255                        
  360DVPE   D3B 4396   1.081  13.484   5.548                        
  360DVPE   C4B 4397   1.074  13.506   5.868                        
  361DVPE   NH3 4398   2.621   2.034   4.074                        
  361DVPE   PO4 4399   2.653   2.016   4.362                        
  361DVPE   GL1 4400   2.649   2.008   4.667                        
  361DVPE   GL2 4401   2.551   1.944   4.642                        
  361DVPE   C1A 4402   2.647   2.041   4.945                        
  361DVPE   C2A 4403   2.654   2.014   5.266                        
  361DVPE   D3A 4404   2.648   2.025   5.557                        
  361DVPE   C4A 4405   2.611   2.036   5.862                        
  361DVPE   C1B 4406   2.445   1.856   4.934                        
  361DVPE   C2B 4407   2.449   1.848   5.253                        
  361DVPE   D3B 4408   2.487   1.830   5.557                        
  361DVPE   C4B 4409   2.445   1.827   5.867                        
  362DVPE   NH3 4410   1.713   3.924   4.028                        
  362DVPE   PO4 4411   1.690   3.939   4.337                        
  362DVPE   GL1 4412   1.715   3.947   4.662                        
  362DVPE   GL2 4413   1.800   3.886   4.663                        
  362DVPE   C1A 4414   1.684   3.956   4.925                        
  362DVPE   C2A 4415   1.693   3.928   5.265                        
  362DVPE   D3A 4416   1.670   3.965   5.547                        
  362DVPE   C4A 4417   1.675   3.950   5.848                        
  362DVPE   C1B 4418   1.915   3.844   4.946                        
  362DVPE   C2B 4419   1.911   3.816   5.273                        
  362DVPE   D3B 4420   1.912   3.811   5.546                        
  362DVPE   C4B 4421   1.937   3.837   5.858                        
  363DVPE   NH3 4422   1.470   4.502   4.065                        
  363DVPE   PO4 4423   1.465   4.482   4.328                        
  363DVPE   GL1 4424   1.439   4.462   4.675                        
  363DVPE   GL2 4425   1.583   4.577   4.656                        
  363DVPE   C1A 4426   1.438   4.488   4.944                        
  363DVPE   C2A 4427   1.445   4.464   5.227                        
  363DVPE   D3A 4428   1.458   4.468   5.559                        
  363DVPE   C4A 4429   1.477   4.477   5.867                        
  363DVPE   C1B 4430   1.674   4.611   4.933                        
  363DVPE   C2B 4431   1.664   4.632   5.232                        
  363DVPE   D3B 4432   1.672   4.635   5.572                        
  363DVPE   C4B 4433   1.648   4.653   5.839                        
  364DVPE   NH3 4434   1.548   5.590   4.035                        
  364DVPE   PO4 4435   1.577   5.613   4.349                        
  364DVPE   GL1 4436   1.585   5.591   4.664                        
  364DVPE   GL2 4437   1.570   5.477   4.664                        
  364DVPE   C1A 4438   1.544   5.590   4.935                        
  364DVPE   C2A 4439   1.579   5.589   5.240                        
  364DVPE   D3A 4440   1.545   5.587   5.527                        
  364DVPE   C4A 4441   1.547   5.605   5.830                        
  364DVPE   C1B 4442   1.545   5.335   4.959                        
  364DVPE   C2B 4443   1.561   5.351   5.227                        
  364DVPE   D3B 4444   1.561   5.359   5.525                        
  364DVPE   C4B 4445   1.570   5.338   5.867                        
  365DVPE   NH3 4446   1.747   6.047   4.028                        
  365DVPE   PO4 4447   1.723   6.026   4.352                        
  365DVPE   GL1 4448   1.761   6.029   4.641                        
  365DVPE   GL2 4449   1.759   6.162   4.633                        
  365DVPE   C1A 4450   1.751   6.049   4.939                        
  365DVPE   C2A 4451   1.743   6.039   5.237                        
  365DVPE   D3A 4452   1.734   6.045   5.561                        
  365DVPE   C4A 4453   1.759   6.016   5.875                        
  365DVPE   C1B 4454   1.818   6.261   4.968                        
  365DVPE   C2B 4455   1.821   6.293   5.259                        
  365DVPE   D3B 4456   1.835   6.270   5.530                        
  365DVPE   C4B 4457   1.830   6.257   5.864                        
  366DVPE   NH3 4458   1.963   6.967   4.035                        
  366DVPE   PO4 4459   1.946   6.945   4.349                        
  366DVPE   GL1 4460   1.959   6.948   4.626                        
  366DVPE   GL2 4461   1.860   6.863   4.674                        
  366DVPE   C1A 4462   1.921   6.941   4.927                        
  366DVPE   C2A 4463   1.958   6.956   5.252                        
  366DVPE   D3A 4464   1.942   6.959   5.531                        
  366DVPE   C4A 4465   1.925   6.973   5.834                        
  366DVPE   C1B 4466   1.725   6.822   4.940                        
  366DVPE   C2B 4467   1.761   6.781   5.249                        
  366DVPE   D3B 4468   1.734   6.780   5.558                        
  366DVPE   C4B 4469   1.734   6.827   5.825                        
  367DVPE   NH3 4470   1.739   8.352   4.048                        
  367DVPE   PO4 4471   1.730   8.355   4.335                        
  367DVPE   GL1 4472   1.756   8.386   4.658                        
  367DVPE   GL2 4473   1.870   8.348   4.651                        
  367DVPE   C1A 4474   1.746   8.379   4.958                        
  367DVPE   C2A 4475   1.721   8.358   5.268                        
  367DVPE   D3A 4476   1.736   8.376   5.536                        
  367DVPE   C4A 4477   1.735   8.381   5.873                        
  367DVPE   C1B 4478   2.005   8.404   4.968                        
  367DVPE   C2B 4479   1.970   8.385   5.238                        
  367DVPE   D3B 4480   1.982   8.401   5.560                        
  367DVPE   C4B 4481   1.975   8.363   5.838                        
  368DVPE   NH3 4482   1.860  10.510   4.036                        
  368DVPE   PO4 4483   1.869  10.483   4.369                        
  368DVPE   GL1 4484   1.875  10.505   4.658                        
  368DVPE   GL2 4485   1.880  10.630   4.651                        
  368DVPE   C1A 4486   1.865  10.481   4.943                        
  368DVPE   C2A 4487   1.854  10.510   5.227                        
  368DVPE   D3A 4488   1.867  10.497   5.539                        
  368DVPE   C4A 4489   1.862  10.499   5.830                        
  368DVPE   C1B 4490   1.857  10.742   4.938                        
  368DVPE   C2B 4491   1.860  10.739   5.257                        
  368DVPE   D3B 4492   1.855  10.740   5.574                        
  368DVPE   C4B 4493   1.877  10.766   5.857                        
  369DVPE   NH3 4494   1.936  11.281   4.064                        
  369DVPE   PO4 4495   1.946  11.282   4.337                        
  369DVPE   GL1 4496   1.933  11.282   4.661                        
  369DVPE   GL2 4497   1.843  11.374   4.672                        
  369DVPE   C1A 4498   1.942  11.248   4.964                        
  369DVPE   C2A 4499   1.924  11.277   5.274                        
  369DVPE   D3A 4500   1.913  11.255   5.570                        
  369DVPE   C4A 4501   1.961  11.258   5.841                        
  369DVPE   C1B 4502   1.754  11.466   4.962                        
  369DVPE   C2B 4503   1.792  11.477   5.233                        
  369DVPE   D3B 4504   1.766  11.457   5.564                        
  369DVPE   C4B 4505   1.772  11.488   5.871                        
  370DVPE   NH3 4506   1.758  12.059   4.057                        
  370DVPE   PO4 4507   1.780  12.054   4.370                        
  370DVPE   GL1 4508   1.785  12.058   4.647                        
  370DVPE   GL2 4509   1.878  12.103   4.667                        
  370DVPE   C1A 4510   1.751  12.046   4.949                        
  370DVPE   C2A 4511   1.772  12.040   5.268                        
  370DVPE   D3A 4512   1.754  12.025   5.529                        
  370DVPE   C4A 4513   1.754  12.063   5.830                        
  370DVPE   C1B 4514   1.956  12.202   4.931                        
  370DVPE   C2B 4515   1.982  12.204   5.256                        
  370DVPE   D3B 4516   1.993  12.205   5.554                        
  370DVPE   C4B 4517   1.983  12.183   5.854                        
  371DVPE   NH3 4518   2.586   8.434   4.059                        
  371DVPE   PO4 4519   2.588   8.410   4.369                        
  371DVPE   GL1 4520   2.595   8.439   4.672                        
  371DVPE   GL2 4521   2.612   8.294   4.657                        
  371DVPE   C1A 4522   2.624   8.440   4.955                        
  371DVPE   C2A 4523   2.619   8.423   5.229                        
  371DVPE   D3A 4524   2.588   8.426   5.560                        
  371DVPE   C4A 4525   2.612   8.401   5.852                        
  371DVPE   C1B 4526   2.573   8.201   4.973                        
  371DVPE   C2B 4527   2.575   8.177   5.227                        
  371DVPE   D3B 4528   2.611   8.157   5.540                        
  371DVPE   C4B 4529   2.604   8.187   5.853                        
  372DVPE   NH3 4530   2.453   9.025   4.030                        
  372DVPE   PO4 4531   2.499   9.034   4.364                        
  372DVPE   GL1 4532   2.475   8.998   4.675                        
  372DVPE   GL2 4533   2.582   9.011   4.652                        
  372DVPE   C1A 4534   2.492   9.023   4.944                        
  372DVPE   C2A 4535   2.463   9.019   5.226                        
  372DVPE   D3A 4536   2.478   9.021   5.568                        
  372DVPE   C4A 4537   2.459   9.005   5.843                        
  372DVPE   C1B 4538   2.720   9.037   4.929                        
  372DVPE   C2B 4539   2.738   9.020   5.262                        
  372DVPE   D3B 4540   2.737   9.063   5.539                        
  372DVPE   C4B 4541   2.704   9.062   5.831                        
  373DVPE   NH3 4542   2.549  12.198   4.030                        
  373DVPE   PO4 4543   2.565  12.183   4.338                        
  373DVPE   GL1 4544   2.550  12.177   4.660                        
  373DVPE   GL2 4545   2.622  12.093   4.632                        
  373DVPE   C1A 4546   2.552  12.219   4.963                        
  373DVPE   C2A 4547   2.565  12.217   5.241                        
  373DVPE   D3A 4548   2.555  12.219   5.543                        
  373DVPE   C4A 4549   2.551  12.217   5.844                        
  373DVPE   C1B 4550   2.674  11.977   4.946                        
  373DVPE   C2B 4551   2.651  11.967   5.275                        
  373DVPE   D3B 4552   2.650  11.999   5.551                        
  373DVPE   C4B 4553   2.678  11.957   5.862                        
  374DVPE   NH3 4554   2.564   0.519   4.070                        
  374DVPE   PO4 4555   2.573   0.511   4.342                        
  374DVPE   GL1 4556   2.577   0.501   4.630                        
  374DVPE   GL2 4557   2.607   0.378   4.627                        
  374DVPE   C1A 4558   2.577   0.494   4.927                        
  374DVPE   C2A 4559   2.567   0.500   5.227                        
  374DVPE   D3A 4560   2.603   0.521   5.525                        
  374DVPE   C4A 4561   2.602   0.502   5.859                        
  374DVPE   C1B 4562   2.609   0.249   4.937                        
  374DVPE   C2B 4563   2.625   0.225   5.239                        
  374DVPE   D3B 4564   2.587   0.241   5.573                        
  374DVPE   C4B 4565   2.580   0.261   5.874                        
  375DVPE   NH3 4566   2.620   3.084   4.027                        
  375DVPE   PO4 4567   2.613   3.104   4.335                        
  375DVPE   GL1 4568   2.610   3.119   4.630                        
  375DVPE   GL2 4569   2.592   2.971   4.655                        
  375DVPE   C1A 4570   2.587   3.099   4.968                        
  375DVPE   C2A 4571   2.598   3.105   5.226                        
  375DVPE   D3A 4572   2.609   3.078   5.569                        
  375DVPE   C4A 4573   2.625   3.091   5.865                        
  375DVPE   C1B 4574   2.589   2.829   4.969                        
  375DVPE   C2B 4575   2.558   2.841   5.232                        
  375DVPE   D3B 4576   2.602   2.831   5.559                        
  375DVPE   C4B 4577   2.569   2.862   5.841                        
  376DVPE   NH3 4578   3.311   6.351   4.038                        
  376DVPE   PO4 4579   3.308   6.372   4.365                        
  376DVPE   GL1 4580   3.268   6.365   4.636                        
  376DVPE   GL2 4581   3.401   6.358   4.670                        
  376DVPE   C1A 4582   3.264   6.352   4.939                        
  376DVPE   C2A 4583   3.288   6.374   5.270                        
  376DVPE   D3A 4584   3.301   6.384   5.562                        
  376DVPE   C4A 4585   3.266   6.361   5.830                        
  376DVPE   C1B 4586   3.525   6.401   4.943                        
  376DVPE   C2B 4587   3.527   6.408   5.268                        
  376DVPE   D3B 4588   3.559   6.369   5.549                        
  376DVPE   C4B 4589   3.537   6.407   5.829                        
  377DVPE   NH3 4590   3.340   7.122   4.051                        
  377DVPE   PO4 4591   3.331   7.127   4.345                        
  377DVPE   GL1 4592   3.313   7.102   4.636                        
  377DVPE   GL2 4593   3.293   6.978   4.642                        
  377DVPE   C1A 4594   3.317   7.097   4.971                        
  377DVPE   C2A 4595   3.343   7.116   5.230                        
  377DVPE   D3A 4596   3.344   7.115   5.538                        
  377DVPE   C4A 4597   3.310   7.102   5.859                        
  377DVPE   C1B 4598   3.258   6.863   4.950                        
  377DVPE   C2B 4599   3.282   6.879   5.272                        
  377DVPE   D3B 4600   3.285   6.863   5.555                        
  377DVPE   C4B 4601   3.263   6.887   5.848                        
  378DVPE   NH3 4602   3.273   8.930   4.045                        
  378DVPE   PO4 4603   3.282   8.948   4.339                        
  378DVPE   GL1 4604   3.288   8.910   4.625                        
  378DVPE   GL2 4605   3.324   9.062   4.629                        
  378DVPE   C1A 4606   3.319   8.908   4.972                        
  378DVPE   C2A 4607   3.289   8.925   5.251                        
  378DVPE   D3A 4608   3.301   8.934   5.573                        
  378DVPE   C4A 4609   3.291   8.912   5.842                        
  378DVPE   C1B 4610   3.374   9.180   4.942                        
  378DVPE   C2B 4611   3.387   9.172   5.234                        
  378DVPE   D3B 4612   3.402   9.152   5.551                        
  378DVPE   C4B 4613   3.397   9.155   5.851                        
  379DVPE   NH3 4614   3.264  10.443   4.069                        
  379DVPE   PO4 4615   3.299  10.458   4.340                        
  379DVPE   GL1 4616   3.279  10.451   4.639                        
  379DVPE   GL2 4617   3.346  10.565   4.650                        
  379DVPE   C1A 4618   3.269  10.448   4.970                        
  379DVPE   C2A 4619   3.303  10.442   5.241                        
  379DVPE   D3A 4620   3.260  10.467   5.555                        
  379DVPE   C4A 4621   3.299  10.456   5.835                        
  379DVPE   C1B 4622   3.413  10.657   4.965                        
  379DVPE   C2B 4623   3.408  10.678   5.225                        
  379DVPE   D3B 4624   3.412  10.680   5.547                        
  379DVPE   C4B 4625   3.412  10.648   5.854                        
  380DVPE   NH3 4626   3.256  12.187   4.062                        
  380DVPE   PO4 4627   3.266  12.177   4.363                        
  380DVPE   GL1 4628   3.267  12.184   4.641                        
  380DVPE   GL2 4629   3.332  12.079   4.632                        
  380DVPE   C1A 4630   3.257  12.194   4.944                        
  380DVPE   C2A 4631   3.261  12.156   5.275                        
  380DVPE   D3A 4632   3.277  12.199   5.550                        
  380DVPE   C4A 4633   3.265  12.168   5.862                        
  380DVPE   C1B 4634   3.413  11.973   4.953                        
  380DVPE   C2B 4635   3.450  11.996   5.244                        
  380DVPE   D3B 4636   3.434  11.978   5.527                        
  380DVPE   C4B 4637   3.448  12.005   5.835                        
  381DVPE   NH3 4638   3.236   0.358   4.055                        
  381DVPE   PO4 4639   3.221   0.328   4.361                        
  381DVPE   GL1 4640   3.224   0.327   4.632                        
  381DVPE   GL2 4641   3.343   0.415   4.667                        
  381DVPE   C1A 4642   3.224   0.346   4.971                        
  381DVPE   C2A 4643   3.248   0.354   5.232                        
  381DVPE   D3A 4644   3.244   0.323   5.554                        
  381DVPE   C4A 4645   3.236   0.358   5.830                        
  381DVPE   C1B 4646   3.397   0.527   4.965                        
  381DVPE   C2B 4647   3.443   0.507   5.251                        
  381DVPE   D3B 4648   3.430   0.482   5.543                        
  381DVPE   C4B 4649   3.426   0.506   5.848                        
  382DVPE   NH3 4650   3.472   1.245   4.033                        
  382DVPE   PO4 4651   3.487   1.221   4.350                        
  382DVPE   GL1 4652   3.469   1.232   4.658                        
  382DVPE   GL2 4653   3.414   1.316   4.633                        
  382DVPE   C1A 4654   3.459   1.199   4.928                        
  382DVPE   C2A 4655   3.474   1.210   5.243                        
  382DVPE   D3A 4656   3.456   1.220   5.544                        
  382DVPE   C4A 4657   3.485   1.203   5.865                        
  382DVPE   C1B 4658   3.398   1.451   4.945                        
  382DVPE   C2B 4659   3.402   1.454   5.245                        
  382DVPE   D3B 4660   3.378   1.481   5.537                        
  382DVPE   C4B 4661   3.408   1.441   5.866                        
  383DVPE   NH3 4662   3.548   1.976   4.061                        
  383DVPE   PO4 4663   3.528   1.973   4.375                        
  383DVPE   GL1 4664   3.551   1.970   4.649                        
  383DVPE   GL2 4665   3.445   2.076   4.625                        
  383DVPE   C1A 4666   3.552   1.956   4.943                        
  383DVPE   C2A 4667   3.557   1.964   5.260                        
  383DVPE   D3A 4668   3.559   1.979   5.546                        
  383DVPE   C4A 4669   3.535   1.982   5.874                        
  383DVPE   C1B 4670   3.402   2.154   4.941                        
  383DVPE   C2B 4671   3.376   2.183   5.267                        
  383DVPE   D3B 4672   3.386   2.161   5.558                        
  383DVPE   C4B 4673   3.359   2.192   5.867                        
  384DVPE   NH3 4674   3.292   2.833   4.025                        
  384DVPE   PO4 4675   3.291   2.826   4.343                        
  384DVPE   GL1 4676   3.316   2.799   4.656                        
  384DVPE   GL2 4677   3.424   2.912   4.650                        
  384DVPE   C1A 4678   3.322   2.802   4.930                        
  384DVPE   C2A 4679   3.289   2.833   5.243                        
  384DVPE   D3A 4680   3.296   2.814   5.563                        
  384DVPE   C4A 4681   3.289   2.816   5.867                        
  384DVPE   C1B 4682   3.505   2.961   4.952                        
  384DVPE   C2B 4683   3.505   3.001   5.248                        
  384DVPE   D3B 4684   3.515   2.983   5.567                        
  384DVPE   C4B 4685   3.485   2.974   5.859                        
  385DVPE   NH3 4686   3.482   3.682   4.068                        
  385DVPE   PO4 4687   3.478   3.678   4.359                        
  385DVPE   GL1 4688   3.442   3.688   4.659                        
  385DVPE   GL2 4689   3.496   3.543   4.639                        
  385DVPE   C1A 4690   3.451   3.669   4.931                        
  385DVPE   C2A 4691   3.439   3.706   5.245                        
  385DVPE   D3A 4692   3.457   3.698   5.544                        
  385DVPE   C4A 4693   3.448   3.683   5.860                        
  385DVPE   C1B 4694   3.506   3.440   4.948                        
  385DVPE   C2B 4695   3.503   3.418   5.264                        
  385DVPE   D3B 4696   3.469   3.442   5.558                        
  385DVPE   C4B 4697   3.506   3.450   5.829                        
  386DVPE   NH3 4698   4.210   1.857   4.031                        
  386DVPE   PO4 4699   4.225   1.849   4.346                        
  386DVPE   GL1 4700   4.178   1.874   4.667                        
  386DVPE   GL2 4701   4.071   1.849   4.638                        
  386DVPE   C1A 4702   4.217   1.869   4.954                        
  386DVPE   C2A 4703   4.219   1.862   5.245                        
  386DVPE   D3A 4704   4.215   1.859   5.549                        
  386DVPE   C4A 4705   4.213   1.852   5.853                        
  386DVPE   C1B 4706   3.941   1.815   4.929                        
  386DVPE   C2B 4707   3.936   1.779   5.267                        
  386DVPE   D3B 4708   3.965   1.802   5.545                        
  386DVPE   C4B 4709   3.955   1.793   5.863                        
  387DVPE   NH3 4710   4.031   2.428   4.025                        
  387DVPE   PO4 4711   4.031   2.438   4.340                        
  387DVPE   GL1 4712   4.065   2.415   4.639                        
  387DVPE   GL2 4713   4.031   2.546   4.635                        
  387DVPE   C1A 4714   4.065   2.439   4.940                        
  387DVPE   C2A 4715   4.043   2.422   5.253                        
  387DVPE   D3A 4716   4.065   2.415   5.558                        
  387DVPE   C4A 4717   4.043   2.447   5.836                        
  387DVPE   C1B 4718   4.034   2.662   4.946                        
  387DVPE   C2B 4719   4.034   2.685   5.239                        
  387DVPE   D3B 4720   4.045   2.677   5.574                        
  387DVPE   C4B 4721   4.031   2.706   5.831                        
  388DVPE   NH3 4722   3.991   3.284   4.045                        
  388DVPE   PO4 4723   3.975   3.251   4.335                        
  388DVPE   GL1 4724   3.955   3.271   4.630                        
  388DVPE   GL2 4725   4.099   3.257   4.633                        
  388DVPE   C1A 4726   3.981   3.266   4.962                        
  388DVPE   C2A 4727   3.977   3.277   5.257                        
  388DVPE   D3A 4728   3.975   3.275   5.568                        
  388DVPE   C4A 4729   3.952   3.273   5.859                        
  388DVPE   C1B 4730   4.239   3.234   4.935                        
  388DVPE   C2B 4731   4.201   3.240   5.250                        
  388DVPE   D3B 4732   4.207   3.260   5.546                        
  388DVPE   C4B 4733   4.199   3.254   5.826                        
  389DVPE   NH3 4734   4.265   5.552   4.056                        
  389DVPE   PO4 4735   4.250   5.529   4.357                        
  389DVPE   GL1 4736   4.263   5.523   4.647                        
  389DVPE   GL2 4737   4.296   5.649   4.635                        
  389DVPE   C1A 4738   4.280   5.543   4.962                        
  389DVPE   C2A 4739   4.242   5.552   5.267                        
  389DVPE   D3A 4740   4.258   5.525   5.570                        
  389DVPE   C4A 4741   4.261   5.537   5.867                        
  389DVPE   C1B 4742   4.304   5.807   4.953                        
  389DVPE   C2B 4743   4.327   5.777   5.241                        
  389DVPE   D3B 4744   4.312   5.792   5.534                        
  389DVPE   C4B 4745   4.299   5.806   5.828                        
  390DVPE   NH3 4746   4.072   6.463   4.044                        
  390DVPE   PO4 4747   4.060   6.443   4.334                        
  390DVPE   GL1 4748   4.069   6.464   4.654                        
  390DVPE   GL2 4749   4.074   6.341   4.662                        
  390DVPE   C1A 4750   4.046   6.469   4.975                        
  390DVPE   C2A 4751   4.054   6.460   5.271                        
  390DVPE   D3A 4752   4.076   6.462   5.565                        
  390DVPE   C4A 4753   4.066   6.457   5.836                        
  390DVPE   C1B 4754   4.070   6.171   4.940                        
  390DVPE   C2B 4755   4.098   6.176   5.262                        
  390DVPE   D3B 4756   4.097   6.175   5.563                        
  390DVPE   C4B 4757   4.102   6.174   5.850                        
  391DVPE   NH3 4758   4.171   7.797   4.053                        
  391DVPE   PO4 4759   4.192   7.775   4.373                        
  391DVPE   GL1 4760   4.175   7.770   4.663                        
  391DVPE   GL2 4761   4.079   7.764   4.634                        
  391DVPE   C1A 4762   4.168   7.787   4.943                        
  391DVPE   C2A 4763   4.167   7.799   5.237                        
  391DVPE   D3A 4764   4.183   7.782   5.537                        
  391DVPE   C4A 4765   4.174   7.779   5.855                        
  391DVPE   C1B 4766   3.930   7.699   4.958                        
  391DVPE   C2B 4767   3.967   7.714   5.247                        
  391DVPE   D3B 4768   3.941   7.715   5.560                        
  391DVPE   C4B 4769   3.945   7.713   5.827                        
  392DVPE   NH3 4770   3.955   9.142   4.032                        
  392DVPE   PO4 4771   3.979   9.119   4.351                        
  392DVPE   GL1 4772   3.960   9.101   4.672                        
  392DVPE   GL2 4773   4.080   9.215   4.666                        
  392DVPE   C1A 4774   3.951   9.124   4.937                        
  392DVPE   C2A 4775   3.989   9.128   5.274                        
  392DVPE   D3A 4776   3.964   9.135   5.559                        
  392DVPE   C4A 4777   3.964   9.136   5.841                        
  392DVPE   C1B 4778   4.153   9.284   4.953                        
  392DVPE   C2B 4779   4.147   9.308   5.226                        
  392DVPE   D3B 4780   4.166   9.310   5.543                        
  392DVPE   C4B 4781   4.141   9.268   5.866                        
  393DVPE   NH3 4782   3.929  10.620   4.033                        
  393DVPE   PO4 4783   3.951  10.617   4.370                        
  393DVPE   GL1 4784   3.947  10.605   4.652                        
  393DVPE   GL2 4785   4.042  10.691   4.660                        
  393DVPE   C1A 4786   3.943  10.609   4.928                        
  393DVPE   C2A 4787   3.963  10.609   5.226                        
  393DVPE   D3A 4788   3.967  10.627   5.569                        
  393DVPE   C4A 4789   3.938  10.597   5.854                        
  393DVPE   C1B 4790   4.190  10.725   4.952                        
  393DVPE   C2B 4791   4.184  10.732   5.255                        
  393DVPE   D3B 4792   4.191  10.743   5.560                        
  393DVPE   C4B 4793   4.189  10.735   5.860                        
  394DVPE   NH3 4794   4.881   1.096   4.057                        
  394DVPE   PO4 4795   4.901   1.061   4.342                        
  394DVPE   GL1 4796   4.867   1.073   4.638                        
  394DVPE   GL2 4797   4.764   1.129   4.628                        
  394DVPE   C1A 4798   4.894   1.105   4.966                        
  394DVPE   C2A 4799   4.883   1.085   5.272                        
  394DVPE   D3A 4800   4.883   1.106   5.574                        
  394DVPE   C4A 4801   4.877   1.059   5.829                        
  394DVPE   C1B 4802   4.642   1.136   4.934                        
  394DVPE   C2B 4803   4.622   1.142   5.233                        
  394DVPE   D3B 4804   4.613   1.138   5.540                        
  394DVPE   C4B 4805   4.612   1.161   5.872                        
  395DVPE   NH3 4806   4.864   4.161   4.047                        
  395DVPE   PO4 4807   4.842   4.171   4.357                        
  395DVPE   GL1 4808   4.846   4.194   4.632                        
  395DVPE   GL2 4809   4.763   4.046   4.639                        
  395DVPE   C1A 4810   4.862   4.170   4.939                        
  395DVPE   C2A 4811   4.852   4.184   5.272                        
  395DVPE   D3A 4812   4.837   4.165   5.532                        
  395DVPE   C4A 4813   4.862   4.169   5.832                        
  395DVPE   C1B 4814   4.744   3.983   4.969                        
  395DVPE   C2B 4815   4.714   3.955   5.274                        
  395DVPE   D3B 4816   4.697   3.946   5.559                        
  395DVPE   C4B 4817   4.732   3.972   5.847                        
  396DVPE   NH3 4818   4.923   4.971   4.056                        
  396DVPE   PO4 4819   4.937   4.928   4.367                        
  396DVPE   GL1 4820   4.926   4.950   4.648                        
  396DVPE   GL2 4821   4.913   4.818   4.654                        
  396DVPE   C1A 4822   4.928   4.952   4.972                        
  396DVPE   C2A 4823   4.928   4.958   5.246                        
  396DVPE   D3A 4824   4.959   4.969   5.558                        
  396DVPE   C4A 4825   4.955   4.936   5.873                        
  396DVPE   C1B 4826   4.892   4.686   4.951                        
  396DVPE   C2B 4827   4.900   4.711   5.263                        
  396DVPE   D3B 4828   4.919   4.700   5.562                        
  396DVPE   C4B 4829   4.911   4.679   5.853                        
  397DVPE   NH3 4830   4.903   6.927   4.041                        
  397DVPE   PO4 4831   4.927   6.946   4.368                        
  397DVPE   GL1 4832   4.920   6.931   4.652                        
  397DVPE   GL2 4833   4.794   6.993   4.660                        
  397DVPE   C1A 4834   4.945   6.936   4.941                        
  397DVPE   C2A 4835   4.929   6.928   5.266                        
  397DVPE   D3A 4836   4.946   6.912   5.529                        
  397DVPE   C4A 4837   4.907   6.916   5.836                        
  397DVPE   C1B 4838   4.687   7.052   4.970                        
  397DVPE   C2B 4839   4.681   7.043   5.233                        
  397DVPE   D3B 4840   4.710   7.042   5.529                        
  397DVPE   C4B 4841   4.704   7.047   5.845                        
  398DVPE   NH3 4842   4.808   9.047   4.029                        
  398DVPE   PO4 4843   4.795   9.044   4.368                        
  398DVPE   GL1 4844   4.784   9.084   4.668                        
  398DVPE   GL2 4845   4.819   9.190   4.638                        
  398DVPE   C1A 4846   4.785   9.067   4.956                        
  398DVPE   C2A 4847   4.803   9.049   5.260                        
  398DVPE   D3A 4848   4.818   9.077   5.526                        
  398DVPE   C4A 4849   4.792   9.042   5.859                        
  398DVPE   C1B 4850   4.827   9.332   4.950                        
  398DVPE   C2B 4851   4.841   9.327   5.260                        
  398DVPE   D3B 4852   4.796   9.312   5.536                        
  398DVPE   C4B 4853   4.828   9.314   5.855                        
  399DVPE   NH3 4854   4.895  10.713   4.031                        
  399DVPE   PO4 4855   4.913  10.726   4.368                        
  399DVPE   GL1 4856   4.881  10.746   4.642                        
  399DVPE   GL2 4857   4.793  10.682   4.640                        
  399DVPE   C1A 4858   4.915  10.714   4.974                        
  399DVPE   C2A 4859   4.902  10.740   5.231                        
  399DVPE   D3A 4860   4.883  10.735   5.569                        
  399DVPE   C4A 4861   4.898  10.729   5.864                        
  399DVPE   C1B 4862   4.699  10.569   4.944                        
  399DVPE   C2B 4863   4.684  10.582   5.265                        
  399DVPE   D3B 4864   4.678  10.569   5.563                        
  399DVPE   C4B 4865   4.686  10.606   5.843                        
  400DVPE   NH3 4866   4.793  12.762   4.029                        
  400DVPE   PO4 4867   4.789  12.751   4.325                        
  400DVPE   GL1 4868   4.801  12.760   4.639                        
  400DVPE   GL2 4869   4.781  12.873   4.631                        
  400DVPE   C1A 4870   4.802  12.740   4.945                        
  400DVPE   C2A 4871   4.798  12.776   5.239                        
  400DVPE   D3A 4872   4.791  12.764   5.532                        
  400DVPE   C4A 4873   4.793  12.766   5.841                        
  400DVPE   C1B 4874   4.794  13.007   4.953                        
  400DVPE   C2B 4875   4.760  12.995   5.252                        
  400DVPE   D3B 4876   4.797  13.021   5.545                        
  400DVPE   C4B 4877   4.799  13.024   5.837                        
  401DVPE   NH3 4878   5.305   1.880   4.058                        
  401DVPE   PO4 4879   5.313   1.898   4.354                        
  401DVPE   GL1 4880   5.325   1.879   4.659                        
  401DVPE   GL2 4881   5.411   1.817   4.675                        
  401DVPE   C1A 4882   5.327   1.892   4.936                        
  401DVPE   C2A 4883   5.290   1.891   5.252                        
  401DVPE   D3A 4884   5.323   1.874   5.536                        
  401DVPE   C4A 4885   5.332   1.879   5.874                        
  401DVPE   C1B 4886   5.486   1.730   4.969                        
  401DVPE   C2B 4887   5.508   1.718   5.233                        
  401DVPE   D3B 4888   5.505   1.713   5.564                        
  401DVPE   C4B 4889   5.504   1.739   5.875                        
  402DVPE   NH3 4890   5.435   2.792   4.044                        
  402DVPE   PO4 4891   5.435   2.779   4.346                        
  402DVPE   GL1 4892   5.429   2.788   4.663                        
  402DVPE   GL2 4893   5.475   2.647   4.630                        
  402DVPE   C1A 4894   5.450   2.808   4.966                        
  402DVPE   C2A 4895   5.417   2.803   5.254                        
  402DVPE   D3A 4896   5.453   2.806   5.542                        
  402DVPE   C4A 4897   5.437   2.788   5.869                        
  402DVPE   C1B 4898   5.551   2.573   4.944                        
  402DVPE   C2B 4899   5.512   2.549   5.272                        
  402DVPE   D3B 4900   5.537   2.541   5.570                        
  402DVPE   C4B 4901   5.553   2.557   5.856                        
  403DVPE   NH3 4902   5.441   3.393   4.061                        
  403DVPE   PO4 4903   5.424   3.378   4.334                        
  403DVPE   GL1 4904   5.442   3.376   4.626                        
  403DVPE   GL2 4905   5.531   3.347   4.673                        
  403DVPE   C1A 4906   5.417   3.383   4.956                        
  403DVPE   C2A 4907   5.419   3.380   5.233                        
  403DVPE   D3A 4908   5.426   3.394   5.539                        
  403DVPE   C4A 4909   5.429   3.363   5.865                        
  403DVPE   C1B 4910   5.663   3.362   4.947                        
  403DVPE   C2B 4911   5.667   3.376   5.252                        
  403DVPE   D3B 4912   5.661   3.373   5.528                        
  403DVPE   C4B 4913   5.689   3.340   5.835                        
  404DVPE   NH3 4914   5.334   4.158   4.070                        
  404DVPE   PO4 4915   5.339   4.149   4.327                        
  404DVPE   GL1 4916   5.338   4.146   4.664                        
  404DVPE   GL2 4917   5.413   4.118   4.638                        
  404DVPE   C1A 4918   5.327   4.148   4.929                        
  404DVPE   C2A 4919   5.338   4.163   5.272                        
  404DVPE   D3A 4920   5.314   4.138   5.563                        
  404DVPE   C4A 4921   5.305   4.155   5.849                        
  404DVPE   C1B 4922   5.533   4.061   4.927                        
  404DVPE   C2B 4923   5.533   4.074   5.238                        
  404DVPE   D3B 4924   5.552   4.029   5.549                        
  404DVPE   C4B 4925   5.525   4.053   5.852                        
  405DVPE   NH3 4926   5.588   7.125   4.050                        
  405DVPE   PO4 4927   5.612   7.131   4.348                        
  405DVPE   GL1 4928   5.586   7.163   4.655                        
  405DVPE   GL2 4929   5.575   7.004   4.659                        
  405DVPE   C1A 4930   5.607   7.147   4.967                        
  405DVPE   C2A 4931   5.623   7.130   5.271                        
  405DVPE   D3A 4932   5.603   7.131   5.550                        
  405DVPE   C4A 4933   5.593   7.122   5.826                        
  405DVPE   C1B 4934   5.584   6.901   4.943                        
  405DVPE   C2B 4935   5.549   6.892   5.262                        
  405DVPE   D3B 4936   5.538   6.904   5.556                        
  405DVPE   C4B 4937   5.584   6.890   5.858                        
  406DVPE   NH3 4938   5.545   8.610   4.060                        
  406DVPE   PO4 4939   5.566   8.584   4.350                        
  406DVPE   GL1 4940   5.568   8.595   4.648                        
  406DVPE   GL2 4941   5.558   8.489   4.637                        
  406DVPE   C1A 4942   5.561   8.608   4.951                        
  406DVPE   C2A 4943   5.539   8.582   5.258                        
  406DVPE   D3A 4944   5.525   8.609   5.557                        
  406DVPE   C4A 4945   5.528   8.568   5.871                        
  406DVPE   C1B 4946   5.561   8.340   4.951                        
  406DVPE   C2B 4947   5.576   8.355   5.252                        
  406DVPE   D3B 4948   5.591   8.318   5.533                        
  406DVPE   C4B 4949   5.588   8.334   5.858                        
  407DVPE   NH3 4950   5.669  10.622   4.063                        
  407DVPE   PO4 4951   5.657  10.624   4.342                        
  407DVPE   GL1 4952   5.664  10.619   4.655                        
  407DVPE   GL2 4953   5.542  10.675   4.660                        
  407DVPE   C1A 4954   5.667  10.617   4.925                        
  407DVPE   C2A 4955   5.625  10.593   5.249                        
  407DVPE   D3A 4956   5.644  10.603   5.527                        
  407DVPE   C4A 4957   5.634  10.609   5.860                        
  407DVPE   C1B 4958   5.421  10.746   4.942                        
  407DVPE   C2B 4959   5.421  10.743   5.245                        
  407DVPE   D3B 4960   5.446  10.749   5.564                        
  407DVPE   C4B 4961   5.421  10.729   5.857                        
  408DVPE   NH3 4962   5.383  12.916   4.042                        
  408DVPE   PO4 4963   5.398  12.905   4.326                        
  408DVPE   GL1 4964   5.387  12.894   4.630                        
  408DVPE   GL2 4965   5.525  12.889   4.636                        
  408DVPE   C1A 4966   5.382  12.906   4.935                        
  408DVPE   C2A 4967   5.385  12.894   5.257                        
  408DVPE   D3A 4968   5.367  12.899   5.538                        
  408DVPE   C4A 4969   5.378  12.894   5.841                        
  408DVPE   C1B 4970   5.647  12.845   4.962                        
  408DVPE   C2B 4971   5.651  12.845   5.275                        
  408DVPE   D3B 4972   5.620  12.850   5.567                        
  408DVPE   C4B 4973   5.625  12.846   5.867                        
  409DVPE   NH3 4974   6.319   7.347   4.069                        
  409DVPE   PO4 4975   6.324   7.344   4.327                        
  409DVPE   GL1 4976   6.326   7.350   4.641                        
  409DVPE   GL2 4977   6.215   7.430   4.631                        
  409DVPE   C1A 4978   6.337   7.338   4.951                        
  409DVPE   C2A 4979   6.329   7.330   5.250                        
  409DVPE   D3A 4980   6.361   7.334   5.557                        
  409DVPE   C4A 4981   6.316   7.345   5.845                        
  409DVPE   C1B 4982   6.148   7.481   4.966                        
  409DVPE   C2B 4983   6.128   7.486   5.257                        
  409DVPE   D3B 4984   6.155   7.492   5.560                        
  409DVPE   C4B 4985   6.113   7.491   5.828                        
  410DVPE   NH3 4986   6.340   8.289   4.054                        
  410DVPE   PO4 4987   6.329   8.255   4.354                        
  410DVPE   GL1 4988   6.308   8.273   4.633                        
  410DVPE   GL2 4989   6.253   8.163   4.640                        
  410DVPE   C1A 4990   6.337   8.280   4.939                        
  410DVPE   C2A 4991   6.323   8.257   5.269                        
  410DVPE   D3A 4992   6.310   8.273   5.536                        
  410DVPE   C4A 4993   6.317   8.286   5.874                        
  410DVPE   C1B 4994   6.223   8.072   4.962                        
  410DVPE   C2B 4995   6.243   8.024   5.246                        
  410DVPE   D3B 4996   6.221   8.053   5.541                        
  410DVPE   C4B 4997   6.244   8.040   5.866                        
  411DVPE   NH3 4998   6.338  10.490   4.030                        
  411DVPE   PO4 4999   6.332  10.482   4.350                        
  411DVPE   GL1 5000   6.364  10.488   4.674                        
  411DVPE   GL2 5001   6.250  10.424   4.627                        
  411DVPE   C1A 5002   6.375  10.493   4.960                        
  411DVPE   C2A 5003   6.332  10.504   5.226                        
  411DVPE   D3A 5004   6.357  10.519   5.544                        
  411DVPE   C4A 5005   6.327  10.519   5.862                        
  411DVPE   C1B 5006   6.143  10.345   4.950                        
  411DVPE   C2B 5007   6.120  10.360   5.263                        
  411DVPE   D3B 5008   6.152  10.370   5.552                        
  411DVPE   C4B 5009   6.118  10.386   5.858                        
  412DVPE   NH3 5010   6.277  11.903   4.051                        
  412DVPE   PO4 5011   6.257  11.887   4.363                        
  412DVPE   GL1 5012   6.300  11.885   4.674                        
  412DVPE   GL2 5013   6.215  11.992   4.636                        
  412DVPE   C1A 5014   6.297  11.860   4.971                        
  412DVPE   C2A 5015   6.288  11.877   5.266                        
  412DVPE   D3A 5016   6.279  11.904   5.559                        
  412DVPE   C4A 5017   6.289  11.884   5.833                        
  412DVPE   C1B 5018   6.198  12.100   4.944                        
  412DVPE   C2B 5019   6.156  12.089   5.245                        
  412DVPE   D3B 5020   6.166  12.119   5.569                        
  412DVPE   C4B 5021   6.193  12.137   5.875                        
  413DVPE   NH3 5022   5.790   2.213   4.068                        
  413DVPE   PO4 5023   5.808   2.261   4.326                        
  413DVPE   GL1 5024   5.799   2.235   4.659                        
  413DVPE   GL2 5025   5.893   2.192   4.638                        
  413DVPE   C1A 5026   5.808   2.260   4.966                        
  413DVPE   C2A 5027   5.798   2.258   5.235                        
  413DVPE   D3A 5028   5.774   2.235   5.570                        
  413DVPE   C4A 5029   5.808   2.240   5.846                        
  413DVPE   C1B 5030   6.006   2.110   4.953                        
  413DVPE   C2B 5031   6.039   2.095   5.264                        
  413DVPE   D3B 5032   6.041   2.116   5.543                        
  413DVPE   C4B 5033   6.011   2.102   5.866                        
  414DVPE   NH3 5034   6.342   3.223   4.045                        
  414DVPE   PO4 5035   6.338   3.189   4.343                        
  414DVPE   GL1 5036   6.345   3.187   4.627                        
  414DVPE   GL2 5037   6.320   3.337   4.643                        
  414DVPE   C1A 5038   6.345   3.195   4.969                        
  414DVPE   C2A 5039   6.322   3.198   5.251                        
  414DVPE   D3A 5040   6.305   3.189   5.558                        
  414DVPE   C4A 5041   6.313   3.226   5.842                        
  414DVPE   C1B 5042   6.316   3.439   4.930                        
  414DVPE   C2B 5043   6.299   3.450   5.261                        
  414DVPE   D3B 5044   6.304   3.437   5.574                        
  414DVPE   C4B 5045   6.318   3.480   5.855                        
  415DVPE   NH3 5046   6.173   3.854   4.047                        
  415DVPE   PO4 5047   6.135   3.830   4.341                        
  415DVPE   GL1 5048   6.150   3.852   4.632                        
  415DVPE   GL2 5049   6.010   3.894   4.638                        
  415DVPE   C1A 5050   6.137   3.871   4.964                        
  415DVPE   C2A 5051   6.150   3.868   5.239                        
  415DVPE   D3A 5052   6.134   3.842   5.527                        
  415DVPE   C4A 5053   6.153   3.835   5.829                        
  415DVPE   C1B 5054   5.928   3.924   4.939                        
  415DVPE   C2B 5055   5.887   3.899   5.263                        
  415DVPE   D3B 5056   5.889   3.935   5.560                        
  415DVPE   C4B 5057   5.893   3.925   5.853                        
  416DVPE   NH3 5058   7.061   6.529   4.041                        
  416DVPE   PO4 5059   7.034   6.562   4.350                        
  416DVPE   GL1 5060   7.047   6.524   4.644                        
  416DVPE   GL2 5061   6.992   6.439   4.657                        
  416DVPE   C1A 5062   7.035   6.530   4.929                        
  416DVPE   C2A 5063   7.039   6.557   5.268                        
  416DVPE   D3A 5064   7.023   6.540   5.561                        
  416DVPE   C4A 5065   7.058   6.556   5.847                        
  416DVPE   C1B 5066   6.979   6.311   4.945                        
  416DVPE   C2B 5067   6.986   6.332   5.250                        
  416DVPE   D3B 5068   6.974   6.318   5.540                        
  416DVPE   C4B 5069   6.982   6.305   5.825                        
  417DVPE   NH3 5070   7.058   8.342   4.063                        
  417DVPE   PO4 5071   7.069   8.336   4.331                        
  417DVPE   GL1 5072   7.069   8.345   4.647                        
  417DVPE   GL2 5073   6.992   8.425   4.669                        
  417DVPE   C1A 5074   7.091   8.337   4.944                        
  417DVPE   C2A 5075   7.100   8.301   5.250                        
  417DVPE   D3A 5076   7.084   8.309   5.567                        
  417DVPE   C4A 5077   7.091   8.328   5.852                        
  417DVPE   C1B 5078   6.898   8.509   4.973                        
  417DVPE   C2B 5079   6.890   8.485   5.229                        
  417DVPE   D3B 5080   6.908   8.515   5.559                        
  417DVPE   C4B 5081   6.917   8.498   5.868                        
  418DVPE   NH3 5082   7.049   9.042   4.074                        
  418DVPE   PO4 5083   7.058   9.019   4.352                        
  418DVPE   GL1 5084   7.065   9.005   4.625                        
  418DVPE   GL2 5085   6.989   9.119   4.635                        
  418DVPE   C1A 5086   7.055   9.028   4.970                        
  418DVPE   C2A 5087   7.068   9.005   5.234                        
  418DVPE   D3A 5088   7.062   9.003   5.563                        
  418DVPE   C4A 5089   7.053   9.018   5.852                        
  418DVPE   C1B 5090   6.931   9.206   4.934                        
  418DVPE   C2B 5091   6.899   9.229   5.258                        
  418DVPE   D3B 5092   6.920   9.240   5.526                        
  418DVPE   C4B 5093   6.903   9.245   5.859                        
  419DVPE   NH3 5094   6.866  11.357   4.033                        
  419DVPE   PO4 5095   6.854  11.390   4.375                        
  419DVPE   GL1 5096   6.826  11.365   4.669                        
  419DVPE   GL2 5097   6.992  11.362   4.658                        
  419DVPE   C1A 5098   6.867  11.372   4.972                        
  419DVPE   C2A 5099   6.835  11.363   5.245                        
  419DVPE   D3A 5100   6.872  11.366   5.561                        
  419DVPE   C4A 5101   6.860  11.401   5.873                        
  419DVPE   C1B 5102   7.116  11.367   4.941                        
  419DVPE   C2B 5103   7.112  11.341   5.254                        
  419DVPE   D3B 5104   7.074  11.348   5.552                        
  419DVPE   C4B 5105   7.085  11.338   5.863                        
  420DVPE   NH3 5106   6.917   3.209   4.062                        
  420DVPE   PO4 5107   6.927   3.176   4.346                        
  420DVPE   GL1 5108   6.944   3.193   4.630                        
  420DVPE   GL2 5109   6.993   3.081   4.664                        
  420DVPE   C1A 5110   6.953   3.176   4.938                        
  420DVPE   C2A 5111   6.921   3.205   5.252                        
  420DVPE   D3A 5112   6.959   3.212   5.572                        
  420DVPE   C4A 5113   6.945   3.212   5.827                        
  420DVPE   C1B 5114   7.002   2.958   4.938                        
  420DVPE   C2B 5115   7.000   2.968   5.229                        
  420DVPE   D3B 5116   7.033   2.937   5.566                        
  420DVPE   C4B 5117   7.020   2.960   5.874                        
  421DVPE   NH3 5118   7.797   7.487   4.042                        
  421DVPE   PO4 5119   7.798   7.514   4.356                        
  421DVPE   GL1 5120   7.800   7.507   4.668                        
  421DVPE   GL2 5121   7.718   7.409   4.635                        
  421DVPE   C1A 5122   7.773   7.525   4.975                        
  421DVPE   C2A 5123   7.817   7.502   5.225                        
  421DVPE   D3A 5124   7.768   7.529   5.544                        
  421DVPE   C4A 5125   7.785   7.528   5.834                        
  421DVPE   C1B 5126   7.648   7.296   4.939                        
  421DVPE   C2B 5127   7.644   7.302   5.262                        
  421DVPE   D3B 5128   7.624   7.303   5.573                        
  421DVPE   C4B 5129   7.637   7.324   5.859                        
  422DVPE   NH3 5130   7.732   8.257   4.058                        
  422DVPE   PO4 5131   7.690   8.253   4.328                        
  422DVPE   GL1 5132   7.713   8.260   4.657                        
  422DVPE   GL2 5133   7.680   8.126   4.644                        
  422DVPE   C1A 5134   7.689   8.257   4.933                        
  422DVPE   C2A 5135   7.724   8.257   5.267                        
  422DVPE   D3A 5136   7.697   8.250   5.531                        
  422DVPE   C4A 5137   7.729   8.276   5.841                        
  422DVPE   C1B 5138   7.668   8.028   4.946                        
  422DVPE   C2B 5139   7.668   8.000   5.267                        
  422DVPE   D3B 5140   7.703   8.016   5.535                        
  422DVPE   C4B 5141   7.709   8.008   5.869                        
  423DVPE   NH3 5142   7.686   9.543   4.068                        
  423DVPE   PO4 5143   7.707   9.586   4.329                        
  423DVPE   GL1 5144   7.716   9.552   4.659                        
  423DVPE   GL2 5145   7.726   9.684   4.656                        
  423DVPE   C1A 5146   7.730   9.578   4.952                        
  423DVPE   C2A 5147   7.700   9.574   5.240                        
  423DVPE   D3A 5148   7.696   9.553   5.526                        
  423DVPE   C4A 5149   7.702   9.551   5.874                        
  423DVPE   C1B 5150   7.700   9.792   4.971                        
  423DVPE   C2B 5151   7.748   9.792   5.270                        
  423DVPE   D3B 5152   7.708   9.786   5.559                        
  423DVPE   C4B 5153   7.700   9.826   5.857                        
  424DVPE   NH3 5154   7.582  11.879   4.061                        
  424DVPE   PO4 5155   7.567  11.867   4.355                        
  424DVPE   GL1 5156   7.571  11.839   4.668                        
  424DVPE   GL2 5157   7.566  11.977   4.642                        
  424DVPE   C1A 5158   7.544  11.837   4.963                        
  424DVPE   C2A 5159   7.568  11.857   5.263                        
  424DVPE   D3A 5160   7.552  11.855   5.546                        
  424DVPE   C4A 5161   7.543  11.868   5.838                        
  424DVPE   C1B 5162   7.551  12.119   4.945                        
  424DVPE   C2B 5163   7.544  12.121   5.267                        
  424DVPE   D3B 5164   7.572  12.084   5.557                        
  424DVPE   C4B 5165   7.573  12.096   5.834                        
  425DVPE   NH3 5166   7.356  12.665   4.027                        
  425DVPE   PO4 5167   7.350  12.680   4.360                        
  425DVPE   GL1 5168   7.357  12.648   4.626                        
  425DVPE   GL2 5169   7.442  12.725   4.639                        
  425DVPE   C1A 5170   7.374  12.650   4.937                        
  425DVPE   C2A 5171   7.393  12.651   5.269                        
  425DVPE   D3A 5172   7.360  12.655   5.543                        
  425DVPE   C4A 5173   7.362  12.676   5.829                        
  425DVPE   C1B 5174   7.551  12.850   4.949                        
  425DVPE   C2B 5175   7.558  12.815   5.234                        
  425DVPE   D3B 5176   7.529  12.830   5.571                        
  425DVPE   C4B 5177   7.560  12.860   5.837                        
  426DVPE   NH3 5178   7.553  13.516   4.070                        
  426DVPE   PO4 5179   7.579  13.525   4.345                        
  426DVPE   GL1 5180   7.559  13.542   4.632                        
  426DVPE   GL2 5181   7.674  13.639   4.647                        
  426DVPE   C1A 5182   7.584  13.535   4.959                        
  426DVPE   C2A 5183   7.557  13.504   5.271                        
  426DVPE   D3A 5184   7.583  13.551   5.527                        
  426DVPE   C4A 5185   7.558  13.512   5.834                        
  426DVPE   C1B 5186   7.716  13.744   4.925                        
  426DVPE   C2B 5187   7.719  13.720   5.237                        
  426DVPE   D3B 5188   7.728  13.719   5.550                        
  426DVPE   C4B 5189   7.711  13.705   5.838                        
  427DVPE   NH3 5190   7.787   3.250   4.033                        
  427DVPE   PO4 5191   7.777   3.243   4.356                        
  427DVPE   GL1 5192   7.754   3.269   4.661                        
  427DVPE   GL2 5193   7.665   3.323   4.650                        
  427DVPE   C1A 5194   7.771   3.273   4.975                        
  427DVPE   C2A 5195   7.748   3.275   5.266                        
  427DVPE   D3A 5196   7.772   3.273   5.565                        
  427DVPE   C4A 5197   7.782   3.258   5.870                        
  427DVPE   C1B 5198   7.570   3.437   4.957                        
  427DVPE   C2B 5199   7.554   3.412   5.262                        
  427DVPE   D3B 5200   7.584   3.416   5.544                        
  427DVPE   C4B 5201   7.574   3.444   5.865                        
  428DVPE   NH3 5202   8.533   2.702   4.065                        
  428DVPE   PO4 5203   8.559   2.682   4.325                        
  428DVPE   GL1 5204   8.559   2.678   4.644                        
  428DVPE   GL2 5205   8.505   2.829   4.660                        
  428DVPE   C1A 5206   8.551   2.709   4.930                        
  428DVPE   C2A 5207   8.538   2.672   5.225                        
  428DVPE   D3A 5208   8.534   2.680   5.538                        
  428DVPE   C4A 5209   8.560   2.704   5.828                        
  428DVPE   C1B 5210   8.479   2.959   4.947                        
  428DVPE   C2B 5211   8.516   2.924   5.262                        
  428DVPE   D3B 5212   8.502   2.931   5.532                        
  428DVPE   C4B 5213   8.505   2.959   5.843                        
  429DVPE   NH3 5214   8.411   3.554   4.052                        
  429DVPE   PO4 5215   8.418   3.567   4.346                        
  429DVPE   GL1 5216   8.411   3.560   4.638                        
  429DVPE   GL2 5217   8.550   3.515   4.642                        
  429DVPE   C1A 5218   8.406   3.569   4.964                        
  429DVPE   C2A 5219   8.402   3.567   5.270                        
  429DVPE   D3A 5220   8.439   3.565   5.552                        
  429DVPE   C4A 5221   8.444   3.532   5.871                        
  429DVPE   C1B 5222   8.673   3.445   4.937                        
  429DVPE   C2B 5223   8.657   3.452   5.230                        
  429DVPE   D3B 5224   8.637   3.447   5.537                        
  429DVPE   C4B 5225   8.666   3.450   5.833                        
  430DVPE   NH3 5226   8.481   5.072   4.039                        
  430DVPE   PO4 5227   8.477   5.063   4.353                        
  430DVPE   GL1 5228   8.473   5.100   4.653                        
  430DVPE   GL2 5229   8.565   5.040   4.646                        
  430DVPE   C1A 5230   8.463   5.079   4.959                        
  430DVPE   C2A 5231   8.459   5.065   5.232                        
  430DVPE   D3A 5232   8.489   5.096   5.525                        
  430DVPE   C4A 5233   8.452   5.075   5.854                        
  430DVPE   C1B 5234   8.695   4.987   4.951                        
  430DVPE   C2B 5235   8.721   5.008   5.256                        
  430DVPE   D3B 5236   8.705   4.998   5.561                        
  430DVPE   C4B 5237   8.693   4.982   5.825                        
  431DVPE   NH3 5238   8.637   5.880   4.045                        
  431DVPE   PO4 5239   8.626   5.851   4.357                        
  431DVPE   GL1 5240   8.627   5.842   4.655                        
  431DVPE   GL2 5241   8.622   5.731   4.664                        
  431DVPE   C1A 5242   8.656   5.868   4.963                        
  431DVPE   C2A 5243   8.613   5.865   5.239                        
  431DVPE   D3A 5244   8.656   5.850   5.551                        
  431DVPE   C4A 5245   8.615   5.843   5.874                        
  431DVPE   C1B 5246   8.603   5.627   4.943                        
  431DVPE   C2B 5247   8.586   5.622   5.236                        
  431DVPE   D3B 5248   8.593   5.607   5.557                        
  431DVPE   C4B 5249   8.597   5.626   5.862                        
  432DVPE   NH3 5250   8.596   7.475   4.053                        
  432DVPE   PO4 5251   8.601   7.435   4.327                        
  432DVPE   GL1 5252   8.561   7.476   4.657                        
  432DVPE   GL2 5253   8.454   7.448   4.640                        
  432DVPE   C1A 5254   8.595   7.473   4.933                        
  432DVPE   C2A 5255   8.573   7.448   5.245                        
  432DVPE   D3A 5256   8.591   7.478   5.550                        
  432DVPE   C4A 5257   8.585   7.442   5.846                        
  432DVPE   C1B 5258   8.334   7.468   4.929                        
  432DVPE   C2B 5259   8.338   7.436   5.227                        
  432DVPE   D3B 5260   8.338   7.437   5.558                        
  432DVPE   C4B 5261   8.310   7.467   5.837                        
  433DVPE   NH3 5262   8.538   8.890   4.068                        
  433DVPE   PO4 5263   8.559   8.898   4.342                        
  433DVPE   GL1 5264   8.571   8.882   4.630                        
  433DVPE   GL2 5265   8.447   8.990   4.663                        
  433DVPE   C1A 5266   8.547   8.887   4.926                        
  433DVPE   C2A 5267   8.557   8.882   5.261                        
  433DVPE   D3A 5268   8.570   8.882   5.559                        
  433DVPE   C4A 5269   8.571   8.902   5.841                        
  433DVPE   C1B 5270   8.349   9.043   4.926                        
  433DVPE   C2B 5271   8.338   9.036   5.263                        
  433DVPE   D3B 5272   8.351   9.051   5.528                        
  433DVPE   C4B 5273   8.342   9.062   5.826                        
  434DVPE   NH3 5274   8.471  10.578   4.053                        
  434DVPE   PO4 5275   8.469  10.541   4.330                        
  434DVPE   GL1 5276   8.454  10.562   4.669                        
  434DVPE   GL2 5277   8.453  10.409   4.668                        
  434DVPE   C1A 5278   8.497  10.554   4.940                        
  434DVPE   C2A 5279   8.483  10.576   5.256                        
  434DVPE   D3A 5280   8.483  10.564   5.541                        
  434DVPE   C4A 5281   8.483  10.562   5.844                        
  434DVPE   C1B 5282   8.484  10.305   4.969                        
  434DVPE   C2B 5283   8.476  10.326   5.247                        
  434DVPE   D3B 5284   8.458  10.304   5.574                        
  434DVPE   C4B 5285   8.476  10.302   5.844                        
  435DVPE   NH3 5286   8.871   0.351   4.026                        
  435DVPE   PO4 5287   8.872   0.348   4.354                        
  435DVPE   GL1 5288   8.913   0.368   4.668                        
  435DVPE   GL2 5289   9.045   0.370   4.650                        
  435DVPE   C1A 5290   8.917   0.368   4.958                        
  435DVPE   C2A 5291   8.908   0.347   5.263                        
  435DVPE   D3A 5292   8.911   0.343   5.539                        
  435DVPE   C4A 5293   8.915   0.346   5.868                        
  435DVPE   C1B 5294   9.120   0.362   4.968                        
  435DVPE   C2B 5295   9.128   0.398   5.232                        
  435DVPE   D3B 5296   9.144   0.384   5.561                        
  435DVPE   C4B 5297   9.137   0.387   5.833                        
  436DVPE   NH3 5298   9.198   2.196   4.039                        
  436DVPE   PO4 5299   9.209   2.162   4.336                        
  436DVPE   GL1 5300   9.219   2.179   4.662                        
  436DVPE   GL2 5301   9.141   2.112   4.645                        
  436DVPE   C1A 5302   9.219   2.192   4.948                        
  436DVPE   C2A 5303   9.201   2.169   5.236                        
  436DVPE   D3A 5304   9.228   2.186   5.568                        
  436DVPE   C4A 5305   9.195   2.179   5.861                        
  436DVPE   C1B 5306   9.045   1.989   4.941                        
  436DVPE   C2B 5307   9.033   2.023   5.228                        
  436DVPE   D3B 5308   9.049   2.010   5.557                        
  436DVPE   C4B 5309   9.059   2.019   5.868                        
  437DVPE   NH3 5310   9.139   2.677   4.073                        
  437DVPE   PO4 5311   9.165   2.683   4.350                        
  437DVPE   GL1 5312   9.135   2.701   4.661                        
  437DVPE   GL2 5313   9.213   2.789   4.626                        
  437DVPE   C1A 5314   9.141   2.663   4.964                        
  437DVPE   C2A 5315   9.137   2.659   5.271                        
  437DVPE   D3A 5316   9.153   2.662   5.565                        
  437DVPE   C4A 5317   9.136   2.670   5.857                        
  437DVPE   C1B 5318   9.315   2.897   4.940                        
  437DVPE   C2B 5319   9.298   2.893   5.232                        
  437DVPE   D3B 5320   9.289   2.897   5.535                        
  437DVPE   C4B 5321   9.320   2.886   5.849                        
  438DVPE   NH3 5322   9.194   3.593   4.026                        
  438DVPE   PO4 5323   9.194   3.602   4.356                        
  438DVPE   GL1 5324   9.184   3.614   4.647                        
  438DVPE   GL2 5325   9.230   3.515   4.644                        
  438DVPE   C1A 5326   9.182   3.597   4.926                        
  438DVPE   C2A 5327   9.157   3.603   5.230                        
  438DVPE   D3A 5328   9.200   3.626   5.546                        
  438DVPE   C4A 5329   9.164   3.598   5.843                        
  438DVPE   C1B 5330   9.283   3.391   4.958                        
  438DVPE   C2B 5331   9.298   3.403   5.252                        
  438DVPE   D3B 5332   9.296   3.377   5.528                        
  438DVPE   C4B 5333   9.321   3.400   5.872                        
  439DVPE   NH3 5334   9.220   5.080   4.069                        
  439DVPE   PO4 5335   9.213   5.096   4.350                        
  439DVPE   GL1 5336   9.250   5.103   4.658                        
  439DVPE   GL2 5337   9.268   4.973   4.636                        
  439DVPE   C1A 5338   9.234   5.126   4.950                        
  439DVPE   C2A 5339   9.222   5.114   5.257                        
  439DVPE   D3A 5340   9.212   5.126   5.559                        
  439DVPE   C4A 5341   9.259   5.092   5.837                        
  439DVPE   C1B 5342   9.349   4.864   4.935                        
  439DVPE   C2B 5343   9.342   4.890   5.271                        
  439DVPE   D3B 5344   9.353   4.855   5.541                        
  439DVPE   C4B 5345   9.326   4.858   5.858                        
  440DVPE   NH3 5346   9.394   5.780   4.062                        
  440DVPE   PO4 5347   9.404   5.801   4.356                        
  440DVPE   GL1 5348   9.412   5.791   4.631                        
  440DVPE   GL2 5349   9.294   5.785   4.639                        
  440DVPE   C1A 5350   9.439   5.810   4.948                        
  440DVPE   C2A 5351   9.404   5.801   5.253                        
  440DVPE   D3A 5352   9.396   5.783   5.560                        
  440DVPE   C4A 5353   9.404   5.811   5.850                        
  440DVPE   C1B 5354   9.172   5.763   4.928                        
  440DVPE   C2B 5355   9.173   5.758   5.260                        
  440DVPE   D3B 5356   9.148   5.780   5.534                        
  440DVPE   C4B 5357   9.152   5.790   5.869                        
  441DVPE   NH3 5358   9.151   6.423   4.034                        
  441DVPE   PO4 5359   9.160   6.411   4.343                        
  441DVPE   GL1 5360   9.196   6.394   4.635                        
  441DVPE   GL2 5361   9.222   6.535   4.643                        
  441DVPE   C1A 5362   9.156   6.415   4.962                        
  441DVPE   C2A 5363   9.168   6.432   5.264                        
  441DVPE   D3A 5364   9.153   6.411   5.547                        
  441DVPE   C4A 5365   9.168   6.434   5.832                        
  441DVPE   C1B 5366   9.317   6.652   4.933                        
  441DVPE   C2B 5367   9.287   6.636   5.238                        
  441DVPE   D3B 5368   9.318   6.640   5.560                        
  441DVPE   C4B 5369   9.314   6.653   5.868                        
  442DVPE   NH3 5370   9.083   7.423   4.041                        
  442DVPE   PO4 5371   9.107   7.391   4.370                        
  442DVPE   GL1 5372   9.074   7.429   4.669                        
  442DVPE   GL2 5373   9.185   7.373   4.658                        
  442DVPE   C1A 5374   9.072   7.387   4.962                        
  442DVPE   C2A 5375   9.100   7.420   5.229                        
  442DVPE   D3A 5376   9.063   7.394   5.541                        
  442DVPE   C4A 5377   9.068   7.414   5.830                        
  442DVPE   C1B 5378   9.297   7.280   4.938                        
  442DVPE   C2B 5379   9.306   7.279   5.227                        
  442DVPE   D3B 5380   9.321   7.310   5.566                        
  442DVPE   C4B 5381   9.319   7.310   5.829                        
  443DVPE   NH3 5382   9.399  11.348   4.062                        
  443DVPE   PO4 5383   9.417  11.314   4.368                        
  443DVPE   GL1 5384   9.394  11.328   4.633                        
  443DVPE   GL2 5385   9.491  11.437   4.673                        
  443DVPE   C1A 5386   9.406  11.347   4.971                        
  443DVPE   C2A 5387   9.379  11.310   5.238                        
  443DVPE   D3A 5388   9.425  11.341   5.538                        
  443DVPE   C4A 5389   9.424  11.324   5.831                        
  443DVPE   C1B 5390   9.553  11.529   4.975                        
  443DVPE   C2B 5391   9.558  11.549   5.268                        
  443DVPE   D3B 5392   9.545  11.544   5.525                        
  443DVPE   C4B 5393   9.519  11.522   5.831                        
  444DVPE   NH3 5394  10.271  13.700   4.053                        
  444DVPE   PO4 5395  10.230  13.731   4.341                        
  444DVPE   GL1 5396  10.272  13.694   4.675                        
  444DVPE   GL2 5397  10.163  13.604   4.654                        
  444DVPE   C1A 5398  10.252  13.709   4.956                        
  444DVPE   C2A 5399  10.265  13.706   5.259                        
  444DVPE   D3A 5400  10.276  13.702   5.568                        
  444DVPE   C4A 5401  10.248  13.706   5.839                        
  444DVPE   C1B 5402  10.063  13.524   4.964                        
  444DVPE   C2B 5403  10.104  13.527   5.254                        
  444DVPE   D3B 5404  10.071  13.553   5.543                        
  444DVPE   C4B 5405  10.072  13.537   5.829                        
  445DVPE   NH3 5406   9.611   1.490   4.054                        
  445DVPE   PO4 5407   9.609   1.531   4.343                        
  445DVPE   GL1 5408   9.610   1.494   4.667                        
  445DVPE   GL2 5409   9.592   1.631   4.630                        
  445DVPE   C1A 5410   9.654   1.515   4.973                        
  445DVPE   C2A 5411   9.655   1.531   5.266                        
  445DVPE   D3A 5412   9.640   1.493   5.557                        
  445DVPE   C4A 5413   9.636   1.533   5.873                        
  445DVPE   C1B 5414   9.500   1.724   4.931                        
  445DVPE   C2B 5415   9.511   1.744   5.243                        
  445DVPE   D3B 5416   9.518   1.736   5.539                        
  445DVPE   C4B 5417   9.489   1.709   5.861                        
  446DVPE   NH3 5418   9.842   2.215   4.054                        
  446DVPE   PO4 5419   9.865   2.188   4.329                        
  446DVPE   GL1 5420   9.849   2.175   4.674                        
  446DVPE   GL2 5421   9.788   2.315   4.634                        
  446DVPE   C1A 5422   9.825   2.176   4.928                        
  446DVPE   C2A 5423   9.865   2.184   5.244                        
  446DVPE   D3A 5424   9.848   2.177   5.537                        
  446DVPE   C4A 5425   9.824   2.195   5.842                        
  446DVPE   C1B 5426   9.724   2.392   4.973                        
  446DVPE   C2B 5427   9.713   2.388   5.234                        
  446DVPE   D3B 5428   9.707   2.419   5.569                        
  446DVPE   C4B 5429   9.718   2.399   5.872                        
  447DVPE   NH3 5430   9.888   2.893   4.067                        
  447DVPE   PO4 5431   9.854   2.901   4.359                        
  447DVPE   GL1 5432   9.871   2.918   4.637                        
  447DVPE   GL2 5433   9.915   3.047   4.645                        
  447DVPE   C1A 5434   9.880   2.920   4.928                        
  447DVPE   C2A 5435   9.844   2.895   5.274                        
  447DVPE   D3A 5436   9.852   2.940   5.558                        
  447DVPE   C4A 5437   9.849   2.926   5.826                        
  447DVPE   C1B 5438   9.963   3.122   4.933                        
  447DVPE   C2B 5439   9.986   3.127   5.253                        
  447DVPE   D3B 5440   9.957   3.133   5.531                        
  447DVPE   C4B 5441   9.992   3.143   5.864                        
  448DVPE   NH3 5442   9.882   5.142   4.048                        
  448DVPE   PO4 5443   9.882   5.119   4.364                        
  448DVPE   GL1 5444   9.878   5.126   4.664                        
  448DVPE   GL2 5445   9.987   5.197   4.629                        
  448DVPE   C1A 5446   9.859   5.121   4.957                        
  448DVPE   C2A 5447   9.860   5.102   5.231                        
  448DVPE   D3A 5448   9.883   5.121   5.558                        
  448DVPE   C4A 5449   9.873   5.104   5.855                        
  448DVPE   C1B 5450  10.065   5.281   4.970                        
  448DVPE   C2B 5451  10.080   5.264   5.264                        
  448DVPE   D3B 5452  10.085   5.265   5.568                        
  448DVPE   C4B 5453  10.040   5.264   5.830                        
  449DVPE   NH3 5454   9.838   5.969   4.035                        
  449DVPE   PO4 5455   9.837   5.980   4.345                        
  449DVPE   GL1 5456   9.825   5.964   4.631                        
  449DVPE   GL2 5457   9.936   5.927   4.643                        
  449DVPE   C1A 5458   9.821   5.985   4.932                        
  449DVPE   C2A 5459   9.840   5.982   5.273                        
  449DVPE   D3A 5460   9.864   5.954   5.568                        
  449DVPE   C4A 5461   9.834   5.965   5.851                        
  449DVPE   C1B 5462  10.090   5.893   4.939                        
  449DVPE   C2B 5463  10.062   5.916   5.258                        
  449DVPE   D3B 5464  10.084   5.901   5.530                        
  449DVPE   C4B 5465  10.064   5.885   5.851                        
  450DVPE   NH3 5466   9.840   6.708   4.057                        
  450DVPE   PO4 5467   9.846   6.718   4.351                        
  450DVPE   GL1 5468   9.859   6.735   4.668                        
  450DVPE   GL2 5469   9.941   6.678   4.647                        
  450DVPE   C1A 5470   9.873   6.720   4.968                        
  450DVPE   C2A 5471   9.872   6.745   5.274                        
  450DVPE   D3A 5472   9.845   6.705   5.558                        
  450DVPE   C4A 5473   9.854   6.742   5.862                        
  450DVPE   C1B 5474  10.047   6.592   4.971                        
  450DVPE   C2B 5475  10.061   6.578   5.240                        
  450DVPE   D3B 5476  10.040   6.571   5.557                        
  450DVPE   C4B 5477  10.067   6.598   5.857                        
  451DVPE   NH3 5478   9.963   8.744   4.027                        
  451DVPE   PO4 5479   9.977   8.739   4.330                        
  451DVPE   GL1 5480   9.997   8.760   4.646                        
  451DVPE   GL2 5481   9.888   8.848   4.646                        
  451DVPE   C1A 5482  10.000   8.750   4.925                        
  451DVPE   C2A 5483   9.990   8.751   5.268                        
  451DVPE   D3A 5484   9.975   8.748   5.533                        
  451DVPE   C4A 5485  10.009   8.733   5.850                        
  451DVPE   C1B 5486   9.815   8.908   4.926                        
  451DVPE   C2B 5487   9.783   8.887   5.261                        
  451DVPE   D3B 5488   9.823   8.918   5.541                        
  451DVPE   C4B 5489   9.823   8.901   5.844                        
  452DVPE   NH3 5490  10.000   9.574   4.038                        
  452DVPE   PO4 5491  10.032   9.590   4.373                        
  452DVPE   GL1 5492   9.987   9.556   4.663                        
  452DVPE   GL2 5493   9.912   9.557   4.649                        
  452DVPE   C1A 5494  10.034   9.553   4.938                        
  452DVPE   C2A 5495  10.029   9.592   5.228                        
  452DVPE   D3A 5496   9.988   9.555   5.553                        
  452DVPE   C4A 5497  10.027   9.596   5.872                        
  452DVPE   C1B 5498   9.771   9.505   4.939                        
  452DVPE   C2B 5499   9.755   9.528   5.267                        
  452DVPE   D3B 5500   9.761   9.513   5.541                        
  452DVPE   C4B 5501   9.772   9.511   5.857                        
  453DVPE   NH3 5502   9.994  10.154   4.047                        
  453DVPE   PO4 5503   9.987  10.160   4.364                        
  453DVPE   GL1 5504   9.978  10.138   4.633                        
  453DVPE   GL2 5505   9.963  10.266   4.647                        
  453DVPE   C1A 5506   9.983  10.169   4.953                        
  453DVPE   C2A 5507   9.997  10.161   5.255                        
  453DVPE   D3A 5508   9.975  10.133   5.535                        
  453DVPE   C4A 5509   9.969  10.156   5.832                        
  453DVPE   C1B 5510   9.891  10.377   4.951                        
  453DVPE   C2B 5511   9.922  10.413   5.246                        
  453DVPE   D3B 5512   9.910  10.400   5.543                        
  453DVPE   C4B 5513   9.920  10.393   5.832                        
  454DVPE   NH3 5514   9.913  11.117   4.034                        
  454DVPE   PO4 5515   9.938  11.122   4.357                        
  454DVPE   GL1 5516   9.926  11.116   4.671                        
  454DVPE   GL2 5517   9.945  10.961   4.671                        
  454DVPE   C1A 5518   9.924  11.096   4.952                        
  454DVPE   C2A 5519   9.934  11.078   5.251                        
  454DVPE   D3A 5520   9.927  11.114   5.572                        
  454DVPE   C4A 5521   9.937  11.075   5.858                        
  454DVPE   C1B 5522   9.975  10.847   4.946                        
  454DVPE   C2B 5523  10.013  10.867   5.272                        
  454DVPE   D3B 5524  10.005  10.835   5.535                        
  454DVPE   C4B 5525   9.974  10.833   5.844                        
  455DVPE   NH3 5526  10.210  11.767   4.028                        
  455DVPE   PO4 5527  10.217  11.767   4.326                        
  455DVPE   GL1 5528  10.234  11.732   4.656                        
  455DVPE   GL2 5529  10.090  11.682   4.670                        
  455DVPE   C1A 5530  10.204  11.747   4.941                        
  455DVPE   C2A 5531  10.199  11.753   5.254                        
  455DVPE   D3A 5532  10.246  11.775   5.558                        
  455DVPE   C4A 5533  10.244  11.769   5.844                        
  455DVPE   C1B 5534   9.987  11.652   4.941                        
  455DVPE   C2B 5535  10.015  11.631   5.229                        
  455DVPE   D3B 5536   9.980  11.661   5.552                        
  455DVPE   C4B 5537   9.984  11.652   5.856                        
  456DVPE   NH3 5538  10.644   3.499   4.068                        
  456DVPE   PO4 5539  10.668   3.546   4.350                        
  456DVPE   GL1 5540  10.631   3.527   4.637                        
  456DVPE   GL2 5541  10.667   3.642   4.640                        
  456DVPE   C1A 5542  10.676   3.508   4.932                        
  456DVPE   C2A 5543  10.671   3.538   5.265                        
  456DVPE   D3A 5544  10.628   3.511   5.559                        
  456DVPE   C4A 5545  10.650   3.527   5.847                        
  456DVPE   C1B 5546  10.656   3.770   4.965                        
  456DVPE   C2B 5547  10.659   3.780   5.252                        
  456DVPE   D3B 5548  10.653   3.796   5.531                        
  456DVPE   C4B 5549  10.652   3.748   5.855                        
  457DVPE   NH3 5550  10.780   7.418   4.069                        
  457DVPE   PO4 5551  10.796   7.378   4.357                        
  457DVPE   GL1 5552  10.777   7.402   4.630                        
  457DVPE   GL2 5553  10.656   7.470   4.637                        
  457DVPE   C1A 5554  10.803   7.416   4.938                        
  457DVPE   C2A 5555  10.792   7.386   5.267                        
  457DVPE   D3A 5556  10.790   7.386   5.539                        
  457DVPE   C4A 5557  10.763   7.396   5.866                        
  457DVPE   C1B 5558  10.548   7.528   4.957                        
  457DVPE   C2B 5559  10.575   7.498   5.230                        
  457DVPE   D3B 5560  10.554   7.511   5.560                        
  457DVPE   C4B 5561  10.555   7.500   5.873                        
  458DVPE   NH3 5562  10.459   8.331   4.048                        
  458DVPE   PO4 5563  10.434   8.325   4.349                        
  458DVPE   GL1 5564  10.467   8.334   4.669                        
  458DVPE   GL2 5565  10.511   8.223   4.655                        
  458DVPE   C1A 5566  10.439   8.316   4.941                        
  458DVPE   C2A 5567  10.432   8.316   5.249                        
  458DVPE   D3A 5568  10.475   8.337   5.537                        
  458DVPE   C4A 5569  10.447   8.304   5.837                        
  458DVPE   C1B 5570  10.589   8.108   4.934                        
  458DVPE   C2B 5571  10.630   8.126   5.261                        
  458DVPE   D3B 5572  10.599   8.130   5.534                        
  458DVPE   C4B 5573  10.589   8.108   5.831                        
  459DVPE   NH3 5574  10.607   8.850   4.050                        
  459DVPE   PO4 5575  10.587   8.867   4.362                        
  459DVPE   GL1 5576  10.595   8.885   4.629                        
  459DVPE   GL2 5577  10.549   9.019   4.670                        
  459DVPE   C1A 5578  10.603   8.897   4.934                        
  459DVPE   C2A 5579  10.571   8.869   5.273                        
  459DVPE   D3A 5580  10.582   8.848   5.554                        
  459DVPE   C4A 5581  10.598   8.874   5.854                        
  459DVPE   C1B 5582  10.537   9.097   4.929                        
  459DVPE   C2B 5583  10.508   9.127   5.266                        
  459DVPE   D3B 5584  10.541   9.132   5.549                        
  459DVPE   C4B 5585  10.522   9.122   5.864                        
  460DVPE   NH3 5586  10.489   9.678   4.058                        
  460DVPE   PO4 5587  10.450   9.699   4.348                        
  460DVPE   GL1 5588  10.465   9.682   4.664                        
  460DVPE   GL2 5589  10.557   9.788   4.638                        
  460DVPE   C1A 5590  10.482   9.690   4.949                        
  460DVPE   C2A 5591  10.451   9.676   5.265                        
  460DVPE   D3A 5592  10.489   9.657   5.546                        
  460DVPE   C4A 5593  10.497   9.658   5.826                        
  460DVPE   C1B 5594  10.593   9.864   4.929                        
  460DVPE   C2B 5595  10.613   9.863   5.252                        
  460DVPE   D3B 5596  10.598   9.899   5.558                        
  460DVPE   C4B 5597  10.600   9.865   5.827                        
  461DVPE   NH3 5598  10.707  12.842   4.041                        
  461DVPE   PO4 5599  10.672  12.802   4.343                        
  461DVPE   GL1 5600  10.671  12.848   4.655                        
  461DVPE   GL2 5601  10.744  12.936   4.659                        
  461DVPE   C1A 5602  10.697  12.802   4.930                        
  461DVPE   C2A 5603  10.683  12.825   5.241                        
  461DVPE   D3A 5604  10.689  12.819   5.565                        
  461DVPE   C4A 5605  10.702  12.848   5.869                        
  461DVPE   C1B 5606  10.731  13.072   4.955                        
  461DVPE   C2B 5607  10.731  13.062   5.259                        
  461DVPE   D3B 5608  10.759  13.057   5.552                        
  461DVPE   C4B 5609  10.771  13.070   5.865                        
  462DVPE   NH3 5610  10.753  13.512   4.037                        
  462DVPE   PO4 5611  10.740  13.530   4.327                        
  462DVPE   GL1 5612  10.779  13.510   4.656                        
  462DVPE   GL2 5613  10.829  13.623   4.649                        
  462DVPE   C1A 5614  10.779  13.517   4.933                        
  462DVPE   C2A 5615  10.743  13.529   5.228                        
  462DVPE   D3A 5616  10.761  13.520   5.567                        
  462DVPE   C4A 5617  10.776  13.507   5.834                        
  462DVPE   C1B 5618  10.893  13.716   4.952                        
  462DVPE   C2B 5619  10.913  13.733   5.257                        
  462DVPE   D3B 5620  10.914  13.711   5.547                        
  462DVPE   C4B 5621  10.886  13.741   5.829                        
  463DVPE   NH3 5622  11.682   2.551   4.045                        
  463DVPE   PO4 5623  11.706   2.553   4.340                        
  463DVPE   GL1 5624  11.703   2.576   4.633                        
  463DVPE   GL2 5625  11.744   2.465   4.671                        
  463DVPE   C1A 5626  11.702   2.585   4.951                        
  463DVPE   C2A 5627  11.691   2.573   5.271                        
  463DVPE   D3A 5628  11.707   2.542   5.541                        
  463DVPE   C4A 5629  11.694   2.580   5.862                        
  463DVPE   C1B 5630  11.780   2.331   4.950                        
  463DVPE   C2B 5631  11.793   2.302   5.242                        
  463DVPE   D3B 5632  11.766   2.328   5.553                        
  463DVPE   C4B 5633  11.801   2.307   5.840                        
  464DVPE   NH3 5634  11.400   6.780   4.041                        
  464DVPE   PO4 5635  11.395   6.768   4.349                        
  464DVPE   GL1 5636  11.411   6.758   4.670                        
  464DVPE   GL2 5637  11.416   6.632   4.661                        
  464DVPE   C1A 5638  11.410   6.773   4.970                        
  464DVPE   C2A 5639  11.397   6.762   5.267                        
  464DVPE   D3A 5640  11.397   6.779   5.543                        
  464DVPE   C4A 5641  11.397   6.759   5.847                        
  464DVPE   C1B 5642  11.398   6.530   4.947                        
  464DVPE   C2B 5643  11.415   6.521   5.230                        
  464DVPE   D3B 5644  11.402   6.524   5.531                        
  464DVPE   C4B 5645  11.418   6.519   5.833                        
  465DVPE   NH3 5646  11.356  12.081   4.042                        
  465DVPE   PO4 5647  11.351  12.119   4.344                        
  465DVPE   GL1 5648  11.352  12.115   4.626                        
  465DVPE   GL2 5649  11.477  12.110   4.655                        
  465DVPE   C1A 5650  11.331  12.108   4.953                        
  465DVPE   C2A 5651  11.308  12.087   5.252                        
  465DVPE   D3A 5652  11.353  12.102   5.567                        
  465DVPE   C4A 5653  11.316  12.113   5.843                        
  465DVPE   C1B 5654  11.583  12.086   4.942                        
  465DVPE   C2B 5655  11.587  12.096   5.257                        
  465DVPE   D3B 5656  11.561  12.088   5.527                        
  465DVPE   C4B 5657  11.587  12.098   5.850                        
  466DVPE   NH3 5658  11.360  13.567   4.031                        
  466DVPE   PO4 5659  11.387  13.599   4.331                        
  466DVPE   GL1 5660  11.372  13.617   4.656                        
  466DVPE   GL2 5661  11.515  13.591   4.654                        
  466DVPE   C1A 5662  11.366  13.589   4.943                        
  466DVPE   C2A 5663  11.372  13.570   5.252                        
  466DVPE   D3A 5664  11.386  13.607   5.536                        
  466DVPE   C4A 5665  11.378  13.582   5.870                        
  466DVPE   C1B 5666  11.604  13.594   4.967                        
  466DVPE   C2B 5667  11.626  13.569   5.233                        
  466DVPE   D3B 5668  11.649  13.572   5.529                        
  466DVPE   C4B 5669  11.650  13.574   5.834                        
  467DVPE   NH3 5670  12.109  10.643   4.051                        
  467DVPE   PO4 5671  12.103  10.677   4.345                        
  467DVPE   GL1 5672  12.107  10.649   4.658                        
  467DVPE   GL2 5673  12.136  10.571   4.628                        
  467DVPE   C1A 5674  12.097  10.682   4.962                        
  467DVPE   C2A 5675  12.093  10.687   5.254                        
  467DVPE   D3A 5676  12.087  10.652   5.535                        
  467DVPE   C4A 5677  12.106  10.643   5.868                        
  467DVPE   C1B 5678  12.196  10.434   4.932                        
  467DVPE   C2B 5679  12.188  10.412   5.243                        
  467DVPE   D3B 5680  12.203  10.418   5.538                        
  467DVPE   C4B 5681  12.191  10.441   5.826                        
  468DVPE   NH3 5682  12.053  12.099   4.028                        
  468DVPE   PO4 5683  12.057  12.102   4.330                        
  468DVPE   GL1 5684  12.056  12.100   4.645                        
  468DVPE   GL2 5685  12.138  12.020   4.658                        
  468DVPE   C1A 5686  12.049  12.106   4.970                        
  468DVPE   C2A 5687  12.065  12.090   5.247                        
  468DVPE   D3A 5688  12.054  12.104   5.559                        
  468DVPE   C4A 5689  12.085  12.071   5.828                        
  468DVPE   C1B 5690  12.270  11.927   4.973                        
  468DVPE   C2B 5691  12.248  11.920   5.255                        
  468DVPE   D3B 5692  12.274  11.943   5.531                        
  468DVPE   C4B 5693  12.235  11.948   5.870                        
  469DVPE   NH3 5694  12.207  12.945   4.064                        
  469DVPE   PO4 5695  12.246  12.954   4.337                        
  469DVPE   GL1 5696  12.243  12.944   4.632                        
  469DVPE   GL2 5697  12.160  12.840   4.632                        
  469DVPE   C1A 5698  12.207  12.910   4.949                        
  469DVPE   C2A 5699  12.235  12.907   5.256                        
  469DVPE   D3A 5700  12.212  12.907   5.562                        
  469DVPE   C4A 5701  12.235  12.917   5.862                        
  469DVPE   C1B 5702  12.107  12.710   4.941                        
  469DVPE   C2B 5703  12.095  12.691   5.225                        
  469DVPE   D3B 5704  12.087  12.713   5.557                        
  469DVPE   C4B 5705  12.126  12.700   5.856                        
  470DVPE   NH3 5706  12.234   0.488   4.073                        
  470DVPE   PO4 5707  12.262   0.505   4.346                        
  470DVPE   GL1 5708  12.253   0.524   4.630                        
  470DVPE   GL2 5709  12.258   0.354   4.635                        
  470DVPE   C1A 5710  12.269   0.484   4.943                        
  470DVPE   C2A 5711  12.272   0.513   5.243                        
  470DVPE   D3A 5712  12.276   0.479   5.567                        
  470DVPE   C4A 5713  12.266   0.490   5.873                        
  470DVPE   C1B 5714  12.240   0.227   4.961                        
  470DVPE   C2B 5715  12.266   0.244   5.243                        
  470DVPE   D3B 5716  12.248   0.259   5.532                        
  470DVPE   C4B 5717  12.249   0.235   5.843                        
  471DVPE   NH3 5718  12.126   5.339   4.049                        
  471DVPE   PO4 5719  12.144   5.339   4.371                        
  471DVPE   GL1 5720  12.130   5.330   4.649                        
  471DVPE   GL2 5721  12.149   5.216   4.671                        
  471DVPE   C1A 5722  12.152   5.361   4.966                        
  471DVPE   C2A 5723  12.141   5.343   5.231                        
  471DVPE   D3A 5724  12.143   5.355   5.526                        
  471DVPE   C4A 5725  12.129   5.354   5.845                        
  471DVPE   C1B 5726  12.157   5.113   4.946                        
  471DVPE   C2B 5727  12.151   5.087   5.258                        
  471DVPE   D3B 5728  12.163   5.091   5.531                        
  471DVPE   C4B 5729  12.137   5.115   5.865                        
  472DVPE   NH3 5730  11.949   6.010   4.068                        
  472DVPE   PO4 5731  11.957   6.021   4.349                        
  472DVPE   GL1 5732  11.963   6.005   4.639                        
  472DVPE   GL2 5733  11.896   6.106   4.653                        
  472DVPE   C1A 5734  11.970   6.020   4.957                        
  472DVPE   C2A 5735  11.955   5.997   5.252                        
  472DVPE   D3A 5736  11.971   6.022   5.571                        
  472DVPE   C4A 5737  11.966   6.020   5.846                        
  472DVPE   C1B 5738  11.798   6.164   4.933                        
  472DVPE   C2B 5739  11.805   6.167   5.257                        
  472DVPE   D3B 5740  11.764   6.168   5.560                        
  472DVPE   C4B 5741  11.805   6.170   5.848                        
  473DVPE   NH3 5742  12.042   6.724   4.028                        
  473DVPE   PO4 5743  12.063   6.711   4.335                        
  473DVPE   GL1 5744  12.082   6.724   4.641                        
  473DVPE   GL2 5745  12.189   6.734   4.629                        
  473DVPE   C1A 5746  12.081   6.721   4.930                        
  473DVPE   C2A 5747  12.066   6.703   5.268                        
  473DVPE   D3A 5748  12.053   6.689   5.544                        
  473DVPE   C4A 5749  12.057   6.682   5.830                        
  473DVPE   C1B 5750  12.303   6.821   4.952                        
  473DVPE   C2B 5751  12.265   6.817   5.260                        
  473DVPE   D3B 5752  12.277   6.798   5.566                        
  473DVPE   C4B 5753  12.288   6.790   5.854                        
  474DVPE   NH3 5754  12.731  10.549   4.075                        
  474DVPE   PO4 5755  12.740  10.570   4.345                        
  474DVPE   GL1 5756  12.771  10.568   4.629                        
  474DVPE   GL2 5757  12.875  10.570   4.650                        
  474DVPE   C1A 5758  12.737  10.536   4.942                        
  474DVPE   C2A 5759  12.729  10.537   5.268                        
  474DVPE   D3A 5760  12.749  10.533   5.546                        
  474DVPE   C4A 5761  12.729  10.573   5.845                        
  474DVPE   C1B 5762  12.977  10.578   4.955                        
  474DVPE   C2B 5763  13.015  10.583   5.227                        
  474DVPE   D3B 5764  13.008  10.558   5.552                        
  474DVPE   C4B 5765  12.976  10.578   5.869                        
  475DVPE   NH3 5766  12.841  13.692   4.057                        
  475DVPE   PO4 5767  12.827  13.731   4.350                        
  475DVPE   GL1 5768  12.860  13.710   4.659                        
  475DVPE   GL2 5769  12.911  13.601   4.632                        
  475DVPE   C1A 5770  12.868  13.716   4.937                        
  475DVPE   C2A 5771  12.864  13.699   5.274                        
  475DVPE   D3A 5772  12.827  13.687   5.526                        
  475DVPE   C4A 5773  12.828  13.715   5.872                        
  475DVPE   C1B 5774  12.963  13.489   4.965                        
  475DVPE   C2B 5775  12.994  13.486   5.227                        
  475DVPE   D3B 5776  12.993  13.470   5.559                        
  475DVPE   C4B 5777  12.987  13.510   5.829                        
  476DVPE   NH3 5778  12.924   0.259   4.067                        
  476DVPE   PO4 5779  12.912   0.236   4.368                        
  476DVPE   GL1 5780  12.915   0.259   4.629                        
  476DVPE   GL2 5781  12.948   0.361   4.666                        
  476DVPE   C1A 5782  12.925   0.237   4.933                        
  476DVPE   C2A 5783  12.930   0.230   5.227                        
  476DVPE   D3A 5784  12.946   0.253   5.572                        
  476DVPE   C4A 5785  12.921   0.235   5.834                        
  476DVPE   C1B 5786  12.962   0.516   4.962                        
  476DVPE   C2B 5787  12.966   0.503   5.262                        
  476DVPE   D3B 5788  12.969   0.476   5.529                        
  476DVPE   C4B 5789  12.981   0.489   5.869                        
  477DVPE   NH3 5790  13.055   0.951   4.058                        
  477DVPE   PO4 5791  13.041   0.944   4.364                        
  477DVPE   GL1 5792  13.062   0.974   4.630                        
  477DVPE   GL2 5793  12.984   1.066   4.633                        
  477DVPE   C1A 5794  13.087   0.972   4.974                        
  477DVPE   C2A 5795  13.045   0.964   5.238                        
  477DVPE   D3A 5796  13.039   0.931   5.532                        
  477DVPE   C4A 5797  13.073   0.940   5.831                        
  477DVPE   C1B 5798  12.925   1.159   4.929                        
  477DVPE   C2B 5799  12.915   1.181   5.248                        
  477DVPE   D3B 5800  12.961   1.155   5.538                        
  477DVPE   C4B 5801  12.949   1.166   5.829                        
  478DVPE   NH3 5802  12.864   1.752   4.068                        
  478DVPE   PO4 5803  12.871   1.766   4.354                        
  478DVPE   GL1 5804  12.903   1.743   4.656                        
  478DVPE   GL2 5805  12.956   1.856   4.652                        
  478DVPE   C1A 5806  12.892   1.771   4.964                        
  478DVPE   C2A 5807  12.908   1.747   5.274                        
  478DVPE   D3A 5808  12.902   1.747   5.556                        
  478DVPE   C4A 5809  12.901   1.789   5.860                        
  478DVPE   C1B 5810  13.055   1.967   4.950                        
  478DVPE   C2B 5811  13.016   1.969   5.234                        
  478DVPE   D3B 5812  13.025   1.953   5.552                        
  478DVPE   C4B 5813  13.026   1.982   5.853                        
  479DVPE   NH3 5814  13.006   2.554   4.073                        
  479DVPE   PO4 5815  12.997   2.558   4.347                        
  479DVPE   GL1 5816  12.987   2.561   4.658                        
  479DVPE   GL2 5817  12.888   2.605   4.670                        
  479DVPE   C1A 5818  12.990   2.541   4.959                        
  479DVPE   C2A 5819  12.979   2.570   5.232                        
  479DVPE   D3A 5820  13.003   2.555   5.525                        
  479DVPE   C4A 5821  12.994   2.530   5.838                        
  479DVPE   C1B 5822  12.773   2.692   4.944                        
  479DVPE   C2B 5823  12.781   2.725   5.265                        
  479DVPE   D3B 5824  12.821   2.700   5.554                        
  479DVPE   C4B 5825  12.774   2.701   5.859                        
  480DVPE   NH3 5826  12.999   4.075   4.062                        
  480DVPE   PO4 5827  12.962   4.054   4.348                        
  480DVPE   GL1 5828  12.989   4.083   4.659                        
  480DVPE   GL2 5829  12.865   4.127   4.674                        
  480DVPE   C1A 5830  12.986   4.081   4.937                        
  480DVPE   C2A 5831  12.993   4.051   5.270                        
  480DVPE   D3A 5832  12.981   4.053   5.574                        
  480DVPE   C4A 5833  13.000   4.079   5.826                        
  480DVPE   C1B 5834  12.773   4.175   4.962                        
  480DVPE   C2B 5835  12.772   4.170   5.226                        
  480DVPE   D3B 5836  12.773   4.177   5.562                        
  480DVPE   C4B 5837  12.767   4.178   5.845                        
  481DVPE   NH3 5838  12.884   4.738   4.066                        
  481DVPE   PO4 5839  12.849   4.705   4.374                        
  481DVPE   GL1 5840  12.870   4.738   4.655                        
  481DVPE   GL2 5841  12.811   4.859   4.654                        
  481DVPE   C1A 5842  12.885   4.727   4.971                        
  481DVPE   C2A 5843  12.886   4.717   5.245                        
  481DVPE   D3A 5844  12.871   4.709   5.527                        
  481DVPE   C4A 5845  12.844   4.721   5.833                        
  481DVPE   C1B 5846  12.813   4.980   4.955                        
  481DVPE   C2B 5847  12.797   4.973   5.253                        
  481DVPE   D3B 5848  12.798   4.973   5.572                        
  481DVPE   C4B 5849  12.788   4.975   5.847                        
  482DVPE   NH3 5850  12.979   7.456   4.025                        
  482DVPE   PO4 5851  13.012   7.463   4.360                        
  482DVPE   GL1 5852  13.006   7.473   4.648                        
  482DVPE   GL2 5853  12.908   7.413   4.645                        
  482DVPE   C1A 5854  12.983   7.454   4.966                        
  482DVPE   C2A 5855  12.991   7.468   5.257                        
  482DVPE   D3A 5856  12.990   7.460   5.571                        
  482DVPE   C4A 5857  12.983   7.437   5.870                        
  482DVPE   C1B 5858  12.751   7.328   4.938                        
  482DVPE   C2B 5859  12.787   7.323   5.253                        
  482DVPE   D3B 5860  12.776   7.354   5.546                        
  482DVPE   C4B 5861  12.798   7.325   5.875                        
  483DVPE   NH3 5862  13.735  10.795   4.067                        
  483DVPE   PO4 5863  13.724  10.788   4.366                        
  483DVPE   GL1 5864  13.749  10.827   4.665                        
  483DVPE   GL2 5865  13.599  10.808   4.662                        
  483DVPE   C1A 5866  13.719  10.812   4.970                        
  483DVPE   C2A 5867  13.740  10.820   5.238                        
  483DVPE   D3A 5868  13.726  10.804   5.535                        
  483DVPE   C4A 5869  13.719  10.791   5.854                        
  483DVPE   C1B 5870  13.491  10.824   4.969                        
  483DVPE   C2B 5871  13.490  10.847   5.249                        
  483DVPE   D3B 5872  13.487  10.839   5.540                        
  483DVPE   C4B 5873  13.488  10.860   5.826                        
  484DVPE   NH3 5874  13.562  11.585   4.035                        
  484DVPE   PO4 5875  13.581  11.603   4.337                        
  484DVPE   GL1 5876  13.573  11.627   4.645                        
  484DVPE   GL2 5877  13.643  11.497   4.640                        
  484DVPE   C1A 5878  13.565  11.602   4.951                        
  484DVPE   C2A 5879  13.566  11.610   5.237                        
  484DVPE   D3A 5880  13.608  11.588   5.546                        
  484DVPE   C4A 5881  13.583  11.627   5.852                        
  484DVPE   C1B 5882  13.669  11.367   4.966                        
  484DVPE   C2B 5883  13.671  11.363   5.273                        
  484DVPE   D3B 5884  13.641  11.354   5.562                        
  484DVPE   C4B 5885  13.644  11.356   5.839                        
  485DVPE   NH3 5886  13.503  12.251   4.061                        
  485DVPE   PO4 5887  13.507  12.268   4.365                        
  485DVPE   GL1 5888  13.498  12.240   4.659                        
  485DVPE   GL2 5889  13.595  12.170   4.636                        
  485DVPE   C1A 5890  13.487  12.244   4.932                        
  485DVPE   C2A 5891  13.522  12.262   5.251                        
  485DVPE   D3A 5892  13.512  12.239   5.526                        
  485DVPE   C4A 5893  13.502  12.258   5.864                        
  485DVPE   C1B 5894  13.720  12.132   4.935                        
  485DVPE   C2B 5895  13.731  12.092   5.239                        
  485DVPE   D3B 5896  13.695  12.090   5.527                        
  485DVPE   C4B 5897  13.713  12.129   5.871                        
  486DVPE   NH3 5898  13.730  12.870   4.030                        
  486DVPE   PO4 5899  13.752  12.870   4.368                        
  486DVPE   GL1 5900  13.730  12.887   4.643                        
  486DVPE   GL2 5901  13.644  12.897   4.654                        
  486DVPE   C1A 5902  13.724  12.883   4.974                        
  486DVPE   C2A 5903  13.749  12.893   5.235                        
  486DVPE   D3A 5904  13.738  12.862   5.553                        
  486DVPE   C4A 5905  13.751  12.892   5.860                        
  486DVPE   C1B 5906  13.507  12.917   4.960                        
  486DVPE   C2B 5907  13.479  12.911   5.240                        
  486DVPE   D3B 5908  13.510  12.896   5.538                        
  486DVPE   C4B 5909  13.483  12.918   5.850                        
  487DVPE   NH3 5910  13.539   0.322   4.040                        
  487DVPE   PO4 5911  13.549   0.334   4.355                        
  487DVPE   GL1 5912  13.558   0.333   4.670                        
  487DVPE   GL2 5913  13.639   0.420   4.673                        
  487DVPE   C1A 5914  13.558   0.318   4.930                        
  487DVPE   C2A 5915  13.551   0.349   5.273                        
  487DVPE   D3A 5916  13.548   0.337   5.541                        
  487DVPE   C4A 5917  13.542   0.335   5.840                        
  487DVPE   C1B 5918  13.726   0.519   4.943                        
  487DVPE   C2B 5919  13.701   0.514   5.248                        
  487DVPE   D3B 5920  13.698   0.505   5.533                        
  487DVPE   C4B 5921  13.739   0.503   5.831                        
  488DVPE   NH3 5922  13.738   1.194   4.045                        
  488DVPE   PO4 5923  13.720   1.153   4.356                        
  488DVPE   GL1 5924  13.717   1.156   4.666                        
  488DVPE   GL2 5925  13.604   1.216   4.664                        
  488DVPE   C1A 5926  13.740   1.171   4.939                        
  488DVPE   C2A 5927  13.753   1.177   5.263                        
  488DVPE   D3A 5928  13.750   1.169   5.553                        
  488DVPE   C4A 5929  13.753   1.172   5.843                        
  488DVPE   C1B 5930  13.513   1.280   4.973                        
  488DVPE   C2B 5931  13.493   1.288   5.271                        
  488DVPE   D3B 5932  13.494   1.277   5.563                        
  488DVPE   C4B 5933  13.531   1.256   5.842                        
  489DVPE   NH3 5934  13.502   4.101   4.051                        
  489DVPE   PO4 5935  13.535   4.098   4.357                        
  489DVPE   GL1 5936  13.517   4.127   4.653                        
  489DVPE   GL2 5937  13.639   4.198   4.667                        
  489DVPE   C1A 5938  13.514   4.121   4.953                        
  489DVPE   C2A 5939  13.503   4.103   5.229                        
  489DVPE   D3A 5940  13.538   4.110   5.541                        
  489DVPE   C4A 5941  13.522   4.093   5.871                        
  489DVPE   C1B 5942  13.733   4.269   4.930                        
  489DVPE   C2B 5943  13.737   4.258   5.253                        
  489DVPE   D3B 5944  13.731   4.240   5.539                        
  489DVPE   C4B 5945  13.747   4.254   5.829                        
  490DVPE   NH3 5946  13.537   4.811   4.039                        
  490DVPE   PO4 5947  13.542   4.788   4.363                        
  490DVPE   GL1 5948  13.576   4.812   4.653                        
  490DVPE   GL2 5949  13.637   4.911   4.656                        
  490DVPE   C1A 5950  13.559   4.813   4.941                        
  490DVPE   C2A 5951  13.532   4.788   5.229                        
  490DVPE   D3A 5952  13.535   4.808   5.546                        
  490DVPE   C4A 5953  13.564   4.813   5.856                        
  490DVPE   C1B 5954  13.709   4.993   4.955                        
  490DVPE   C2B 5955  13.704   5.003   5.267                        
  490DVPE   D3B 5956  13.701   5.015   5.544                        
  490DVPE   C4B 5957  13.683   5.000   5.851                        
  491DVPE   NH3 5958  13.569   5.758   4.059                        
  491DVPE   PO4 5959  13.575   5.716   4.355                        
  491DVPE   GL1 5960  13.544   5.755   4.669                        
  491DVPE   GL2 5961  13.649   5.623   4.635                        
  491DVPE   C1A 5962  13.557   5.749   4.947                        
  491DVPE   C2A 5963  13.533   5.729   5.256                        
  491DVPE   D3A 5964  13.533   5.743   5.572                        
  491DVPE   C4A 5965  13.545   5.719   5.829                        
  491DVPE   C1B 5966  13.708   5.551   4.961                        
  491DVPE   C2B 5967  13.683   5.540   5.249                        
  491DVPE   D3B 5968  13.694   5.549   5.558                        
  491DVPE   C4B 5969  13.698   5.544   5.857                        
  492DVPE   NH3 5970  13.674   6.222   4.060                        
  492DVPE   PO4 5971  13.702   6.231   4.360                        
  492DVPE   GL1 5972  13.669   6.222   4.661                        
  492DVPE   GL2 5973  13.616   6.327   4.673                        
  492DVPE   C1A 5974  13.681   6.250   4.973                        
  492DVPE   C2A 5975  13.682   6.252   5.252                        
  492DVPE   D3A 5976  13.673   6.215   5.549                        
  492DVPE   C4A 5977  13.669   6.257   5.832                        
  492DVPE   C1B 5978  13.539   6.446   4.935                        
  492DVPE   C2B 5979  13.586   6.433   5.231                        
  492DVPE   D3B 5980  13.549   6.456   5.551                        
  492DVPE   C4B 5981  13.569   6.457   5.872                        
  493DVPE   NH3 5982  13.529   7.092   4.042                        
  493DVPE   PO4 5983  13.537   7.089   4.341                        
  493DVPE   GL1 5984  13.499   7.110   4.645                        
  493DVPE   GL2 5985  13.649   7.029   4.668                        
  493DVPE   C1A 5986  13.522   7.119   4.940                        
  493DVPE   C2A 5987  13.541   7.085   5.275                        
  493DVPE   D3A 5988  13.545   7.089   5.531                        
  493DVPE   C4A 5989  13.529   7.089   5.827                        
  493DVPE   C1B 5990  13.718   6.953   4.945                        
  493DVPE   C2B 5991  13.730   6.953   5.260                        
  493DVPE   D3B 5992  13.738   6.976   5.572                        
  493DVPE   C4B 5993  13.711   6.960   5.841                        
  494DVPE   NH3 5994  13.507   7.687   4.041                        
  494DVPE   PO4 5995  13.504   7.670   4.361                        
  494DVPE   GL1 5996  13.496   7.666   4.658                        
  494DVPE   GL2 5997  13.601   7.701   4.651                        
  494DVPE   C1A 5998  13.528   7.681   4.971                        
  494DVPE   C2A 5999  13.525   7.653   5.259                        
  494DVPE   D3A 6000  13.517   7.655   5.551                        
  494DVPE   C4A 6001  13.507   7.682   5.827                        
  494DVPE   C1B 6002  13.721   7.770   4.972                        
  494DVPE   C2B 6003  13.752   7.784   5.273                        
  494DVPE   D3B 6004  13.753   7.757   5.555                        
  494DVPE   C4B 6005  13.738   7.792   5.826                        
  495POPE   NH3 6006   0.501   2.455   4.032                        
  495POPE   PO4 6007   0.498   2.423   4.363                        
  495POPE   GL1 6008   0.490   2.416   4.666                        
  495POPE   GL2 6009   0.372   2.367   4.657                        
  495POPE   C1A 6010   0.480   2.435   4.960                        
  495POPE   D2A 6011   0.481   2.431   5.240                        
  495POPE   C3A 6012   0.501   2.427   5.545                        
  495POPE   C4A 6013   0.474   2.448   5.874                        
  495POPE   C1B 6014   0.290   2.309   4.958                        
  495POPE   C2B 6015   0.263   2.293   5.255                        
  495POPE   C3B 6016   0.289   2.294   5.565                        
  495POPE   C4B 6017   0.257   2.318   5.869                        
  496POPE   NH3 6018   0.251   5.055   4.027                        
  496POPE   PO4 6019   0.233   5.067   4.332                        
  496POPE   GL1 6020   0.241   5.051   4.640                        
  496POPE   GL2 6021   0.366   5.041   4.667                        
  496POPE   C1A 6022   0.237   5.068   4.961                        
  496POPE   D2A 6023   0.267   5.079   5.249                        
  496POPE   C3A 6024   0.261   5.044   5.539                        
  496POPE   C4A 6025   0.254   5.038   5.833                        
  496POPE   C1B 6026   0.485   5.022   4.949                        
  496POPE   C2B 6027   0.521   4.999   5.235                        
  496POPE   C3B 6028   0.490   5.003   5.550                        
  496POPE   C4B 6029   0.509   5.002   5.841                        
  497POPE   NH3 6030   0.498   7.279   4.026                        
  497POPE   PO4 6031   0.498   7.251   4.342                        
  497POPE   GL1 6032   0.479   7.267   4.639                        
  497POPE   GL2 6033   0.410   7.347   4.633                        
  497POPE   C1A 6034   0.468   7.248   4.973                        
  497POPE   D2A 6035   0.495   7.280   5.244                        
  497POPE   C3A 6036   0.498   7.254   5.542                        
  497POPE   C4A 6037   0.487   7.279   5.846                        
  497POPE   C1B 6038   0.309   7.471   4.937                        
  497POPE   C2B 6039   0.329   7.448   5.257                        
  497POPE   C3B 6040   0.299   7.480   5.544                        
  497POPE   C4B 6041   0.342   7.451   5.853                        
  498POPE   NH3 6042   0.332  11.928   4.070                        
  498POPE   PO4 6043   0.340  11.917   4.363                        
  498POPE   GL1 6044   0.374  11.908   4.662                        
  498POPE   GL2 6045   0.362  12.035   4.628                        
  498POPE   C1A 6046   0.330  11.919   4.958                        
  498POPE   D2A 6047   0.353  11.931   5.274                        
  498POPE   C3A 6048   0.336  11.941   5.546                        
  498POPE   C4A 6049   0.345  11.935   5.861                        
  498POPE   C1B 6050   0.422  12.177   4.947                        
  498POPE   C2B 6051   0.422  12.156   5.242                        
  498POPE   C3B 6052   0.375  12.151   5.539                        
  498POPE   C4B 6053   0.375  12.146   5.846                        
  499POPE   NH3 6054   1.145   3.839   4.051                        
  499POPE   PO4 6055   1.159   3.840   4.328                        
  499POPE   GL1 6056   1.163   3.846   4.655                        
  499POPE   GL2 6057   1.129   3.739   4.628                        
  499POPE   C1A 6058   1.144   3.876   4.964                        
  499POPE   D2A 6059   1.156   3.877   5.242                        
  499POPE   C3A 6060   1.152   3.835   5.570                        
  499POPE   C4A 6061   1.162   3.849   5.866                        
  499POPE   C1B 6062   1.084   3.634   4.966                        
  499POPE   C2B 6063   1.118   3.603   5.249                        
  499POPE   C3B 6064   1.081   3.627   5.538                        
  499POPE   C4B 6065   1.118   3.613   5.844                        
  500POPE   NH3 6066   0.893   4.445   4.070                        
  500POPE   PO4 6067   0.882   4.416   4.350                        
  500POPE   GL1 6068   0.889   4.416   4.632                        
  500POPE   GL2 6069   0.973   4.377   4.640                        
  500POPE   C1A 6070   0.883   4.434   4.960                        
  500POPE   D2A 6071   0.909   4.441   5.236                        
  500POPE   C3A 6072   0.899   4.425   5.526                        
  500POPE   C4A 6073   0.872   4.416   5.832                        
  500POPE   C1B 6074   1.093   4.306   4.958                        
  500POPE   C2B 6075   1.078   4.287   5.228                        
  500POPE   C3B 6076   1.060   4.304   5.564                        
  500POPE   C4B 6077   1.107   4.266   5.834                        
  501POPE   NH3 6078   1.024   6.088   4.071                        
  501POPE   PO4 6079   0.992   6.070   4.346                        
  501POPE   GL1 6080   0.993   6.074   4.641                        
  501POPE   GL2 6081   1.049   5.937   4.658                        
  501POPE   C1A 6082   1.023   6.044   4.939                        
  501POPE   D2A 6083   1.002   6.071   5.270                        
  501POPE   C3A 6084   1.013   6.042   5.556                        
  501POPE   C4A 6085   1.027   6.049   5.838                        
  501POPE   C1B 6086   1.115   5.866   4.953                        
  501POPE   C2B 6087   1.151   5.857   5.240                        
  501POPE   C3B 6088   1.106   5.850   5.541                        
  501POPE   C4B 6089   1.146   5.868   5.868                        
  502POPE   NH3 6090   1.189   9.101   4.075                        
  502POPE   PO4 6091   1.198   9.105   4.366                        
  502POPE   GL1 6092   1.171   9.089   4.627                        
  502POPE   GL2 6093   1.118   8.963   4.643                        
  502POPE   C1A 6094   1.206   9.078   4.928                        
  502POPE   D2A 6095   1.190   9.103   5.244                        
  502POPE   C3A 6096   1.192   9.087   5.536                        
  502POPE   C4A 6097   1.194   9.106   5.867                        
  502POPE   C1B 6098   1.099   8.882   4.953                        
  502POPE   C2B 6099   1.060   8.878   5.241                        
  502POPE   C3B 6100   1.090   8.878   5.536                        
  502POPE   C4B 6101   1.080   8.847   5.830                        
  503POPE   NH3 6102   1.228   9.737   4.038                        
  503POPE   PO4 6103   1.231   9.749   4.364                        
  503POPE   GL1 6104   1.234   9.771   4.666                        
  503POPE   GL2 6105   1.120   9.744   4.670                        
  503POPE   C1A 6106   1.230   9.726   4.959                        
  503POPE   D2A 6107   1.266   9.733   5.249                        
  503POPE   C3A 6108   1.252   9.750   5.542                        
  503POPE   C4A 6109   1.232   9.743   5.861                        
  503POPE   C1B 6110   0.996   9.768   4.943                        
  503POPE   C2B 6111   0.975   9.774   5.234                        
  503POPE   C3B 6112   0.981   9.742   5.542                        
  503POPE   C4B 6113   1.020   9.734   5.872                        
  504POPE   NH3 6114   1.961   2.631   4.028                        
  504POPE   PO4 6115   1.999   2.664   4.367                        
  504POPE   GL1 6116   1.995   2.644   4.648                        
  504POPE   GL2 6117   2.062   2.549   4.639                        
  504POPE   C1A 6118   1.976   2.656   4.941                        
  504POPE   D2A 6119   1.963   2.661   5.230                        
  504POPE   C3A 6120   1.992   2.617   5.571                        
  504POPE   C4A 6121   1.961   2.637   5.853                        
  504POPE   C1B 6122   2.101   2.452   4.947                        
  504POPE   C2B 6123   2.129   2.423   5.263                        
  504POPE   C3B 6124   2.133   2.434   5.573                        
  504POPE   C4B 6125   2.105   2.412   5.860                        
  505POPE   NH3 6126   1.826   9.013   4.075                        
  505POPE   PO4 6127   1.866   9.013   4.348                        
  505POPE   GL1 6128   1.827   8.990   4.665                        
  505POPE   GL2 6129   1.876   9.123   4.670                        
  505POPE   C1A 6130   1.830   8.988   4.960                        
  505POPE   D2A 6131   1.841   8.991   5.237                        
  505POPE   C3A 6132   1.840   9.012   5.569                        
  505POPE   C4A 6133   1.873   8.993   5.831                        
  505POPE   C1B 6134   1.855   9.250   4.952                        
  505POPE   C2B 6135   1.886   9.268   5.272                        
  505POPE   C3B 6136   1.863   9.241   5.538                        
  505POPE   C4B 6137   1.867   9.267   5.874                        
  506POPE   NH3 6138   1.772   9.799   4.027                        
  506POPE   PO4 6139   1.771   9.780   4.358                        
  506POPE   GL1 6140   1.748   9.804   4.627                        
  506POPE   GL2 6141   1.860   9.896   4.664                        
  506POPE   C1A 6142   1.779   9.801   4.969                        
  506POPE   D2A 6143   1.751   9.766   5.241                        
  506POPE   C3A 6144   1.785   9.809   5.568                        
  506POPE   C4A 6145   1.745   9.803   5.873                        
  506POPE   C1B 6146   1.954   9.942   4.950                        
  506POPE   C2B 6147   1.959   9.945   5.253                        
  506POPE   C3B 6148   1.950   9.956   5.547                        
  506POPE   C4B 6149   1.931   9.981   5.867                        
  507POPE   NH3 6150   1.722  13.631   4.051                        
  507POPE   PO4 6151   1.716  13.631   4.363                        
  507POPE   GL1 6152   1.731  13.657   4.658                        
  507POPE   GL2 6153   1.850  13.623   4.667                        
  507POPE   C1A 6154   1.748  13.651   4.953                        
  507POPE   D2A 6155   1.734  13.641   5.263                        
  507POPE   C3A 6156   1.713  13.672   5.539                        
  507POPE   C4A 6157   1.752  13.626   5.847                        
  507POPE   C1B 6158   1.953  13.570   4.926                        
  507POPE   C2B 6159   1.979  13.589   5.264                        
  507POPE   C3B 6160   1.973  13.575   5.541                        
  507POPE   C4B 6161   1.986  13.575   5.843                        
  508POPE   NH3 6162   2.548   7.052   4.040                        
  508POPE   PO4 6163   2.511   7.032   4.358                        
  508POPE   GL1 6164   2.527   7.074   4.658                        
  508POPE   GL2 6165   2.614   6.938   4.660                        
  508POPE   C1A 6166   2.549   7.036   4.964                        
  508POPE   D2A 6167   2.538   7.024   5.266                        
  508POPE   C3A 6168   2.527   7.069   5.536                        
  508POPE   C4A 6169   2.547   7.046   5.855                        
  508POPE   C1B 6170   2.652   6.836   4.944                        
  508POPE   C2B 6171   2.655   6.831   5.265                        
  508POPE   C3B 6172   2.648   6.847   5.525                        
  508POPE   C4B 6173   2.673   6.827   5.836                        
  509POPE   NH3 6174   2.610   9.638   4.052                        
  509POPE   PO4 6175   2.620   9.644   4.327                        
  509POPE   GL1 6176   2.633   9.669   4.653                        
  509POPE   GL2 6177   2.603   9.792   4.628                        
  509POPE   C1A 6178   2.611   9.640   4.970                        
  509POPE   D2A 6179   2.604   9.673   5.245                        
  509POPE   C3A 6180   2.621   9.668   5.527                        
  509POPE   C4A 6181   2.630   9.642   5.871                        
  509POPE   C1B 6182   2.571   9.924   4.944                        
  509POPE   C2B 6183   2.581   9.919   5.243                        
  509POPE   C3B 6184   2.591   9.878   5.568                        
  509POPE   C4B 6185   2.584   9.880   5.851                        
  510POPE   NH3 6186   2.665  13.541   4.028                        
  510POPE   PO4 6187   2.681  13.538   4.331                        
  510POPE   GL1 6188   2.675  13.556   4.647                        
  510POPE   GL2 6189   2.573  13.638   4.650                        
  510POPE   C1A 6190   2.678  13.555   4.949                        
  510POPE   D2A 6191   2.657  13.521   5.245                        
  510POPE   C3A 6192   2.659  13.556   5.531                        
  510POPE   C4A 6193   2.669  13.563   5.841                        
  510POPE   C1B 6194   2.492  13.721   4.935                        
  510POPE   C2B 6195   2.473  13.699   5.262                        
  510POPE   C3B 6196   2.507  13.729   5.568                        
  510POPE   C4B 6197   2.516  13.707   5.827                        
  511POPE   NH3 6198   2.670   1.220   4.071                        
  511POPE   PO4 6199   2.634   1.213   4.366                        
  511POPE   GL1 6200   2.647   1.225   4.656                        
  511POPE   GL2 6201   2.749   1.244   4.653                        
  511POPE   C1A 6202   2.660   1.237   4.965                        
  511POPE   D2A 6203   2.668   1.242   5.250                        
  511POPE   C3A 6204   2.664   1.208   5.533                        
  511POPE   C4A 6205   2.660   1.216   5.862                        
  511POPE   C1B 6206   2.883   1.254   4.940                        
  511POPE   C2B 6207   2.918   1.234   5.234                        
  511POPE   C3B 6208   2.886   1.253   5.560                        
  511POPE   C4B 6209   2.875   1.242   5.864                        
  512POPE   NH3 6210   2.354   3.643   4.065                        
  512POPE   PO4 6211   2.340   3.654   4.343                        
  512POPE   GL1 6212   2.348   3.665   4.664                        
  512POPE   GL2 6213   2.419   3.569   4.646                        
  512POPE   C1A 6214   2.331   3.669   4.934                        
  512POPE   D2A 6215   2.324   3.689   5.264                        
  512POPE   C3A 6216   2.342   3.642   5.562                        
  512POPE   C4A 6217   2.349   3.662   5.858                        
  512POPE   C1B 6218   2.523   3.494   4.961                        
  512POPE   C2B 6219   2.543   3.466   5.258                        
  512POPE   C3B 6220   2.511   3.507   5.554                        
  512POPE   C4B 6221   2.506   3.484   5.851                        
  513POPE   NH3 6222   3.447   8.348   4.070                        
  513POPE   PO4 6223   3.455   8.356   4.370                        
  513POPE   GL1 6224   3.479   8.332   4.639                        
  513POPE   GL2 6225   3.360   8.303   4.658                        
  513POPE   C1A 6226   3.487   8.321   4.934                        
  513POPE   D2A 6227   3.493   8.345   5.226                        
  513POPE   C3A 6228   3.493   8.344   5.547                        
  513POPE   C4A 6229   3.494   8.324   5.844                        
  513POPE   C1B 6230   3.213   8.304   4.947                        
  513POPE   C2B 6231   3.212   8.326   5.235                        
  513POPE   C3B 6232   3.246   8.324   5.561                        
  513POPE   C4B 6233   3.216   8.284   5.827                        
  514POPE   NH3 6234   3.237  11.235   4.044                        
  514POPE   PO4 6235   3.226  11.231   4.371                        
  514POPE   GL1 6236   3.236  11.243   4.674                        
  514POPE   GL2 6237   3.343  11.333   4.663                        
  514POPE   C1A 6238   3.214  11.269   4.970                        
  514POPE   D2A 6239   3.230  11.236   5.263                        
  514POPE   C3A 6240   3.196  11.242   5.556                        
  514POPE   C4A 6241   3.205  11.254   5.837                        
  514POPE   C1B 6242   3.440  11.383   4.935                        
  514POPE   C2B 6243   3.436  11.378   5.249                        
  514POPE   C3B 6244   3.461  11.375   5.567                        
  514POPE   C4B 6245   3.460  11.357   5.867                        
  515POPE   NH3 6246   3.242  12.895   4.069                        
  515POPE   PO4 6247   3.206  12.867   4.345                        
  515POPE   GL1 6248   3.206  12.869   4.634                        
  515POPE   GL2 6249   3.327  12.832   4.635                        
  515POPE   C1A 6250   3.209  12.877   4.943                        
  515POPE   D2A 6251   3.208  12.902   5.229                        
  515POPE   C3A 6252   3.246  12.874   5.549                        
  515POPE   C4A 6253   3.213  12.877   5.853                        
  515POPE   C1B 6254   3.428  12.771   4.934                        
  515POPE   C2B 6255   3.467  12.785   5.261                        
  515POPE   C3B 6256   3.424  12.749   5.554                        
  515POPE   C4B 6257   3.420  12.782   5.849                        
  516POPE   NH3 6258   3.919   0.393   4.036                        
  516POPE   PO4 6259   3.958   0.398   4.344                        
  516POPE   GL1 6260   3.965   0.443   4.673                        
  516POPE   GL2 6261   4.060   0.358   4.651                        
  516POPE   C1A 6262   3.958   0.430   4.960                        
  516POPE   D2A 6263   3.959   0.403   5.262                        
  516POPE   C3A 6264   3.940   0.437   5.532                        
  516POPE   C4A 6265   3.931   0.394   5.873                        
  516POPE   C1B 6266   4.167   0.349   4.947                        
  516POPE   C2B 6267   4.172   0.310   5.269                        
  516POPE   C3B 6268   4.192   0.328   5.535                        
  516POPE   C4B 6269   4.163   0.313   5.850                        
  517POPE   NH3 6270   4.069   4.082   4.026                        
  517POPE   PO4 6271   4.108   4.076   4.364                        
  517POPE   GL1 6272   4.089   4.081   4.631                        
  517POPE   GL2 6273   4.131   3.951   4.666                        
  517POPE   C1A 6274   4.098   4.055   4.925                        
  517POPE   D2A 6275   4.091   4.066   5.227                        
  517POPE   C3A 6276   4.083   4.096   5.537                        
  517POPE   C4A 6277   4.070   4.077   5.874                        
  517POPE   C1B 6278   4.171   3.838   4.941                        
  517POPE   C2B 6279   4.155   3.814   5.254                        
  517POPE   C3B 6280   4.134   3.829   5.554                        
  517POPE   C4B 6281   4.138   3.851   5.842                        
  518POPE   NH3 6282   4.123  12.277   4.058                        
  518POPE   PO4 6283   4.091  12.283   4.373                        
  518POPE   GL1 6284   4.123  12.280   4.656                        
  518POPE   GL2 6285   4.090  12.123   4.631                        
  518POPE   C1A 6286   4.095  12.265   4.961                        
  518POPE   D2A 6287   4.117  12.257   5.245                        
  518POPE   C3A 6288   4.121  12.239   5.567                        
  518POPE   C4A 6289   4.130  12.271   5.871                        
  518POPE   C1B 6290   4.067  12.028   4.941                        
  518POPE   C2B 6291   4.063  12.032   5.238                        
  518POPE   C3B 6292   4.073  12.041   5.527                        
  518POPE   C4B 6293   4.050  11.997   5.875                        
  519POPE   NH3 6294   4.148  13.525   4.053                        
  519POPE   PO4 6295   4.119  13.527   4.365                        
  519POPE   GL1 6296   4.105  13.542   4.661                        
  519POPE   GL2 6297   4.050  13.602   4.656                        
  519POPE   C1A 6298   4.106  13.526   4.962                        
  519POPE   D2A 6299   4.137  13.532   5.268                        
  519POPE   C3A 6300   4.122  13.550   5.567                        
  519POPE   C4A 6301   4.146  13.539   5.838                        
  519POPE   C1B 6302   3.956  13.716   4.945                        
  519POPE   C2B 6303   3.980  13.713   5.251                        
  519POPE   C3B 6304   3.979  13.744   5.536                        
  519POPE   C4B 6305   3.993  13.729   5.849                        
  520POPE   NH3 6306   4.798   0.499   4.029                        
  520POPE   PO4 6307   4.793   0.476   4.370                        
  520POPE   GL1 6308   4.756   0.504   4.664                        
  520POPE   GL2 6309   4.809   0.374   4.634                        
  520POPE   C1A 6310   4.779   0.514   4.928                        
  520POPE   D2A 6311   4.779   0.488   5.257                        
  520POPE   C3A 6312   4.793   0.497   5.574                        
  520POPE   C4A 6313   4.758   0.501   5.830                        
  520POPE   C1B 6314   4.847   0.254   4.955                        
  520POPE   C2B 6315   4.839   0.269   5.258                        
  520POPE   C3B 6316   4.828   0.260   5.542                        
  520POPE   C4B 6317   4.799   0.237   5.855                        
  521POPE   NH3 6318   4.681   1.739   4.037                        
  521POPE   PO4 6319   4.668   1.767   4.348                        
  521POPE   GL1 6320   4.681   1.742   4.666                        
  521POPE   GL2 6321   4.735   1.838   4.656                        
  521POPE   C1A 6322   4.666   1.762   4.937                        
  521POPE   D2A 6323   4.695   1.731   5.230                        
  521POPE   C3A 6324   4.678   1.748   5.569                        
  521POPE   C4A 6325   4.691   1.776   5.848                        
  521POPE   C1B 6326   4.812   1.940   4.938                        
  521POPE   C2B 6327   4.788   1.954   5.268                        
  521POPE   C3B 6328   4.795   1.974   5.551                        
  521POPE   C4B 6329   4.819   1.977   5.852                        
  522POPE   NH3 6330   4.866   2.511   4.057                        
  522POPE   PO4 6331   4.836   2.499   4.347                        
  522POPE   GL1 6332   4.847   2.487   4.651                        
  522POPE   GL2 6333   4.805   2.609   4.637                        
  522POPE   C1A 6334   4.833   2.511   4.965                        
  522POPE   D2A 6335   4.854   2.483   5.268                        
  522POPE   C3A 6336   4.871   2.486   5.558                        
  522POPE   C4A 6337   4.844   2.504   5.857                        
  522POPE   C1B 6338   4.702   2.706   4.928                        
  522POPE   C2B 6339   4.713   2.697   5.268                        
  522POPE   C3B 6340   4.724   2.706   5.526                        
  522POPE   C4B 6341   4.715   2.693   5.861                        
  523POPE   NH3 6342   4.858   3.208   4.071                        
  523POPE   PO4 6343   4.812   3.212   4.340                        
  523POPE   GL1 6344   4.857   3.213   4.625                        
  523POPE   GL2 6345   4.802   3.334   4.663                        
  523POPE   C1A 6346   4.821   3.231   4.959                        
  523POPE   D2A 6347   4.826   3.230   5.246                        
  523POPE   C3A 6348   4.858   3.204   5.546                        
  523POPE   C4A 6349   4.851   3.210   5.862                        
  523POPE   C1B 6350   4.813   3.459   4.949                        
  523POPE   C2B 6351   4.780   3.441   5.235                        
  523POPE   C3B 6352   4.784   3.467   5.575                        
  523POPE   C4B 6353   4.797   3.467   5.869                        
  524POPE   NH3 6354   5.047   5.585   4.060                        
  524POPE   PO4 6355   5.037   5.555   4.353                        
  524POPE   GL1 6356   5.035   5.581   4.663                        
  524POPE   GL2 6357   4.892   5.531   4.659                        
  524POPE   C1A 6358   5.039   5.591   4.959                        
  524POPE   D2A 6359   5.026   5.567   5.232                        
  524POPE   C3A 6360   5.032   5.566   5.547                        
  524POPE   C4A 6361   5.035   5.548   5.855                        
  524POPE   C1B 6362   4.782   5.497   4.943                        
  524POPE   C2B 6363   4.770   5.466   5.250                        
  524POPE   C3B 6364   4.801   5.502   5.553                        
  524POPE   C4B 6365   4.770   5.487   5.839                        
  525POPE   NH3 6366   4.861   6.227   4.056                        
  525POPE   PO4 6367   4.870   6.221   4.356                        
  525POPE   GL1 6368   4.874   6.211   4.644                        
  525POPE   GL2 6369   4.719   6.255   4.672                        
  525POPE   C1A 6370   4.833   6.212   4.930                        
  525POPE   D2A 6371   4.862   6.226   5.233                        
  525POPE   C3A 6372   4.874   6.214   5.557                        
  525POPE   C4A 6373   4.843   6.212   5.862                        
  525POPE   C1B 6374   4.600   6.288   4.957                        
  525POPE   C2B 6375   4.596   6.253   5.232                        
  525POPE   C3B 6376   4.624   6.294   5.564                        
  525POPE   C4B 6377   4.616   6.295   5.871                        
  526POPE   NH3 6378   4.734   8.529   4.055                        
  526POPE   PO4 6379   4.705   8.513   4.335                        
  526POPE   GL1 6380   4.711   8.543   4.627                        
  526POPE   GL2 6381   4.807   8.460   4.657                        
  526POPE   C1A 6382   4.694   8.514   4.933                        
  526POPE   D2A 6383   4.709   8.515   5.232                        
  526POPE   C3A 6384   4.707   8.544   5.560                        
  526POPE   C4A 6385   4.695   8.518   5.837                        
  526POPE   C1B 6386   4.899   8.408   4.959                        
  526POPE   C2B 6387   4.905   8.398   5.239                        
  526POPE   C3B 6388   4.929   8.373   5.553                        
  526POPE   C4B 6389   4.922   8.363   5.827                        
  527POPE   NH3 6390   4.901  10.005   4.053                        
  527POPE   PO4 6391   4.889  10.033   4.344                        
  527POPE   GL1 6392   4.882  10.007   4.665                        
  527POPE   GL2 6393   4.838   9.912   4.641                        
  527POPE   C1A 6394   4.911  10.031   4.951                        
  527POPE   D2A 6395   4.907  10.020   5.251                        
  527POPE   C3A 6396   4.891  10.046   5.567                        
  527POPE   C4A 6397   4.913  10.010   5.852                        
  527POPE   C1B 6398   4.754   9.840   4.973                        
  527POPE   C2B 6399   4.729   9.840   5.274                        
  527POPE   C3B 6400   4.733   9.809   5.535                        
  527POPE   C4B 6401   4.724   9.821   5.861                        
  528POPE   NH3 6402   4.733  11.491   4.031                        
  528POPE   PO4 6403   4.771  11.502   4.327                        
  528POPE   GL1 6404   4.769  11.533   4.640                        
  528POPE   GL2 6405   4.818  11.374   4.658                        
  528POPE   C1A 6406   4.744  11.523   4.949                        
  528POPE   D2A 6407   4.732  11.493   5.242                        
  528POPE   C3A 6408   4.727  11.532   5.561                        
  528POPE   C4A 6409   4.730  11.489   5.855                        
  528POPE   C1B 6410   4.843  11.291   4.951                        
  528POPE   C2B 6411   4.851  11.273   5.237                        
  528POPE   C3B 6412   4.863  11.284   5.562                        
  528POPE   C4B 6413   4.847  11.279   5.871                        
  529POPE   NH3 6414   4.732  12.062   4.074                        
  529POPE   PO4 6415   4.730  12.044   4.356                        
  529POPE   GL1 6416   4.702  12.059   4.670                        
  529POPE   GL2 6417   4.820  12.116   4.646                        
  529POPE   C1A 6418   4.709  12.056   4.950                        
  529POPE   D2A 6419   4.702  12.074   5.264                        
  529POPE   C3A 6420   4.732  12.071   5.540                        
  529POPE   C4A 6421   4.733  12.039   5.830                        
  529POPE   C1B 6422   4.893  12.234   4.962                        
  529POPE   C2B 6423   4.907  12.246   5.240                        
  529POPE   C3B 6424   4.879  12.226   5.574                        
  529POPE   C4B 6425   4.892  12.232   5.853                        
  530POPE   NH3 6426   5.669   0.388   4.046                        
  530POPE   PO4 6427   5.647   0.399   4.374                        
  530POPE   GL1 6428   5.688   0.424   4.636                        
  530POPE   GL2 6429   5.525   0.372   4.663                        
  530POPE   C1A 6430   5.648   0.399   4.938                        
  530POPE   D2A 6431   5.670   0.395   5.263                        
  530POPE   C3A 6432   5.657   0.413   5.535                        
  530POPE   C4A 6433   5.668   0.383   5.855                        
  530POPE   C1B 6434   5.419   0.352   4.947                        
  530POPE   C2B 6435   5.421   0.335   5.240                        
  530POPE   C3B 6436   5.406   0.371   5.571                        
  530POPE   C4B 6437   5.407   0.337   5.826                        
  531POPE   NH3 6438   5.463   5.488   4.063                        
  531POPE   PO4 6439   5.428   5.474   4.364                        
  531POPE   GL1 6440   5.440   5.491   4.667                        
  531POPE   GL2 6441   5.575   5.551   4.651                        
  531POPE   C1A 6442   5.458   5.479   4.926                        
  531POPE   D2A 6443   5.468   5.501   5.247                        
  531POPE   C3A 6444   5.446   5.491   5.535                        
  531POPE   C4A 6445   5.472   5.508   5.864                        
  531POPE   C1B 6446   5.694   5.572   4.957                        
  531POPE   C2B 6447   5.656   5.595   5.237                        
  531POPE   C3B 6448   5.695   5.611   5.570                        
  531POPE   C4B 6449   5.694   5.582   5.869                        
  532POPE   NH3 6450   5.230   6.327   4.047                        
  532POPE   PO4 6451   5.230   6.323   4.373                        
  532POPE   GL1 6452   5.233   6.326   4.638                        
  532POPE   GL2 6453   5.371   6.347   4.635                        
  532POPE   C1A 6454   5.245   6.330   4.947                        
  532POPE   D2A 6455   5.243   6.343   5.272                        
  532POPE   C3A 6456   5.251   6.334   5.571                        
  532POPE   C4A 6457   5.260   6.340   5.869                        
  532POPE   C1B 6458   5.523   6.318   4.946                        
  532POPE   C2B 6459   5.508   6.320   5.227                        
  532POPE   C3B 6460   5.507   6.304   5.552                        
  532POPE   C4B 6461   5.498   6.342   5.839                        
  533POPE   NH3 6462   5.561   7.865   4.040                        
  533POPE   PO4 6463   5.575   7.853   4.340                        
  533POPE   GL1 6464   5.561   7.859   4.654                        
  533POPE   GL2 6465   5.555   7.741   4.656                        
  533POPE   C1A 6466   5.539   7.887   4.936                        
  533POPE   D2A 6467   5.560   7.880   5.274                        
  533POPE   C3A 6468   5.544   7.881   5.549                        
  533POPE   C4A 6469   5.551   7.882   5.871                        
  533POPE   C1B 6470   5.537   7.634   4.946                        
  533POPE   C2B 6471   5.530   7.618   5.240                        
  533POPE   C3B 6472   5.525   7.617   5.543                        
  533POPE   C4B 6473   5.551   7.597   5.831                        
  534POPE   NH3 6474   5.479  12.067   4.052                        
  534POPE   PO4 6475   5.483  12.035   4.367                        
  534POPE   GL1 6476   5.450  12.057   4.650                        
  534POPE   GL2 6477   5.533  12.153   4.661                        
  534POPE   C1A 6478   5.477  12.061   4.965                        
  534POPE   D2A 6479   5.456  12.054   5.268                        
  534POPE   C3A 6480   5.450  12.050   5.560                        
  534POPE   C4A 6481   5.479  12.025   5.859                        
  534POPE   C1B 6482   5.620  12.242   4.957                        
  534POPE   C2B 6483   5.582  12.279   5.229                        
  534POPE   C3B 6484   5.580  12.247   5.534                        
  534POPE   C4B 6485   5.609  12.255   5.828                        
  535POPE   NH3 6486   5.851   6.133   4.072                        
  535POPE   PO4 6487   5.861   6.143   4.350                        
  535POPE   GL1 6488   5.855   6.164   4.642                        
  535POPE   GL2 6489   6.010   6.123   4.627                        
  535POPE   C1A 6490   5.883   6.154   4.952                        
  535POPE   D2A 6491   5.882   6.147   5.237                        
  535POPE   C3A 6492   5.872   6.140   5.572                        
  535POPE   C4A 6493   5.874   6.130   5.835                        
  535POPE   C1B 6494   6.098   6.116   4.951                        
  535POPE   C2B 6495   6.135   6.085   5.246                        
  535POPE   C3B 6496   6.100   6.082   5.558                        
  535POPE   C4B 6497   6.109   6.114   5.859                        
  536POPE   NH3 6498   6.148   9.724   4.074                        
  536POPE   PO4 6499   6.137   9.741   4.355                        
  536POPE   GL1 6500   6.172   9.722   4.649                        
  536POPE   GL2 6501   6.283   9.663   4.673                        
  536POPE   C1A 6502   6.158   9.713   4.957                        
  536POPE   D2A 6503   6.169   9.702   5.256                        
  536POPE   C3A 6504   6.144   9.714   5.542                        
  536POPE   C4A 6505   6.149   9.710   5.861                        
  536POPE   C1B 6506   6.375   9.601   4.965                        
  536POPE   C2B 6507   6.357   9.621   5.248                        
  536POPE   C3B 6508   6.360   9.599   5.536                        
  536POPE   C4B 6509   6.358   9.589   5.874                        
  537POPE   NH3 6510   6.154  11.343   4.074                        
  537POPE   PO4 6511   6.160  11.337   4.356                        
  537POPE   GL1 6512   6.167  11.354   4.656                        
  537POPE   GL2 6513   6.229  11.250   4.637                        
  537POPE   C1A 6514   6.161  11.341   4.933                        
  537POPE   D2A 6515   6.168  11.330   5.265                        
  537POPE   C3A 6516   6.174  11.378   5.530                        
  537POPE   C4A 6517   6.160  11.348   5.845                        
  537POPE   C1B 6518   6.315  11.158   4.938                        
  537POPE   C2B 6519   6.311  11.174   5.239                        
  537POPE   C3B 6520   6.311  11.137   5.573                        
  537POPE   C4B 6521   6.311  11.153   5.869                        
  538POPE   NH3 6522   6.118  13.541   4.070                        
  538POPE   PO4 6523   6.147  13.571   4.353                        
  538POPE   GL1 6524   6.128  13.558   4.644                        
  538POPE   GL2 6525   6.252  13.638   4.641                        
  538POPE   C1A 6526   6.135  13.548   4.928                        
  538POPE   D2A 6527   6.121  13.575   5.245                        
  538POPE   C3A 6528   6.124  13.557   5.536                        
  538POPE   C4A 6529   6.118  13.563   5.831                        
  538POPE   C1B 6530   6.336  13.703   4.930                        
  538POPE   C2B 6531   6.306  13.672   5.252                        
  538POPE   C3B 6532   6.316  13.710   5.554                        
  538POPE   C4B 6533   6.317  13.678   5.854                        
  539POPE   NH3 6534   6.188   2.640   4.036                        
  539POPE   PO4 6535   6.175   2.640   4.343                        
  539POPE   GL1 6536   6.191   2.675   4.635                        
  539POPE   GL2 6537   6.289   2.693   4.655                        
  539POPE   C1A 6538   6.149   2.635   4.963                        
  539POPE   D2A 6539   6.153   2.665   5.232                        
  539POPE   C3A 6540   6.177   2.630   5.562                        
  539POPE   C4A 6541   6.182   2.657   5.870                        
  539POPE   C1B 6542   6.400   2.717   4.946                        
  539POPE   C2B 6543   6.428   2.709   5.270                        
  539POPE   C3B 6544   6.388   2.724   5.548                        
  539POPE   C4B 6545   6.399   2.703   5.844                        
  540POPE   NH3 6546   6.975   2.712   4.032                        
  540POPE   PO4 6547   6.965   2.707   4.336                        
  540POPE   GL1 6548   6.947   2.681   4.674                        
  540POPE   GL2 6549   6.963   2.587   4.637                        
  540POPE   C1A 6550   6.936   2.683   4.956                        
  540POPE   D2A 6551   6.979   2.686   5.263                        
  540POPE   C3A 6552   6.978   2.681   5.556                        
  540POPE   C4A 6553   6.954   2.681   5.836                        
  540POPE   C1B 6554   6.979   2.443   4.968                        
  540POPE   C2B 6555   7.011   2.440   5.267                        
  540POPE   C3B 6556   6.977   2.474   5.568                        
  540POPE   C4B 6557   7.023   2.439   5.871                        
  541POPE   NH3 6558   7.788   2.749   4.043                        
  541POPE   PO4 6559   7.781   2.741   4.334                        
  541POPE   GL1 6560   7.787   2.732   4.669                        
  541POPE   GL2 6561   7.640   2.674   4.668                        
  541POPE   C1A 6562   7.798   2.722   4.936                        
  541POPE   D2A 6563   7.770   2.708   5.234                        
  541POPE   C3A 6564   7.762   2.706   5.559                        
  541POPE   C4A 6565   7.778   2.704   5.868                        
  541POPE   C1B 6566   7.543   2.654   4.953                        
  541POPE   C2B 6567   7.563   2.692   5.226                        
  541POPE   C3B 6568   7.526   2.668   5.569                        
  541POPE   C4B 6569   7.564   2.687   5.828                        
  542POPE   NH3 6570   8.056   4.010   4.061                        
  542POPE   PO4 6571   8.046   4.016   4.368                        
  542POPE   GL1 6572   8.067   3.983   4.664                        
  542POPE   GL2 6573   8.012   3.901   4.633                        
  542POPE   C1A 6574   8.090   3.990   4.968                        
  542POPE   D2A 6575   8.045   4.001   5.265                        
  542POPE   C3A 6576   8.051   4.026   5.536                        
  542POPE   C4A 6577   8.045   3.982   5.846                        
  542POPE   C1B 6578   7.976   3.804   4.942                        
  542POPE   C2B 6579   7.970   3.791   5.230                        
  542POPE   C3B 6580   7.971   3.774   5.572                        
  542POPE   C4B 6581   7.967   3.778   5.845                        
  543POPE   NH3 6582   8.446   1.063   4.054                        
  543POPE   PO4 6583   8.446   1.053   4.371                        
  543POPE   GL1 6584   8.463   1.060   4.635                        
  543POPE   GL2 6585   8.577   1.058   4.661                        
  543POPE   C1A 6586   8.439   1.092   4.942                        
  543POPE   D2A 6587   8.440   1.052   5.245                        
  543POPE   C3A 6588   8.435   1.060   5.556                        
  543POPE   C4A 6589   8.429   1.050   5.835                        
  543POPE   C1B 6590   8.705   1.071   4.964                        
  543POPE   C2B 6591   8.701   1.063   5.273                        
  543POPE   C3B 6592   8.675   1.074   5.525                        
  543POPE   C4B 6593   8.705   1.079   5.865                        
  544POPE   NH3 6594   8.657   1.804   4.043                        
  544POPE   PO4 6595   8.674   1.800   4.340                        
  544POPE   GL1 6596   8.689   1.808   4.666                        
  544POPE   GL2 6597   8.576   1.774   4.631                        
  544POPE   C1A 6598   8.681   1.810   4.936                        
  544POPE   D2A 6599   8.649   1.833   5.244                        
  544POPE   C3A 6600   8.662   1.844   5.546                        
  544POPE   C4A 6601   8.648   1.839   5.864                        
  544POPE   C1B 6602   8.445   1.717   4.952                        
  544POPE   C2B 6603   8.441   1.708   5.254                        
  544POPE   C3B 6604   8.444   1.717   5.527                        
  544POPE   C4B 6605   8.442   1.686   5.838                        
  545POPE   NH3 6606   8.390   4.319   4.062                        
  545POPE   PO4 6607   8.392   4.317   4.328                        
  545POPE   GL1 6608   8.412   4.334   4.645                        
  545POPE   GL2 6609   8.533   4.322   4.659                        
  545POPE   C1A 6610   8.394   4.332   4.965                        
  545POPE   D2A 6611   8.430   4.302   5.256                        
  545POPE   C3A 6612   8.403   4.294   5.564                        
  545POPE   C4A 6613   8.397   4.291   5.855                        
  545POPE   C1B 6614   8.642   4.359   4.940                        
  545POPE   C2B 6615   8.650   4.383   5.264                        
  545POPE   C3B 6616   8.655   4.369   5.545                        
  545POPE   C4B 6617   8.680   4.341   5.826                        
  546POPE   NH3 6618   8.639   6.736   4.052                        
  546POPE   PO4 6619   8.643   6.753   4.347                        
  546POPE   GL1 6620   8.633   6.779   4.665                        
  546POPE   GL2 6621   8.532   6.701   4.658                        
  546POPE   C1A 6622   8.632   6.749   4.958                        
  546POPE   D2A 6623   8.671   6.739   5.244                        
  546POPE   C3A 6624   8.637   6.741   5.570                        
  546POPE   C4A 6625   8.632   6.731   5.861                        
  546POPE   C1B 6626   8.420   6.685   4.965                        
  546POPE   C2B 6627   8.425   6.685   5.263                        
  546POPE   C3B 6628   8.404   6.712   5.538                        
  546POPE   C4B 6629   8.416   6.683   5.844                        
  547POPE   NH3 6630   8.569  11.188   4.051                        
  547POPE   PO4 6631   8.575  11.187   4.336                        
  547POPE   GL1 6632   8.594  11.188   4.661                        
  547POPE   GL2 6633   8.476  11.114   4.641                        
  547POPE   C1A 6634   8.581  11.168   4.932                        
  547POPE   D2A 6635   8.580  11.209   5.238                        
  547POPE   C3A 6636   8.591  11.168   5.568                        
  547POPE   C4A 6637   8.572  11.195   5.831                        
  547POPE   C1B 6638   8.363  11.079   4.962                        
  547POPE   C2B 6639   8.378  11.070   5.272                        
  547POPE   C3B 6640   8.360  11.072   5.526                        
  547POPE   C4B 6641   8.358  11.045   5.840                        
  548POPE   NH3 6642   7.994  11.546   4.072                        
  548POPE   PO4 6643   8.002  11.543   4.340                        
  548POPE   GL1 6644   8.019  11.548   4.658                        
  548POPE   GL2 6645   8.086  11.614   4.632                        
  548POPE   C1A 6646   8.009  11.543   4.963                        
  548POPE   D2A 6647   8.038  11.542   5.233                        
  548POPE   C3A 6648   8.041  11.535   5.531                        
  548POPE   C4A 6649   7.999  11.502   5.840                        
  548POPE   C1B 6650   8.199  11.689   4.974                        
  548POPE   C2B 6651   8.172  11.694   5.248                        
  548POPE   C3B 6652   8.187  11.692   5.553                        
  548POPE   C4B 6653   8.193  11.700   5.828                        
  549POPE   NH3 6654   9.156   0.976   4.037                        
  549POPE   PO4 6655   9.162   0.998   4.346                        
  549POPE   GL1 6656   9.150   0.998   4.663                        
  549POPE   GL2 6657   9.261   1.036   4.641                        
  549POPE   C1A 6658   9.135   1.001   4.931                        
  549POPE   D2A 6659   9.129   0.979   5.272                        
  549POPE   C3A 6660   9.146   0.983   5.550                        
  549POPE   C4A 6661   9.127   0.979   5.825                        
  549POPE   C1B 6662   9.394   1.062   4.963                        
  549POPE   C2B 6663   9.408   1.072   5.265                        
  549POPE   C3B 6664   9.364   1.071   5.572                        
  549POPE   C4B 6665   9.405   1.063   5.868                        
  550POPE   NH3 6666   9.353   4.138   4.032                        
  550POPE   PO4 6667   9.320   4.121   4.356                        
  550POPE   GL1 6668   9.311   4.143   4.654                        
  550POPE   GL2 6669   9.266   4.226   4.672                        
  550POPE   C1A 6670   9.337   4.170   4.948                        
  550POPE   D2A 6671   9.312   4.160   5.234                        
  550POPE   C3A 6672   9.332   4.142   5.551                        
  550POPE   C4A 6673   9.325   4.128   5.865                        
  550POPE   C1B 6674   9.132   4.323   4.957                        
  550POPE   C2B 6675   9.171   4.323   5.233                        
  550POPE   C3B 6676   9.165   4.304   5.550                        
  550POPE   C4B 6677   9.148   4.306   5.859                        
  551POPE   NH3 6678   9.090   8.035   4.030                        
  551POPE   PO4 6679   9.090   8.038   4.374                        
  551POPE   GL1 6680   9.075   8.020   4.635                        
  551POPE   GL2 6681   9.151   8.138   4.674                        
  551POPE   C1A 6682   9.072   8.006   4.943                        
  551POPE   D2A 6683   9.108   8.010   5.266                        
  551POPE   C3A 6684   9.066   8.014   5.569                        
  551POPE   C4A 6685   9.058   8.011   5.850                        
  551POPE   C1B 6686   9.247   8.208   4.973                        
  551POPE   C2B 6687   9.223   8.191   5.240                        
  551POPE   C3B 6688   9.234   8.207   5.544                        
  551POPE   C4B 6689   9.265   8.238   5.850                        
  552POPE   NH3 6690   9.127   8.998   4.030                        
  552POPE   PO4 6691   9.135   8.988   4.350                        
  552POPE   GL1 6692   9.143   8.996   4.655                        
  552POPE   GL2 6693   9.161   8.848   4.674                        
  552POPE   C1A 6694   9.129   8.953   4.973                        
  552POPE   D2A 6695   9.127   8.992   5.271                        
  552POPE   C3A 6696   9.139   8.980   5.572                        
  552POPE   C4A 6697   9.096   8.987   5.860                        
  552POPE   C1B 6698   9.220   8.769   4.970                        
  552POPE   C2B 6699   9.242   8.738   5.239                        
  552POPE   C3B 6700   9.237   8.764   5.543                        
  552POPE   C4B 6701   9.221   8.758   5.834                        
  553POPE   NH3 6702   9.942   4.328   4.067                        
  553POPE   PO4 6703   9.958   4.361   4.343                        
  553POPE   GL1 6704   9.961   4.341   4.646                        
  553POPE   GL2 6705   9.953   4.447   4.673                        
  553POPE   C1A 6706   9.934   4.332   4.928                        
  553POPE   D2A 6707   9.929   4.346   5.254                        
  553POPE   C3A 6708   9.950   4.347   5.557                        
  553POPE   C4A 6709   9.956   4.338   5.840                        
  553POPE   C1B 6710   9.907   4.585   4.953                        
  553POPE   C2B 6711   9.936   4.604   5.229                        
  553POPE   C3B 6712   9.918   4.597   5.534                        
  553POPE   C4B 6713   9.925   4.594   5.857                        
  554POPE   NH3 6714   9.914   7.263   4.056                        
  554POPE   PO4 6715   9.943   7.256   4.336                        
  554POPE   GL1 6716   9.915   7.242   4.663                        
  554POPE   GL2 6717   9.922   7.360   4.634                        
  554POPE   C1A 6718   9.940   7.277   4.928                        
  554POPE   D2A 6719   9.935   7.248   5.226                        
  554POPE   C3A 6720   9.905   7.255   5.566                        
  554POPE   C4A 6721   9.915   7.250   5.837                        
  554POPE   C1B 6722   9.967   7.501   4.972                        
  554POPE   C2B 6723   9.964   7.526   5.247                        
  554POPE   C3B 6724   9.936   7.523   5.542                        
  554POPE   C4B 6725   9.952   7.505   5.850                        
  555POPE   NH3 6726  10.497  12.444   4.052                        
  555POPE   PO4 6727  10.477  12.452   4.375                        
  555POPE   GL1 6728  10.484  12.424   4.656                        
  555POPE   GL2 6729  10.378  12.393   4.640                        
  555POPE   C1A 6730  10.459  12.453   4.932                        
  555POPE   D2A 6731  10.474  12.450   5.254                        
  555POPE   C3A 6732  10.498  12.442   5.562                        
  555POPE   C4A 6733  10.458  12.412   5.829                        
  555POPE   C1B 6734  10.250  12.357   4.950                        
  555POPE   C2B 6735  10.249  12.335   5.273                        
  555POPE   C3B 6736  10.240  12.352   5.541                        
  555POPE   C4B 6737  10.234  12.354   5.847                        
  556POPE   NH3 6738  10.704   4.976   4.055                        
  556POPE   PO4 6739  10.658   4.988   4.328                        
  556POPE   GL1 6740  10.706   5.007   4.660                        
  556POPE   GL2 6741  10.714   5.095   4.658                        
  556POPE   C1A 6742  10.666   4.962   4.926                        
  556POPE   D2A 6743  10.671   5.001   5.250                        
  556POPE   C3A 6744  10.685   4.961   5.532                        
  556POPE   C4A 6745  10.700   4.971   5.854                        
  556POPE   C1B 6746  10.700   5.250   4.955                        
  556POPE   C2B 6747  10.712   5.215   5.245                        
  556POPE   C3B 6748  10.717   5.254   5.538                        
  556POPE   C4B 6749  10.679   5.210   5.834                        
  557POPE   NH3 6750  10.747   5.856   4.067                        
  557POPE   PO4 6751  10.752   5.870   4.342                        
  557POPE   GL1 6752  10.757   5.836   4.657                        
  557POPE   GL2 6753  10.642   5.904   4.658                        
  557POPE   C1A 6754  10.742   5.845   4.947                        
  557POPE   D2A 6755  10.754   5.845   5.265                        
  557POPE   C3A 6756  10.761   5.845   5.570                        
  557POPE   C4A 6757  10.760   5.874   5.864                        
  557POPE   C1B 6758  10.542   5.911   4.963                        
  557POPE   C2B 6759  10.515   5.938   5.257                        
  557POPE   C3B 6760  10.502   5.910   5.563                        
  557POPE   C4B 6761  10.543   5.902   5.841                        
  558POPE   NH3 6762  10.745  12.038   4.038                        
  558POPE   PO4 6763  10.738  12.042   4.333                        
  558POPE   GL1 6764  10.768  12.023   4.646                        
  558POPE   GL2 6765  10.777  11.905   4.636                        
  558POPE   C1A 6766  10.753  12.025   4.967                        
  558POPE   D2A 6767  10.752  12.018   5.260                        
  558POPE   C3A 6768  10.742  12.032   5.572                        
  558POPE   C4A 6769  10.747  12.028   5.869                        
  558POPE   C1B 6770  10.822  11.788   4.965                        
  558POPE   C2B 6771  10.832  11.798   5.226                        
  558POPE   C3B 6772  10.833  11.784   5.541                        
  558POPE   C4B 6773  10.824  11.801   5.856                        
  559POPE   NH3 6774  11.362   7.208   4.052                        
  559POPE   PO4 6775  11.352   7.228   4.355                        
  559POPE   GL1 6776  11.384   7.208   4.662                        
  559POPE   GL2 6777  11.366   7.340   4.653                        
  559POPE   C1A 6778  11.393   7.205   4.935                        
  559POPE   D2A 6779  11.359   7.227   5.240                        
  559POPE   C3A 6780  11.386   7.191   5.558                        
  559POPE   C4A 6781  11.359   7.219   5.835                        
  559POPE   C1B 6782  11.400   7.469   4.927                        
  559POPE   C2B 6783  11.398   7.473   5.262                        
  559POPE   C3B 6784  11.392   7.439   5.551                        
  559POPE   C4B 6785  11.414   7.441   5.845                        
  560POPE   NH3 6786  11.209   9.058   4.069                        
  560POPE   PO4 6787  11.175   9.062   4.359                        
  560POPE   GL1 6788  11.173   9.073   4.648                        
  560POPE   GL2 6789  11.235   8.966   4.640                        
  560POPE   C1A 6790  11.177   9.063   4.931                        
  560POPE   D2A 6791  11.215   9.103   5.231                        
  560POPE   C3A 6792  11.187   9.091   5.535                        
  560POPE   C4A 6793  11.209   9.069   5.866                        
  560POPE   C1B 6794  11.241   8.851   4.958                        
  560POPE   C2B 6795  11.257   8.844   5.274                        
  560POPE   C3B 6796  11.275   8.841   5.547                        
  560POPE   C4B 6797  11.249   8.830   5.862                        
  561POPE   NH3 6798  11.306   9.627   4.028                        
  561POPE   PO4 6799  11.322   9.618   4.361                        
  561POPE   GL1 6800  11.348   9.597   4.626                        
  561POPE   GL2 6801  11.185   9.678   4.649                        
  561POPE   C1A 6802  11.347   9.599   4.966                        
  561POPE   D2A 6803  11.347   9.619   5.239                        
  561POPE   C3A 6804  11.319   9.629   5.570                        
  561POPE   C4A 6805  11.341   9.618   5.856                        
  561POPE   C1B 6806  11.074   9.689   4.973                        
  561POPE   C2B 6807  11.081   9.697   5.272                        
  561POPE   C3B 6808  11.086   9.697   5.526                        
  561POPE   C4B 6809  11.108   9.705   5.865                        
  562POPE   NH3 6810  11.268  11.241   4.063                        
  562POPE   PO4 6811  11.264  11.240   4.374                        
  562POPE   GL1 6812  11.297  11.254   4.645                        
  562POPE   GL2 6813  11.405  11.310   4.636                        
  562POPE   C1A 6814  11.297  11.241   4.941                        
  562POPE   D2A 6815  11.300  11.232   5.242                        
  562POPE   C3A 6816  11.300  11.221   5.557                        
  562POPE   C4A 6817  11.295  11.247   5.826                        
  562POPE   C1B 6818  11.521  11.368   4.969                        
  562POPE   C2B 6819  11.503  11.370   5.251                        
  562POPE   C3B 6820  11.502  11.354   5.550                        
  562POPE   C4B 6821  11.497  11.380   5.826                        
  563POPE   NH3 6822  11.613  10.013   4.050                        
  563POPE   PO4 6823  11.607  10.004   4.370                        
  563POPE   GL1 6824  11.626  10.010   4.662                        
  563POPE   GL2 6825  11.728  10.041   4.640                        
  563POPE   C1A 6826  11.626   9.997   4.973                        
  563POPE   D2A 6827  11.610  10.015   5.260                        
  563POPE   C3A 6828  11.588  10.007   5.552                        
  563POPE   C4A 6829  11.591  10.012   5.839                        
  563POPE   C1B 6830  11.869  10.027   4.973                        
  563POPE   C2B 6831  11.844  10.009   5.245                        
  563POPE   C3B 6832  11.836  10.009   5.551                        
  563POPE   C4B 6833  11.879  10.001   5.859                        
  564POPE   NH3 6834  12.062  13.623   4.064                        
  564POPE   PO4 6835  12.084  13.644   4.330                        
  564POPE   GL1 6836  12.080  13.622   4.674                        
  564POPE   GL2 6837  12.189  13.608   4.640                        
  564POPE   C1A 6838  12.060  13.615   4.960                        
  564POPE   D2A 6839  12.065  13.608   5.229                        
  564POPE   C3A 6840  12.094  13.639   5.540                        
  564POPE   C4A 6841  12.062  13.621   5.844                        
  564POPE   C1B 6842  12.336  13.570   4.941                        
  564POPE   C2B 6843  12.336  13.533   5.269                        
  564POPE   C3B 6844  12.294  13.530   5.557                        
  564POPE   C4B 6845  12.321  13.532   5.849                        
  565POPE   NH3 6846  12.443   2.078   4.025                        
  565POPE   PO4 6847  12.433   2.061   4.330                        
  565POPE   GL1 6848  12.465   2.092   4.658                        
  565POPE   GL2 6849  12.305   2.084   4.674                        
  565POPE   C1A 6850  12.471   2.073   4.943                        
  565POPE   D2A 6851  12.435   2.090   5.256                        
  565POPE   C3A 6852  12.430   2.085   5.556                        
  565POPE   C4A 6853  12.460   2.057   5.840                        
  565POPE   C1B 6854  12.225   2.122   4.926                        
  565POPE   C2B 6855  12.196   2.137   5.266                        
  565POPE   C3B 6856  12.184   2.113   5.532                        
  565POPE   C4B 6857  12.200   2.115   5.826                        
  566POPE   NH3 6858  12.287   2.772   4.030                        
  566POPE   PO4 6859  12.279   2.808   4.374                        
  566POPE   GL1 6860  12.306   2.810   4.658                        
  566POPE   GL2 6861  12.208   2.892   4.626                        
  566POPE   C1A 6862  12.293   2.800   4.940                        
  566POPE   D2A 6863  12.320   2.793   5.263                        
  566POPE   C3A 6864  12.312   2.767   5.542                        
  566POPE   C4A 6865  12.273   2.794   5.855                        
  566POPE   C1B 6866  12.163   2.997   4.937                        
  566POPE   C2B 6867  12.171   2.971   5.275                        
  566POPE   C3B 6868  12.170   3.016   5.537                        
  566POPE   C4B 6869  12.176   2.982   5.839                        
  567POPE   NH3 6870  12.166   3.485   4.061                        
  567POPE   PO4 6871  12.159   3.496   4.330                        
  567POPE   GL1 6872  12.170   3.505   4.632                        
  567POPE   GL2 6873  12.130   3.602   4.671                        
  567POPE   C1A 6874  12.137   3.470   4.958                        
  567POPE   D2A 6875  12.161   3.507   5.237                        
  567POPE   C3A 6876  12.176   3.490   5.529                        
  567POPE   C4A 6877  12.150   3.474   5.865                        
  567POPE   C1B 6878  12.144   3.733   4.926                        
  567POPE   C2B 6879  12.137   3.748   5.272                        
  567POPE   C3B 6880  12.130   3.735   5.560                        
  567POPE   C4B 6881  12.135   3.718   5.864                        
  568POPE   NH3 6882  12.283   4.344   4.059                        
  568POPE   PO4 6883  12.237   4.363   4.369                        
  568POPE   GL1 6884  12.270   4.375   4.644                        
  568POPE   GL2 6885  12.152   4.392   4.651                        
  568POPE   C1A 6886  12.270   4.355   4.944                        
  568POPE   D2A 6887  12.270   4.363   5.227                        
  568POPE   C3A 6888  12.270   4.367   5.569                        
  568POPE   C4A 6889  12.255   4.385   5.837                        
  568POPE   C1B 6890  12.003   4.421   4.970                        
  568POPE   C2B 6891  12.007   4.435   5.230                        
  568POPE   C3B 6892  12.036   4.447   5.563                        
  568POPE   C4B 6893  12.000   4.428   5.855                        
  569POPE   NH3 6894  12.043   7.503   4.035                        
  569POPE   PO4 6895  12.033   7.479   4.345                        
  569POPE   GL1 6896  12.026   7.511   4.626                        
  569POPE   GL2 6897  12.144   7.438   4.636                        
  569POPE   C1A 6898  12.051   7.479   4.928                        
  569POPE   D2A 6899  12.048   7.484   5.245                        
  569POPE   C3A 6900  12.027   7.493   5.545                        
  569POPE   C4A 6901  12.065   7.502   5.870                        
  569POPE   C1B 6902  12.287   7.429   4.935                        
  569POPE   C2B 6903  12.282   7.436   5.259                        
  569POPE   C3B 6904  12.303   7.460   5.568                        
  569POPE   C4B 6905  12.303   7.422   5.868                        
  570POPE   NH3 6906  12.795  12.808   4.074                        
  570POPE   PO4 6907  12.801  12.838   4.333                        
  570POPE   GL1 6908  12.758  12.821   4.629                        
  570POPE   GL2 6909  12.920  12.791   4.661                        
  570POPE   C1A 6910  12.787  12.796   4.943                        
  570POPE   D2A 6911  12.786  12.794   5.270                        
  570POPE   C3A 6912  12.796  12.801   5.569                        
  570POPE   C4A 6913  12.760  12.832   5.854                        
  570POPE   C1B 6914  13.018  12.738   4.927                        
  570POPE   C2B 6915  13.029  12.743   5.252                        
  570POPE   C3B 6916  13.027  12.737   5.541                        
  570POPE   C4B 6917  13.034  12.741   5.835                        
  571POPE   NH3 6918  12.464   6.184   4.050                        
  571POPE   PO4 6919  12.485   6.201   4.355                        
  571POPE   GL1 6920  12.487   6.192   4.670                        
  571POPE   GL2 6921  12.584   6.124   4.630                        
  571POPE   C1A 6922  12.509   6.194   4.966                        
  571POPE   D2A 6923  12.489   6.192   5.265                        
  571POPE   C3A 6924  12.496   6.225   5.562                        
  571POPE   C4A 6925  12.492   6.217   5.832                        
  571POPE   C1B 6926  12.675   6.033   4.944                        
  571POPE   C2B 6927  12.663   6.041   5.272                        
  571POPE   C3B 6928  12.628   6.034   5.527                        
  571POPE   C4B 6929  12.661   6.027   5.860                        
  572POPE   NH3 6930  12.860   6.679   4.057                        
  572POPE   PO4 6931  12.859   6.640   4.356                        
  572POPE   GL1 6932  12.879   6.667   4.632                        
  572POPE   GL2 6933  12.979   6.676   4.639                        
  572POPE   C1A 6934  12.850   6.662   4.974                        
  572POPE   D2A 6935  12.871   6.651   5.241                        
  572POPE   C3A 6936  12.839   6.660   5.546                        
  572POPE   C4A 6937  12.837   6.649   5.826                        
  572POPE   C1B 6938  13.083   6.723   4.949                        
  572POPE   C2B 6939  13.112   6.745   5.250                        
  572POPE   C3B 6940  13.100   6.730   5.537                        
  572POPE   C4B 6941  13.111   6.713   5.871                        
  573POPE   NH3 6942  13.575   2.093   4.064                        
  573POPE   PO4 6943  13.585   2.075   4.356                        
  573POPE   GL1 6944  13.591   2.100   4.672                        
  573POPE   GL2 6945  13.607   1.976   4.663                        
  573POPE   C1A 6946  13.561   2.090   4.941                        
  573POPE   D2A 6947  13.591   2.082   5.229                        
  573POPE   C3A 6948  13.571   2.061   5.532                        
  573POPE   C4A 6949  13.561   2.103   5.832                        
  573POPE   C1B 6950  13.697   1.875   4.933                        
  573POPE   C2B 6951  13.650   1.835   5.236                        
  573POPE   C3B 6952  13.660   1.839   5.558                        
  573POPE   C4B 6953  13.675   1.841   5.861                        
  574POPE   NH3 6954  13.662   3.326   4.036                        
  574POPE   PO4 6955  13.660   3.332   4.352                        
  574POPE   GL1 6956  13.677   3.342   4.673                        
  574POPE   GL2 6957  13.644   3.431   4.636                        
  574POPE   C1A 6958  13.650   3.327   4.957                        
  574POPE   D2A 6959  13.632   3.333   5.245                        
  574POPE   C3A 6960  13.676   3.347   5.570                        
  574POPE   C4A 6961  13.656   3.316   5.865                        
  574POPE   C1B 6962  13.603   3.565   4.949                        
  574POPE   C2B 6963  13.574   3.564   5.230                        
  574POPE   C3B 6964  13.591   3.577   5.557                        
  574POPE   C4B 6965  13.604   3.557   5.872                        
  575POPG   GL0 6966   0.319   3.552   4.039                        
  575POPG   PO4 6967   0.334   3.516   4.345                        
  575POPG   GL1 6968   0.317   3.509   4.644                        
  575POPG   GL2 6969   0.385   3.643   4.664                        
  575POPG   C1A 6970   0.320   3.538   4.927                        
  575POPG   D2A 6971   0.340   3.514   5.256                        
  575POPG   C3A 6972   0.310   3.521   5.527                        
  575POPG   C4A 6973   0.317   3.508   5.837                        
  575POPG   C1B 6974   0.427   3.763   4.965                        
  575POPG   C2B 6975   0.438   3.748   5.246                        
  575POPG   C3B 6976   0.445   3.767   5.527                        
  575POPG   C4B 6977   0.447   3.770   5.860                        
  576POPG   GL0 6978   0.302  10.379   4.055                        
  576POPG   PO4 6979   0.296  10.368   4.353                        
  576POPG   GL1 6980   0.275  10.372   4.651                        
  576POPG   GL2 6981   0.408  10.435   4.663                        
  576POPG   C1A 6982   0.302  10.389   4.948                        
  576POPG   D2A 6983   0.273  10.394   5.269                        
  576POPG   C3A 6984   0.287  10.357   5.539                        
  576POPG   C4A 6985   0.290  10.373   5.832                        
  576POPG   C1B 6986   0.478  10.536   4.932                        
  576POPG   C2B 6987   0.489  10.544   5.254                        
  576POPG   C3B 6988   0.493  10.538   5.555                        
  576POPG   C4B 6989   0.486  10.521   5.860                        
  577POPG   GL0 6990   0.506  12.888   4.030                        
  577POPG   PO4 6991   0.492  12.863   4.356                        
  577POPG   GL1 6992   0.518  12.864   4.627                        
  577POPG   GL2 6993   0.370  12.837   4.663                        
  577POPG   C1A 6994   0.510  12.840   4.936                        
  577POPG   D2A 6995   0.498  12.847   5.231                        
  577POPG   C3A 6996   0.514  12.839   5.563                        
  577POPG   C4A 6997   0.477  12.860   5.828                        
  577POPG   C1B 6998   0.269  12.797   4.930                        
  577POPG   C2B 6999   0.260  12.796   5.242                        
  577POPG   C3B 7000   0.274  12.812   5.531                        
  577POPG   C4B 7001   0.259  12.774   5.857                        
  578POPG   GL0 7002   1.208   2.719   4.050                        
  578POPG   PO4 7003   1.222   2.727   4.344                        
  578POPG   GL1 7004   1.217   2.700   4.663                        
  578POPG   GL2 7005   1.331   2.645   4.633                        
  578POPG   C1A 7006   1.192   2.700   4.948                        
  578POPG   D2A 7007   1.195   2.705   5.244                        
  578POPG   C3A 7008   1.187   2.683   5.563                        
  578POPG   C4A 7009   1.231   2.732   5.857                        
  578POPG   C1B 7010   1.445   2.597   4.938                        
  578POPG   C2B 7011   1.438   2.617   5.232                        
  578POPG   C3B 7012   1.434   2.579   5.550                        
  578POPG   C4B 7013   1.409   2.607   5.849                        
  579POPG   GL0 7014   1.141   3.075   4.054                        
  579POPG   PO4 7015   1.150   3.038   4.332                        
  579POPG   GL1 7016   1.151   3.056   4.637                        
  579POPG   GL2 7017   1.047   3.127   4.626                        
  579POPG   C1A 7018   1.148   3.053   4.935                        
  579POPG   D2A 7019   1.137   3.063   5.229                        
  579POPG   C3A 7020   1.147   3.033   5.543                        
  579POPG   C4A 7021   1.111   3.029   5.853                        
  579POPG   C1B 7022   0.974   3.239   4.968                        
  579POPG   C2B 7023   0.945   3.230   5.243                        
  579POPG   C3B 7024   0.948   3.254   5.551                        
  579POPG   C4B 7025   0.987   3.245   5.841                        
  580POPG   GL0 7026   1.206   8.277   4.072                        
  580POPG   PO4 7027   1.228   8.313   4.357                        
  580POPG   GL1 7028   1.231   8.300   4.666                        
  580POPG   GL2 7029   1.108   8.200   4.666                        
  580POPG   C1A 7030   1.231   8.292   4.958                        
  580POPG   D2A 7031   1.193   8.305   5.246                        
  580POPG   C3A 7032   1.200   8.275   5.544                        
  580POPG   C4A 7033   1.216   8.310   5.838                        
  580POPG   C1B 7034   1.034   8.107   4.958                        
  580POPG   C2B 7035   1.014   8.116   5.235                        
  580POPG   C3B 7036   1.021   8.120   5.552                        
  580POPG   C4B 7037   1.052   8.100   5.867                        
  581POPG   GL0 7038   1.130  10.412   4.061                        
  581POPG   PO4 7039   1.134  10.382   4.375                        
  581POPG   GL1 7040   1.137  10.400   4.647                        
  581POPG   GL2 7041   1.138  10.521   4.672                        
  581POPG   C1A 7042   1.125  10.378   4.962                        
  581POPG   D2A 7043   1.143  10.412   5.265                        
  581POPG   C3A 7044   1.117  10.383   5.533                        
  581POPG   C4A 7045   1.132  10.415   5.841                        
  581POPG   C1B 7046   1.139  10.669   4.962                        
  581POPG   C2B 7047   1.105  10.654   5.251                        
  581POPG   C3B 7048   1.097  10.642   5.549                        
  581POPG   C4B 7049   1.132  10.628   5.841                        
  582POPG   GL0 7050   1.804   3.326   4.050                        
  582POPG   PO4 7051   1.765   3.284   4.345                        
  582POPG   GL1 7052   1.759   3.320   4.647                        
  582POPG   GL2 7053   1.804   3.162   4.626                        
  582POPG   C1A 7054   1.794   3.295   4.968                        
  582POPG   D2A 7055   1.768   3.278   5.258                        
  582POPG   C3A 7056   1.794   3.281   5.572                        
  582POPG   C4A 7057   1.786   3.287   5.828                        
  582POPG   C1B 7058   1.849   3.048   4.953                        
  582POPG   C2B 7059   1.848   3.048   5.249                        
  582POPG   C3B 7060   1.877   3.089   5.529                        
  582POPG   C4B 7061   1.885   3.054   5.867                        
  583POPG   GL0 7062   1.816   7.501   4.054                        
  583POPG   PO4 7063   1.798   7.485   4.356                        
  583POPG   GL1 7064   1.835   7.505   4.644                        
  583POPG   GL2 7065   1.880   7.633   4.625                        
  583POPG   C1A 7066   1.825   7.524   4.939                        
  583POPG   D2A 7067   1.821   7.494   5.260                        
  583POPG   C3A 7068   1.812   7.513   5.568                        
  583POPG   C4A 7069   1.838   7.491   5.833                        
  583POPG   C1B 7070   1.908   7.724   4.926                        
  583POPG   C2B 7071   1.927   7.742   5.247                        
  583POPG   C3B 7072   1.897   7.742   5.546                        
  583POPG   C4B 7073   1.921   7.723   5.853                        
  584POPG   GL0 7074   1.955  12.933   4.034                        
  584POPG   PO4 7075   1.962  12.939   4.350                        
  584POPG   GL1 7076   1.944  12.932   4.627                        
  584POPG   GL2 7077   1.841  12.856   4.660                        
  584POPG   C1A 7078   1.939  12.947   4.932                        
  584POPG   D2A 7079   1.949  12.931   5.256                        
  584POPG   C3A 7080   1.960  12.952   5.551                        
  584POPG   C4A 7081   1.951  12.928   5.874                        
  584POPG   C1B 7082   1.772  12.771   4.948                        
  584POPG   C2B 7083   1.790  12.797   5.236                        
  584POPG   C3B 7084   1.779  12.792   5.575                        
  584POPG   C4B 7085   1.780  12.784   5.860                        
  585POPG   GL0 7086   2.305   6.383   4.058                        
  585POPG   PO4 7087   2.308   6.384   4.328                        
  585POPG   GL1 7088   2.337   6.367   4.649                        
  585POPG   GL2 7089   2.416   6.338   4.635                        
  585POPG   C1A 7090   2.295   6.356   4.934                        
  585POPG   D2A 7091   2.315   6.389   5.236                        
  585POPG   C3A 7092   2.305   6.403   5.565                        
  585POPG   C4A 7093   2.338   6.402   5.864                        
  585POPG   C1B 7094   2.558   6.324   4.968                        
  585POPG   C2B 7095   2.544   6.331   5.227                        
  585POPG   C3B 7096   2.537   6.334   5.571                        
  585POPG   C4B 7097   2.563   6.335   5.870                        
  586POPG   GL0 7098   2.471  11.394   4.047                        
  586POPG   PO4 7099   2.459  11.388   4.345                        
  586POPG   GL1 7100   2.467  11.363   4.667                        
  586POPG   GL2 7101   2.577  11.361   4.646                        
  586POPG   C1A 7102   2.478  11.389   4.972                        
  586POPG   D2A 7103   2.477  11.373   5.225                        
  586POPG   C3A 7104   2.490  11.367   5.556                        
  586POPG   C4A 7105   2.472  11.368   5.846                        
  586POPG   C1B 7106   2.695  11.320   4.930                        
  586POPG   C2B 7107   2.728  11.278   5.258                        
  586POPG   C3B 7108   2.720  11.316   5.554                        
  586POPG   C4B 7109   2.728  11.285   5.859                        
  587POPG   GL0 7110   2.553  12.739   4.066                        
  587POPG   PO4 7111   2.525  12.772   4.330                        
  587POPG   GL1 7112   2.520  12.772   4.628                        
  587POPG   GL2 7113   2.586  12.869   4.629                        
  587POPG   C1A 7114   2.553  12.739   4.931                        
  587POPG   D2A 7115   2.527  12.742   5.256                        
  587POPG   C3A 7116   2.518  12.766   5.569                        
  587POPG   C4A 7117   2.523  12.732   5.843                        
  587POPG   C1B 7118   2.660  12.964   4.928                        
  587POPG   C2B 7119   2.643  12.959   5.235                        
  587POPG   C3B 7120   2.680  12.982   5.550                        
  587POPG   C4B 7121   2.670  12.985   5.866                        
  588POPG   GL0 7122   3.289   7.502   4.069                        
  588POPG   PO4 7123   3.301   7.507   4.327                        
  588POPG   GL1 7124   3.323   7.514   4.655                        
  588POPG   GL2 7125   3.344   7.636   4.626                        
  588POPG   C1A 7126   3.295   7.517   4.966                        
  588POPG   D2A 7127   3.315   7.492   5.242                        
  588POPG   C3A 7128   3.321   7.514   5.575                        
  588POPG   C4A 7129   3.288   7.516   5.868                        
  588POPG   C1B 7130   3.369   7.767   4.941                        
  588POPG   C2B 7131   3.370   7.731   5.235                        
  588POPG   C3B 7132   3.370   7.761   5.537                        
  588POPG   C4B 7133   3.386   7.768   5.859                        
  589POPG   GL0 7134   3.228   9.767   4.068                        
  589POPG   PO4 7135   3.195   9.761   4.371                        
  589POPG   GL1 7136   3.203   9.776   4.658                        
  589POPG   GL2 7137   3.342   9.769   4.649                        
  589POPG   C1A 7138   3.202   9.801   4.959                        
  589POPG   D2A 7139   3.230   9.783   5.260                        
  589POPG   C3A 7140   3.204   9.778   5.570                        
  589POPG   C4A 7141   3.190   9.755   5.860                        
  589POPG   C1B 7142   3.467   9.798   4.941                        
  589POPG   C2B 7143   3.473   9.765   5.267                        
  589POPG   C3B 7144   3.486   9.767   5.531                        
  589POPG   C4B 7145   3.484   9.766   5.830                        
  590POPG   GL0 7146   3.196  13.536   4.066                        
  590POPG   PO4 7147   3.221  13.517   4.336                        
  590POPG   GL1 7148   3.186  13.505   4.629                        
  590POPG   GL2 7149   3.325  13.573   4.648                        
  590POPG   C1A 7150   3.209  13.534   4.935                        
  590POPG   D2A 7151   3.222  13.524   5.267                        
  590POPG   C3A 7152   3.190  13.506   5.570                        
  590POPG   C4A 7153   3.226  13.529   5.833                        
  590POPG   C1B 7154   3.442  13.605   4.935                        
  590POPG   C2B 7155   3.428  13.605   5.262                        
  590POPG   C3B 7156   3.435  13.602   5.533                        
  590POPG   C4B 7157   3.448  13.604   5.872                        
  591POPG   GL0 7158   4.479   4.626   4.064                        
  591POPG   PO4 7159   4.465   4.664   4.357                        
  591POPG   GL1 7160   4.497   4.671   4.629                        
  591POPG   GL2 7161   4.389   4.651   4.667                        
  591POPG   C1A 7162   4.506   4.650   4.931                        
  591POPG   D2A 7163   4.482   4.671   5.228                        
  591POPG   C3A 7164   4.497   4.641   5.540                        
  591POPG   C4A 7165   4.505   4.651   5.875                        
  591POPG   C1B 7166   4.242   4.601   4.933                        
  591POPG   C2B 7167   4.233   4.604   5.240                        
  591POPG   C3B 7168   4.247   4.630   5.572                        
  591POPG   C4B 7169   4.241   4.632   5.828                        
  592POPG   GL0 7170   4.151   6.986   4.062                        
  592POPG   PO4 7171   4.185   6.981   4.341                        
  592POPG   GL1 7172   4.142   6.946   4.656                        
  592POPG   GL2 7173   4.071   7.044   4.667                        
  592POPG   C1A 7174   4.187   6.971   4.972                        
  592POPG   D2A 7175   4.160   6.970   5.272                        
  592POPG   C3A 7176   4.170   6.969   5.569                        
  592POPG   C4A 7177   4.161   6.962   5.835                        
  592POPG   C1B 7178   3.955   7.079   4.973                        
  592POPG   C2B 7179   3.949   7.067   5.226                        
  592POPG   C3B 7180   3.947   7.079   5.563                        
  592POPG   C4B 7181   3.953   7.095   5.848                        
  593POPG   GL0 7182   4.125   8.592   4.031                        
  593POPG   PO4 7183   4.156   8.564   4.328                        
  593POPG   GL1 7184   4.131   8.583   4.643                        
  593POPG   GL2 7185   4.092   8.474   4.628                        
  593POPG   C1A 7186   4.151   8.596   4.927                        
  593POPG   D2A 7187   4.166   8.594   5.248                        
  593POPG   C3A 7188   4.149   8.575   5.534                        
  593POPG   C4A 7189   4.148   8.599   5.865                        
  593POPG   C1B 7190   4.000   8.393   4.962                        
  593POPG   C2B 7191   3.998   8.373   5.246                        
  593POPG   C3B 7192   3.991   8.379   5.533                        
  593POPG   C4B 7193   4.012   8.392   5.857                        
  594POPG   GL0 7194   4.097   9.834   4.058                        
  594POPG   PO4 7195   4.072   9.837   4.358                        
  594POPG   GL1 7196   4.114   9.829   4.664                        
  594POPG   GL2 7197   4.045   9.956   4.669                        
  594POPG   C1A 7198   4.076   9.823   4.965                        
  594POPG   D2A 7199   4.092   9.811   5.258                        
  594POPG   C3A 7200   4.111   9.832   5.534                        
  594POPG   C4A 7201   4.110   9.805   5.864                        
  594POPG   C1B 7202   4.044  10.046   4.927                        
  594POPG   C2B 7203   4.067  10.079   5.273                        
  594POPG   C3B 7204   4.057  10.063   5.538                        
  594POPG   C4B 7205   4.047  10.075   5.854                        
  595POPG   GL0 7206   3.970  11.502   4.044                        
  595POPG   PO4 7207   4.003  11.499   4.331                        
  595POPG   GL1 7208   3.976  11.516   4.670                        
  595POPG   GL2 7209   4.041  11.407   4.659                        
  595POPG   C1A 7210   3.992  11.502   4.925                        
  595POPG   D2A 7211   3.987  11.501   5.264                        
  595POPG   C3A 7212   4.005  11.499   5.544                        
  595POPG   C4A 7213   3.968  11.489   5.828                        
  595POPG   C1B 7214   4.145  11.278   4.931                        
  595POPG   C2B 7215   4.106  11.317   5.255                        
  595POPG   C3B 7216   4.154  11.307   5.561                        
  595POPG   C4B 7217   4.145  11.279   5.833                        
  596POPG   GL0 7218   3.982  13.003   4.061                        
  596POPG   PO4 7219   3.989  12.977   4.341                        
  596POPG   GL1 7220   3.986  12.984   4.664                        
  596POPG   GL2 7221   4.049  12.887   4.655                        
  596POPG   C1A 7222   4.015  12.975   4.932                        
  596POPG   D2A 7223   3.987  12.967   5.250                        
  596POPG   C3A 7224   3.989  13.000   5.529                        
  596POPG   C4A 7225   4.015  13.002   5.837                        
  596POPG   C1B 7226   4.152  12.794   4.957                        
  596POPG   C2B 7227   4.150  12.779   5.253                        
  596POPG   C3B 7228   4.127  12.761   5.572                        
  596POPG   C4B 7229   4.147  12.793   5.863                        
  597POPG   GL0 7230   4.723   7.818   4.060                        
  597POPG   PO4 7231   4.724   7.819   4.360                        
  597POPG   GL1 7232   4.755   7.824   4.645                        
  597POPG   GL2 7233   4.812   7.697   4.636                        
  597POPG   C1A 7234   4.724   7.808   4.961                        
  597POPG   D2A 7235   4.763   7.838   5.226                        
  597POPG   C3A 7236   4.765   7.811   5.567                        
  597POPG   C4A 7237   4.746   7.805   5.846                        
  597POPG   C1B 7238   4.881   7.628   4.964                        
  597POPG   C2B 7239   4.887   7.637   5.245                        
  597POPG   C3B 7240   4.864   7.602   5.551                        
  597POPG   C4B 7241   4.865   7.592   5.852                        
  598POPG   GL0 7242   4.799  13.485   4.031                        
  598POPG   PO4 7243   4.824  13.521   4.365                        
  598POPG   GL1 7244   4.826  13.505   4.640                        
  598POPG   GL2 7245   4.764  13.602   4.639                        
  598POPG   C1A 7246   4.795  13.489   4.930                        
  598POPG   D2A 7247   4.807  13.525   5.261                        
  598POPG   C3A 7248   4.830  13.501   5.570                        
  598POPG   C4A 7249   4.805  13.498   5.850                        
  598POPG   C1B 7250   4.743  13.740   4.925                        
  598POPG   C2B 7251   4.735  13.724   5.232                        
  598POPG   C3B 7252   4.732  13.753   5.534                        
  598POPG   C4B 7253   4.738  13.738   5.839                        
  599POPG   GL0 7254   5.477   4.939   4.041                        
  599POPG   PO4 7255   5.471   4.900   4.352                        
  599POPG   GL1 7256   5.472   4.911   4.655                        
  599POPG   GL2 7257   5.531   4.809   4.651                        
  599POPG   C1A 7258   5.496   4.917   4.938                        
  599POPG   D2A 7259   5.500   4.931   5.247                        
  599POPG   C3A 7260   5.478   4.920   5.547                        
  599POPG   C4A 7261   5.473   4.928   5.856                        
  599POPG   C1B 7262   5.613   4.699   4.950                        
  599POPG   C2B 7263   5.591   4.674   5.229                        
  599POPG   C3B 7264   5.572   4.684   5.563                        
  599POPG   C4B 7265   5.605   4.679   5.830                        
  600POPG   GL0 7266   5.615   9.072   4.051                        
  600POPG   PO4 7267   5.596   9.096   4.365                        
  600POPG   GL1 7268   5.619   9.091   4.668                        
  600POPG   GL2 7269   5.562   9.218   4.636                        
  600POPG   C1A 7270   5.612   9.111   4.955                        
  600POPG   D2A 7271   5.626   9.109   5.232                        
  600POPG   C3A 7272   5.595   9.108   5.532                        
  600POPG   C4A 7273   5.616   9.080   5.825                        
  600POPG   C1B 7274   5.499   9.321   4.966                        
  600POPG   C2B 7275   5.468   9.317   5.258                        
  600POPG   C3B 7276   5.510   9.283   5.540                        
  600POPG   C4B 7277   5.486   9.303   5.833                        
  601POPG   GL0 7278   5.436   9.854   4.073                        
  601POPG   PO4 7279   5.481   9.874   4.355                        
  601POPG   GL1 7280   5.451   9.882   4.661                        
  601POPG   GL2 7281   5.555   9.941   4.643                        
  601POPG   C1A 7282   5.470   9.873   4.951                        
  601POPG   D2A 7283   5.470   9.859   5.250                        
  601POPG   C3A 7284   5.450   9.846   5.529                        
  601POPG   C4A 7285   5.464   9.880   5.851                        
  601POPG   C1B 7286   5.673   9.997   4.956                        
  601POPG   C2B 7287   5.661  10.013   5.238                        
  601POPG   C3B 7288   5.686   9.977   5.558                        
  601POPG   C4B 7289   5.653   9.990   5.840                        
  602POPG   GL0 7290   6.510   6.746   4.048                        
  602POPG   PO4 7291   6.468   6.724   4.368                        
  602POPG   GL1 7292   6.488   6.718   4.649                        
  602POPG   GL2 7293   6.345   6.691   4.649                        
  602POPG   C1A 7294   6.465   6.751   4.940                        
  602POPG   D2A 7295   6.502   6.720   5.263                        
  602POPG   C3A 7296   6.504   6.744   5.557                        
  602POPG   C4A 7297   6.490   6.738   5.848                        
  602POPG   C1B 7298   6.232   6.689   4.957                        
  602POPG   C2B 7299   6.245   6.685   5.231                        
  602POPG   C3B 7300   6.219   6.725   5.529                        
  602POPG   C4B 7301   6.236   6.715   5.839                        
  603POPG   GL0 7302   6.280  12.829   4.074                        
  603POPG   PO4 7303   6.282  12.841   4.365                        
  603POPG   GL1 7304   6.266  12.845   4.662                        
  603POPG   GL2 7305   6.194  12.735   4.666                        
  603POPG   C1A 7306   6.238  12.857   4.953                        
  603POPG   D2A 7307   6.257  12.822   5.250                        
  603POPG   C3A 7308   6.257  12.827   5.563                        
  603POPG   C4A 7309   6.249  12.816   5.827                        
  603POPG   C1B 7310   6.091  12.629   4.974                        
  603POPG   C2B 7311   6.092  12.624   5.246                        
  603POPG   C3B 7312   6.089  12.632   5.551                        
  603POPG   C4B 7313   6.101  12.650   5.871                        
  604POPG   GL0 7314   7.141   7.135   4.051                        
  604POPG   PO4 7315   7.109   7.137   4.362                        
  604POPG   GL1 7316   7.107   7.158   4.653                        
  604POPG   GL2 7317   7.034   7.052   4.628                        
  604POPG   C1A 7318   7.098   7.155   4.933                        
  604POPG   D2A 7319   7.116   7.127   5.247                        
  604POPG   C3A 7320   7.111   7.131   5.542                        
  604POPG   C4A 7321   7.109   7.162   5.833                        
  604POPG   C1B 7322   6.913   6.988   4.939                        
  604POPG   C2B 7323   6.940   6.948   5.236                        
  604POPG   C3B 7324   6.949   6.978   5.543                        
  604POPG   C4B 7325   6.931   6.980   5.827                        
  605POPG   GL0 7326   7.072   7.655   4.030                        
  605POPG   PO4 7327   7.071   7.643   4.337                        
  605POPG   GL1 7328   7.086   7.617   4.662                        
  605POPG   GL2 7329   6.976   7.701   4.632                        
  605POPG   C1A 7330   7.081   7.617   4.967                        
  605POPG   D2A 7331   7.077   7.623   5.273                        
  605POPG   C3A 7332   7.071   7.620   5.543                        
  605POPG   C4A 7333   7.093   7.640   5.859                        
  605POPG   C1B 7334   6.896   7.793   4.946                        
  605POPG   C2B 7335   6.891   7.806   5.260                        
  605POPG   C3B 7336   6.913   7.819   5.537                        
  605POPG   C4B 7337   6.915   7.828   5.829                        
  606POPG   GL0 7338   7.043   9.764   4.038                        
  606POPG   PO4 7339   7.046   9.728   4.354                        
  606POPG   GL1 7340   7.000   9.759   4.644                        
  606POPG   GL2 7341   6.962   9.872   4.659                        
  606POPG   C1A 7342   7.029   9.764   4.945                        
  606POPG   D2A 7343   7.010   9.747   5.248                        
  606POPG   C3A 7344   7.002   9.762   5.542                        
  606POPG   C4A 7345   7.049   9.721   5.830                        
  606POPG   C1B 7346   6.955   9.959   4.934                        
  606POPG   C2B 7347   6.958   9.978   5.272                        
  606POPG   C3B 7348   6.959  10.000   5.543                        
  606POPG   C4B 7349   6.954   9.984   5.844                        
  607POPG   GL0 7350   6.858  10.591   4.072                        
  607POPG   PO4 7351   6.851  10.570   4.336                        
  607POPG   GL1 7352   6.825  10.572   4.673                        
  607POPG   GL2 7353   6.985  10.597   4.634                        
  607POPG   C1A 7354   6.846  10.611   4.931                        
  607POPG   D2A 7355   6.834  10.593   5.262                        
  607POPG   C3A 7356   6.848  10.585   5.556                        
  607POPG   C4A 7357   6.841  10.590   5.856                        
  607POPG   C1B 7358   7.113  10.615   4.968                        
  607POPG   C2B 7359   7.101  10.622   5.232                        
  607POPG   C3B 7360   7.117  10.611   5.539                        
  607POPG   C4B 7361   7.082  10.596   5.845                        
  608POPG   GL0 7362   7.064  13.576   4.049                        
  608POPG   PO4 7363   7.073  13.578   4.345                        
  608POPG   GL1 7364   7.055  13.555   4.644                        
  608POPG   GL2 7365   6.932  13.628   4.651                        
  608POPG   C1A 7366   7.074  13.550   4.974                        
  608POPG   D2A 7367   7.054  13.545   5.236                        
  608POPG   C3A 7368   7.065  13.576   5.565                        
  608POPG   C4A 7369   7.073  13.544   5.860                        
  608POPG   C1B 7370   6.838  13.693   4.944                        
  608POPG   C2B 7371   6.837  13.702   5.272                        
  608POPG   C3B 7372   6.855  13.656   5.549                        
  608POPG   C4B 7373   6.837  13.654   5.828                        
  609POPG   GL0 7374   7.034   3.471   4.031                        
  609POPG   PO4 7375   7.026   3.474   4.348                        
  609POPG   GL1 7376   7.051   3.479   4.666                        
  609POPG   GL2 7377   6.985   3.604   4.634                        
  609POPG   C1A 7378   7.041   3.465   4.966                        
  609POPG   D2A 7379   7.048   3.486   5.271                        
  609POPG   C3A 7380   7.027   3.467   5.570                        
  609POPG   C4A 7381   7.053   3.477   5.843                        
  609POPG   C1B 7382   6.948   3.734   4.936                        
  609POPG   C2B 7383   6.974   3.734   5.230                        
  609POPG   C3B 7384   6.976   3.725   5.534                        
  609POPG   C4B 7385   6.958   3.714   5.859                        
  610POPG   GL0 7386   8.143   6.279   4.058                        
  610POPG   PO4 7387   8.098   6.266   4.350                        
  610POPG   GL1 7388   8.122   6.303   4.628                        
  610POPG   GL2 7389   8.073   6.160   4.646                        
  610POPG   C1A 7390   8.114   6.303   4.950                        
  610POPG   D2A 7391   8.115   6.269   5.266                        
  610POPG   C3A 7392   8.107   6.255   5.558                        
  610POPG   C4A 7393   8.132   6.290   5.847                        
  610POPG   C1B 7394   8.054   6.016   4.944                        
  610POPG   C2B 7395   8.028   6.021   5.230                        
  610POPG   C3B 7396   8.046   6.036   5.557                        
  610POPG   C4B 7397   8.030   6.033   5.850                        
  611POPG   GL0 7398   7.824   8.904   4.049                        
  611POPG   PO4 7399   7.826   8.908   4.337                        
  611POPG   GL1 7400   7.831   8.891   4.632                        
  611POPG   GL2 7401   7.688   8.925   4.674                        
  611POPG   C1A 7402   7.819   8.897   4.961                        
  611POPG   D2A 7403   7.812   8.879   5.274                        
  611POPG   C3A 7404   7.832   8.866   5.528                        
  611POPG   C4A 7405   7.829   8.901   5.862                        
  611POPG   C1B 7406   7.600   8.968   4.940                        
  611POPG   C2B 7407   7.589   8.975   5.249                        
  611POPG   C3B 7408   7.586   8.976   5.575                        
  611POPG   C4B 7409   7.573   8.952   5.872                        
  612POPG   GL0 7410   7.714  10.553   4.028                        
  612POPG   PO4 7411   7.712  10.565   4.352                        
  612POPG   GL1 7412   7.759  10.559   4.625                        
  612POPG   GL2 7413   7.738  10.425   4.674                        
  612POPG   C1A 7414   7.748  10.538   4.936                        
  612POPG   D2A 7415   7.740  10.551   5.228                        
  612POPG   C3A 7416   7.756  10.553   5.542                        
  612POPG   C4A 7417   7.717  10.556   5.866                        
  612POPG   C1B 7418   7.721  10.282   4.953                        
  612POPG   C2B 7419   7.690  10.312   5.260                        
  612POPG   C3B 7420   7.683  10.277   5.537                        
  612POPG   C4B 7421   7.707  10.308   5.852                        
  613POPG   GL0 7422   7.547  11.069   4.050                        
  613POPG   PO4 7423   7.548  11.112   4.339                        
  613POPG   GL1 7424   7.558  11.082   4.637                        
  613POPG   GL2 7425   7.656  11.136   4.665                        
  613POPG   C1A 7426   7.561  11.082   4.958                        
  613POPG   D2A 7427   7.518  11.102   5.256                        
  613POPG   C3A 7428   7.544  11.080   5.548                        
  613POPG   C4A 7429   7.523  11.116   5.849                        
  613POPG   C1B 7430   7.763  11.216   4.949                        
  613POPG   C2B 7431   7.775  11.192   5.265                        
  613POPG   C3B 7432   7.781  11.180   5.562                        
  613POPG   C4B 7433   7.754  11.195   5.838                        
  614POPG   GL0 7434   8.123   2.362   4.032                        
  614POPG   PO4 7435   8.083   2.390   4.373                        
  614POPG   GL1 7436   8.104   2.392   4.646                        
  614POPG   GL2 7437   8.134   2.237   4.652                        
  614POPG   C1A 7438   8.122   2.395   4.973                        
  614POPG   D2A 7439   8.100   2.392   5.273                        
  614POPG   C3A 7440   8.112   2.381   5.535                        
  614POPG   C4A 7441   8.091   2.351   5.830                        
  614POPG   C1B 7442   8.176   2.140   4.964                        
  614POPG   C2B 7443   8.192   2.141   5.252                        
  614POPG   C3B 7444   8.196   2.143   5.537                        
  614POPG   C4B 7445   8.194   2.124   5.858                        
  615POPG   GL0 7446   8.593   9.692   4.074                        
  615POPG   PO4 7447   8.569   9.671   4.372                        
  615POPG   GL1 7448   8.592   9.678   4.673                        
  615POPG   GL2 7449   8.452   9.720   4.661                        
  615POPG   C1A 7450   8.589   9.664   4.966                        
  615POPG   D2A 7451   8.592   9.688   5.232                        
  615POPG   C3A 7452   8.581   9.678   5.563                        
  615POPG   C4A 7453   8.583   9.688   5.827                        
  615POPG   C1B 7454   8.338   9.784   4.929                        
  615POPG   C2B 7455   8.358   9.767   5.270                        
  615POPG   C3B 7456   8.332   9.777   5.548                        
  615POPG   C4B 7457   8.329   9.761   5.841                        
  616POPG   GL0 7458   9.173   9.490   4.062                        
  616POPG   PO4 7459   9.166   9.488   4.369                        
  616POPG   GL1 7460   9.141   9.467   4.632                        
  616POPG   GL2 7461   9.191   9.574   4.655                        
  616POPG   C1A 7462   9.137   9.486   4.942                        
  616POPG   D2A 7463   9.157   9.460   5.256                        
  616POPG   C3A 7464   9.138   9.453   5.538                        
  616POPG   C4A 7465   9.173   9.491   5.866                        
  616POPG   C1B 7466   9.225   9.707   4.937                        
  616POPG   C2B 7467   9.218   9.703   5.270                        
  616POPG   C3B 7468   9.202   9.708   5.560                        
  616POPG   C4B 7469   9.202   9.732   5.875                        
  617POPG   GL0 7470   9.087  10.257   4.047                        
  617POPG   PO4 7471   9.103  10.281   4.371                        
  617POPG   GL1 7472   9.077  10.280   4.646                        
  617POPG   GL2 7473   9.206  10.308   4.632                        
  617POPG   C1A 7474   9.082  10.266   4.930                        
  617POPG   D2A 7475   9.112  10.241   5.228                        
  617POPG   C3A 7476   9.081  10.268   5.571                        
  617POPG   C4A 7477   9.097  10.282   5.826                        
  617POPG   C1B 7478   9.329  10.299   4.955                        
  617POPG   C2B 7479   9.355  10.311   5.237                        
  617POPG   C3B 7480   9.311  10.301   5.569                        
  617POPG   C4B 7481   9.316  10.323   5.842                        
  618POPG   GL0 7482   9.098  10.808   4.074                        
  618POPG   PO4 7483   9.101  10.823   4.348                        
  618POPG   GL1 7484   9.128  10.832   4.629                        
  618POPG   GL2 7485   9.099  10.916   4.628                        
  618POPG   C1A 7486   9.106  10.817   4.962                        
  618POPG   D2A 7487   9.103  10.787   5.252                        
  618POPG   C3A 7488   9.116  10.796   5.568                        
  618POPG   C4A 7489   9.103  10.827   5.843                        
  618POPG   C1B 7490   9.147  11.069   4.933                        
  618POPG   C2B 7491   9.141  11.043   5.261                        
  618POPG   C3B 7492   9.111  11.042   5.546                        
  618POPG   C4B 7493   9.121  11.080   5.862                        
  619POPG   GL0 7494   9.881   3.630   4.039                        
  619POPG   PO4 7495   9.886   3.623   4.350                        
  619POPG   GL1 7496   9.871   3.617   4.648                        
  619POPG   GL2 7497   9.914   3.747   4.655                        
  619POPG   C1A 7498   9.881   3.643   4.930                        
  619POPG   D2A 7499   9.893   3.627   5.252                        
  619POPG   C3A 7500   9.905   3.609   5.564                        
  619POPG   C4A 7501   9.903   3.618   5.831                        
  619POPG   C1B 7502   9.977   3.852   4.941                        
  619POPG   C2B 7503   9.980   3.851   5.251                        
  619POPG   C3B 7504   9.961   3.851   5.546                        
  619POPG   C4B 7505   9.995   3.877   5.870                        
  620POPG   GL0 7506   9.824   0.296   4.059                        
  620POPG   PO4 7507   9.821   0.341   4.348                        
  620POPG   GL1 7508   9.816   0.299   4.669                        
  620POPG   GL2 7509   9.715   0.379   4.630                        
  620POPG   C1A 7510   9.844   0.324   4.953                        
  620POPG   D2A 7511   9.847   0.310   5.260                        
  620POPG   C3A 7512   9.846   0.332   5.557                        
  620POPG   C4A 7513   9.842   0.333   5.849                        
  620POPG   C1B 7514   9.583   0.444   4.961                        
  620POPG   C2B 7515   9.619   0.451   5.252                        
  620POPG   C3B 7516   9.622   0.440   5.567                        
  620POPG   C4B 7517   9.625   0.435   5.849                        
  621POPG   GL0 7518  10.280   2.450   4.027                        
  621POPG   PO4 7519  10.273   2.436   4.353                        
  621POPG   GL1 7520  10.300   2.437   4.628                        
  621POPG   GL2 7521  10.387   2.514   4.663                        
  621POPG   C1A 7522  10.283   2.430   4.930                        
  621POPG   D2A 7523  10.283   2.429   5.263                        
  621POPG   C3A 7524  10.276   2.417   5.567                        
  621POPG   C4A 7525  10.292   2.409   5.830                        
  621POPG   C1B 7526  10.462   2.634   4.953                        
  621POPG   C2B 7527  10.463   2.628   5.273                        
  621POPG   C3B 7528  10.470   2.609   5.561                        
  621POPG   C4B 7529  10.432   2.605   5.850                        
  622POPG   GL0 7530  10.704   3.115   4.056                        
  622POPG   PO4 7531  10.741   3.105   4.351                        
  622POPG   GL1 7532  10.732   3.147   4.645                        
  622POPG   GL2 7533  10.750   2.995   4.635                        
  622POPG   C1A 7534  10.721   3.133   4.932                        
  622POPG   D2A 7535  10.713   3.145   5.240                        
  622POPG   C3A 7536  10.710   3.123   5.564                        
  622POPG   C4A 7537  10.711   3.149   5.827                        
  622POPG   C1B 7538  10.745   2.883   4.942                        
  622POPG   C2B 7539  10.733   2.896   5.251                        
  622POPG   C3B 7540  10.734   2.895   5.556                        
  622POPG   C4B 7541  10.750   2.857   5.855                        
  623POPG   GL0 7542  10.814   6.654   4.055                        
  623POPG   PO4 7543  10.799   6.667   4.340                        
  623POPG   GL1 7544  10.825   6.674   4.663                        
  623POPG   GL2 7545  10.695   6.619   4.645                        
  623POPG   C1A 7546  10.801   6.665   4.943                        
  623POPG   D2A 7547  10.790   6.668   5.260                        
  623POPG   C3A 7548  10.791   6.641   5.567                        
  623POPG   C4A 7549  10.810   6.681   5.856                        
  623POPG   C1B 7550  10.572   6.628   4.961                        
  623POPG   C2B 7551  10.541   6.610   5.253                        
  623POPG   C3B 7552  10.553   6.637   5.551                        
  623POPG   C4B 7553  10.548   6.601   5.827                        
  624POPG   GL0 7554  10.573  10.604   4.072                        
  624POPG   PO4 7555  10.563  10.578   4.344                        
  624POPG   GL1 7556  10.552  10.593   4.629                        
  624POPG   GL2 7557  10.628  10.496   4.650                        
  624POPG   C1A 7558  10.528  10.593   4.935                        
  624POPG   D2A 7559  10.574  10.599   5.252                        
  624POPG   C3A 7560  10.551  10.598   5.558                        
  624POPG   C4A 7561  10.555  10.614   5.871                        
  624POPG   C1B 7562  10.714  10.420   4.940                        
  624POPG   C2B 7563  10.714  10.423   5.249                        
  624POPG   C3B 7564  10.706  10.431   5.530                        
  624POPG   C4B 7565  10.735  10.397   5.831                        
  625POPG   GL0 7566  11.515   2.898   4.061                        
  625POPG   PO4 7567  11.499   2.892   4.326                        
  625POPG   GL1 7568  11.488   2.903   4.649                        
  625POPG   GL2 7569  11.383   2.944   4.653                        
  625POPG   C1A 7570  11.509   2.894   4.963                        
  625POPG   D2A 7571  11.511   2.875   5.247                        
  625POPG   C3A 7572  11.501   2.880   5.554                        
  625POPG   C4A 7573  11.487   2.866   5.847                        
  625POPG   C1B 7574  11.280   2.971   4.927                        
  625POPG   C2B 7575  11.280   2.957   5.242                        
  625POPG   C3B 7576  11.253   2.967   5.543                        
  625POPG   C4B 7577  11.247   2.960   5.869                        
  626POPG   GL0 7578  11.571   5.018   4.071                        
  626POPG   PO4 7579  11.569   5.016   4.359                        
  626POPG   GL1 7580  11.556   5.017   4.656                        
  626POPG   GL2 7581  11.417   5.043   4.635                        
  626POPG   C1A 7582  11.555   5.003   4.952                        
  626POPG   D2A 7583  11.572   5.019   5.235                        
  626POPG   C3A 7584  11.567   5.005   5.572                        
  626POPG   C4A 7585  11.543   5.012   5.831                        
  626POPG   C1B 7586  11.317   5.024   4.961                        
  626POPG   C2B 7587  11.294   5.027   5.231                        
  626POPG   C3B 7588  11.325   5.040   5.529                        
  626POPG   C4B 7589  11.321   5.024   5.864                        
  627POPG   GL0 7590  11.234   8.375   4.025                        
  627POPG   PO4 7591  11.261   8.371   4.350                        
  627POPG   GL1 7592  11.244   8.398   4.635                        
  627POPG   GL2 7593  11.190   8.274   4.633                        
  627POPG   C1A 7594  11.247   8.391   4.948                        
  627POPG   D2A 7595  11.222   8.403   5.273                        
  627POPG   C3A 7596  11.227   8.386   5.545                        
  627POPG   C4A 7597  11.250   8.386   5.835                        
  627POPG   C1B 7598  11.114   8.143   4.956                        
  627POPG   C2B 7599  11.140   8.168   5.261                        
  627POPG   C3B 7600  11.146   8.160   5.546                        
  627POPG   C4B 7601  11.120   8.139   5.838                        
  628POPG   GL0 7602  11.399  10.476   4.074                        
  628POPG   PO4 7603  11.393  10.476   4.335                        
  628POPG   GL1 7604  11.409  10.487   4.649                        
  628POPG   GL2 7605  11.344  10.600   4.629                        
  628POPG   C1A 7606  11.408  10.479   4.931                        
  628POPG   D2A 7607  11.432  10.464   5.267                        
  628POPG   C3A 7608  11.423  10.466   5.570                        
  628POPG   C4A 7609  11.413  10.480   5.842                        
  628POPG   C1B 7610  11.320  10.716   4.952                        
  628POPG   C2B 7611  11.324  10.706   5.260                        
  628POPG   C3B 7612  11.305  10.710   5.565                        
  628POPG   C4B 7613  11.315  10.679   5.851                        
  629POPG   GL0 7614  11.440  12.946   4.033                        
  629POPG   PO4 7615  11.439  12.956   4.341                        
  629POPG   GL1 7616  11.460  12.941   4.649                        
  629POPG   GL2 7617  11.414  12.838   4.664                        
  629POPG   C1A 7618  11.438  12.963   4.952                        
  629POPG   D2A 7619  11.426  12.938   5.251                        
  629POPG   C3A 7620  11.451  12.974   5.544                        
  629POPG   C4A 7621  11.432  12.963   5.867                        
  629POPG   C1B 7622  11.436  12.698   4.944                        
  629POPG   C2B 7623  11.426  12.731   5.267                        
  629POPG   C3B 7624  11.456  12.689   5.563                        
  629POPG   C4B 7625  11.450  12.707   5.842                        
  630POPG   GL0 7626  12.441   1.493   4.068                        
  630POPG   PO4 7627  12.423   1.501   4.359                        
  630POPG   GL1 7628  12.442   1.512   4.665                        
  630POPG   GL2 7629  12.475   1.402   4.664                        
  630POPG   C1A 7630  12.420   1.524   4.966                        
  630POPG   D2A 7631  12.455   1.503   5.242                        
  630POPG   C3A 7632  12.456   1.496   5.561                        
  630POPG   C4A 7633  12.452   1.514   5.841                        
  630POPG   C1B 7634  12.451   1.279   4.941                        
  630POPG   C2B 7635  12.454   1.267   5.261                        
  630POPG   C3B 7636  12.451   1.241   5.538                        
  630POPG   C4B 7637  12.459   1.238   5.874                        
  631POPG   GL0 7638  11.813   7.978   4.056                        
  631POPG   PO4 7639  11.812   7.946   4.363                        
  631POPG   GL1 7640  11.828   7.967   4.675                        
  631POPG   GL2 7641  11.688   7.917   4.661                        
  631POPG   C1A 7642  11.838   7.985   4.944                        
  631POPG   D2A 7643  11.799   7.980   5.257                        
  631POPG   C3A 7644  11.804   7.993   5.548                        
  631POPG   C4A 7645  11.803   7.953   5.837                        
  631POPG   C1B 7646  11.576   7.895   4.972                        
  631POPG   C2B 7647  11.578   7.908   5.270                        
  631POPG   C3B 7648  11.607   7.866   5.533                        
  631POPG   C4B 7649  11.589   7.887   5.826                        
  632POPG   GL0 7650  12.916  12.170   4.047                        
  632POPG   PO4 7651  12.903  12.171   4.361                        
  632POPG   GL1 7652  12.923  12.170   4.670                        
  632POPG   GL2 7653  12.879  12.058   4.643                        
  632POPG   C1A 7654  12.913  12.156   4.928                        
  632POPG   D2A 7655  12.908  12.160   5.230                        
  632POPG   C3A 7656  12.917  12.156   5.555                        
  632POPG   C4A 7657  12.914  12.170   5.871                        
  632POPG   C1B 7658  12.845  11.909   4.970                        
  632POPG   C2B 7659  12.873  11.914   5.232                        
  632POPG   C3B 7660  12.838  11.918   5.567                        
  632POPG   C4B 7661  12.879  11.915   5.860                        
  633POPG   GL0 7662  12.879   5.662   4.038                        
  633POPG   PO4 7663  12.902   5.648   4.326                        
  633POPG   GL1 7664  12.884   5.616   4.646                        
  633POPG   GL2 7665  12.948   5.522   4.630                        
  633POPG   C1A 7666  12.899   5.643   4.969                        
  633POPG   D2A 7667  12.900   5.623   5.266                        
  633POPG   C3A 7668  12.917   5.665   5.574                        
  633POPG   C4A 7669  12.872   5.632   5.838                        
  633POPG   C1B 7670  13.001   5.419   4.930                        
  633POPG   C2B 7671  13.013   5.408   5.274                        
  633POPG   C3B 7672  13.001   5.429   5.545                        
  633POPG   C4B 7673  12.989   5.417   5.829                        
  634POPG   GL0 7674  13.691  13.519   4.057                        
  634POPG   PO4 7675  13.678  13.539   4.371                        
  634POPG   GL1 7676  13.695  13.516   4.664                        
  634POPG   GL2 7677  13.618  13.652   4.630                        
  634POPG   C1A 7678  13.723  13.521   4.966                        
  634POPG   D2A 7679  13.678  13.515   5.246                        
  634POPG   C3A 7680  13.704  13.529   5.574                        
  634POPG   C4A 7681  13.702  13.520   5.836                        
  634POPG   C1B 7682  13.559  13.707   4.960                        
  634POPG   C2B 7683  13.542  13.721   5.245                        
  634POPG   C3B 7684  13.556  13.716   5.529                        
  634POPG   C4B 7685  13.564  13.720   5.849                        
  635POPG   GL0 7686  13.543   2.643   4.049                        
  635POPG   PO4 7687  13.500   2.644   4.354                        
  635POPG   GL1 7688  13.524   2.618   4.641                        
  635POPG   GL2 7689  13.623   2.716   4.637                        
  635POPG   C1A 7690  13.532   2.659   4.940                        
  635POPG   D2A 7691  13.544   2.615   5.263                        
  635POPG   C3A 7692  13.534   2.627   5.537                        
  635POPG   C4A 7693  13.531   2.635   5.851                        
  635POPG   C1B 7694  13.743   2.764   4.953                        
  635POPG   C2B 7695  13.720   2.785   5.249                        
  635POPG   C3B 7696  13.734   2.751   5.527                        
  635POPG   C4B 7697  13.711   2.752   5.862                        
  636TOCL   GLC 7698   1.234   1.265   5.236                        
  636TOCL  PO41 7699   1.240   1.254   5.371                        
  636TOCL  GL11 7700   1.337   1.158   5.444                        
  636TOCL  GL21 7701   1.123   1.131   5.469                        
  636TOCL  C1A1 7702   1.437   1.003   5.567                        
  636TOCL  D2A1 7703   1.500   0.911   5.663                        
  636TOCL  C3A1 7704   1.621   0.821   5.732                        
  636TOCL  C4A1 7705   1.685   0.684   5.862                        
  636TOCL  C1B1 7706   1.036   1.071   5.527                        
  636TOCL  D2B1 7707   0.941   0.967   5.633                        
  636TOCL  C3B1 7708   0.821   0.866   5.755                        
  636TOCL  C4B1 7709   0.695   0.793   5.827                        
  636TOCL  PO42 7710   1.241   1.234   5.137                        
  636TOCL  GL12 7711   1.384   1.332   5.057                        
  636TOCL  GL22 7712   1.137   1.349   5.049                        
  636TOCL  C1A2 7713   1.458   1.413   4.952                        
  636TOCL  D2A2 7714   1.589   1.518   4.838                        
  636TOCL  C3A2 7715   1.666   1.595   4.756                        
  636TOCL  C4A2 7716   1.804   1.696   4.631                        
  636TOCL  C1B2 7717   1.049   1.464   4.926                        
  636TOCL  D2B2 7718   0.958   1.559   4.843                        
  636TOCL  C3B2 7719   0.867   1.682   4.755                        
  636TOCL  C4B2 7720   0.813   1.772   4.667                        
  637TOCL   GLC 7721   7.023   1.228   5.272                        
  637TOCL  PO41 7722   7.018   1.246   5.327                        
  637TOCL  GL11 7723   6.922   1.121   5.463                        
  637TOCL  GL21 7724   6.893   1.316   5.433                        
  637TOCL  C1A1 7725   6.872   1.032   5.575                        
  637TOCL  D2A1 7726   6.749   0.919   5.663                        
  637TOCL  C3A1 7727   6.671   0.777   5.737                        
  637TOCL  C4A1 7728   6.608   0.686   5.846                        
  637TOCL  C1B1 7729   6.798   1.409   5.566                        
  637TOCL  D2B1 7730   6.679   1.473   5.627                        
  637TOCL  C3B1 7731   6.531   1.564   5.761                        
  637TOCL  C4B1 7732   6.445   1.669   5.856                        
  637TOCL  PO42 7733   7.025   1.251   5.158                        
  637TOCL  GL12 7734   7.137   1.155   5.033                        
  637TOCL  GL22 7735   7.107   1.387   5.065                        
  637TOCL  C1A2 7736   7.247   1.066   4.957                        
  637TOCL  D2A2 7737   7.337   1.000   4.850                        
  637TOCL  C3A2 7738   7.491   0.908   4.753                        
  637TOCL  C4A2 7739   7.613   0.871   4.672                        
  637TOCL  C1B2 7740   7.171   1.477   4.967                        
  637TOCL  D2B2 7741   7.256   1.600   4.870                        
  637TOCL  C3B2 7742   7.310   1.710   4.729                        
  637TOCL  C4B2 7743   7.396   1.820   4.668                        
  638TOCL   GLC 7744  10.994   1.257   5.238                        
  638TOCL  PO41 7745  10.978   1.248   5.349                        
  638TOCL  GL11 7746  11.147   1.222   5.428                        
  638TOCL  GL21 7747  10.943   1.104   5.458                        
  638TOCL  C1A1 7748  11.251   1.160   5.562                        
  638TOCL  D2A1 7749  11.385   1.152   5.643                        
  638TOCL  C3A1 7750  11.554   1.065   5.740                        
  638TOCL  C4A1 7751  11.649   1.033   5.833                        
  638TOCL  C1B1 7752  10.900   1.001   5.561                        
  638TOCL  D2B1 7753  10.859   0.851   5.632                        
  638TOCL  C3B1 7754  10.808   0.702   5.740                        
  638TOCL  C4B1 7755  10.772   0.553   5.842                        
  638TOCL  PO42 7756  11.012   1.233   5.168                        
  638TOCL  GL12 7757  11.025   1.364   5.042                        
  638TOCL  GL22 7758  10.834   1.284   5.053                        
  638TOCL  C1A2 7759  11.044   1.504   4.969                        
  638TOCL  D2A2 7760  11.099   1.677   4.853                        
  638TOCL  C3A2 7761  11.159   1.794   4.772                        
  638TOCL  C4A2 7762  11.204   1.945   4.640                        
  638TOCL  C1B2 7763  10.716   1.341   4.937                        
  638TOCL  D2B2 7764  10.559   1.361   4.861                        
  638TOCL  C3B2 7765  10.467   1.430   4.727                        
  638TOCL  C4B2 7766  10.297   1.433   4.659                        
  639TOCL   GLC 7767   2.946   4.958   5.230                        
  639TOCL  PO41 7768   2.973   4.988   5.344                        
  639TOCL  GL11 7769   2.873   5.106   5.443                        
  639TOCL  GL21 7770   3.078   5.063   5.458                        
  639TOCL  C1A1 7771   2.770   5.181   5.538                        
  639TOCL  D2A1 7772   2.675   5.324   5.650                        
  639TOCL  C3A1 7773   2.599   5.424   5.774                        
  639TOCL  C4A1 7774   2.493   5.521   5.872                        
  639TOCL  C1B1 7775   3.197   5.152   5.550                        
  639TOCL  D2B1 7776   3.297   5.255   5.642                        
  639TOCL  C3B1 7777   3.410   5.321   5.747                        
  639TOCL  C4B1 7778   3.523   5.401   5.853                        
  639TOCL  PO42 7779   2.966   4.969   5.133                        
  639TOCL  GL12 7780   2.849   4.874   5.043                        
  639TOCL  GL22 7781   3.063   4.885   5.038                        
  639TOCL  C1A2 7782   2.762   4.771   4.940                        
  639TOCL  D2A2 7783   2.639   4.709   4.849                        
  639TOCL  C3A2 7784   2.527   4.607   4.728                        
  639TOCL  C4A2 7785   2.394   4.527   4.634                        
  639TOCL  C1B2 7786   3.144   4.764   4.949                        
  639TOCL  D2B2 7787   3.207   4.627   4.841                        
  639TOCL  C3B2 7788   3.303   4.524   4.757                        
  639TOCL  C4B2 7789   3.427   4.442   4.648                        
  640TOCL   GLC 7790   7.018   5.005   5.257                        
  640TOCL  PO41 7791   7.012   4.986   5.326                        
  640TOCL  GL11 7792   7.124   5.145   5.436                        
  640TOCL  GL21 7793   7.176   4.918   5.475                        
  640TOCL  C1A1 7794   7.146   5.234   5.557                        
  640TOCL  D2A1 7795   7.231   5.388   5.641                        
  640TOCL  C3A1 7796   7.325   5.510   5.727                        
  640TOCL  C4A1 7797   7.368   5.605   5.850                        
  640TOCL  C1B1 7798   7.283   4.877   5.526                        
  640TOCL  D2B1 7799   7.423   4.789   5.638                        
  640TOCL  C3B1 7800   7.518   4.716   5.765                        
  640TOCL  C4B1 7801   7.659   4.653   5.868                        
  640TOCL  PO42 7802   7.052   5.023   5.125                        
  640TOCL  GL12 7803   6.912   5.051   5.066                        
  640TOCL  GL22 7804   6.944   4.877   5.071                        
  640TOCL  C1A2 7805   6.793   5.154   4.961                        
  640TOCL  D2A2 7806   6.685   5.195   4.857                        
  640TOCL  C3A2 7807   6.521   5.263   4.725                        
  640TOCL  C4A2 7808   6.407   5.317   4.631                        
  640TOCL  C1B2 7809   6.913   4.744   4.932                        
  640TOCL  D2B2 7810   6.850   4.649   4.861                        
  640TOCL  C3B2 7811   6.773   4.515   4.762                        
  640TOCL  C4B2 7812   6.705   4.384   4.672                        
  641TOCL   GLC 7813  12.736   8.972   5.230                        
  641TOCL  PO41 7814  12.769   9.000   5.356                        
  641TOCL  GL11 7815  12.619   9.038   5.434                        
  641TOCL  GL21 7816  12.816   9.120   5.425                        
  641TOCL  C1A1 7817  12.527   9.135   5.557                        
  641TOCL  D2A1 7818  12.414   9.201   5.664                        
  641TOCL  C3A1 7819  12.275   9.280   5.757                        
  641TOCL  C4A1 7820  12.137   9.366   5.839                        
  641TOCL  C1B1 7821  12.899   9.233   5.529                        
  641TOCL  D2B1 7822  12.989   9.347   5.653                        
  641TOCL  C3B1 7823  13.029   9.435   5.739                        
  641TOCL  C4B1 7824  13.151   9.588   5.832                        
  641TOCL  PO42 7825  12.740   8.998   5.157                        
  641TOCL  GL12 7826  12.686   8.876   5.034                        
  641TOCL  GL22 7827  12.873   8.902   5.030                        
  641TOCL  C1A2 7828  12.623   8.745   4.930                        
  641TOCL  D2A2 7829  12.542   8.630   4.834                        
  641TOCL  C3A2 7830  12.437   8.486   4.748                        
  641TOCL  C4A2 7831  12.374   8.371   4.656                        
  641TOCL  C1B2 7832  12.979   8.835   4.950                        
  641TOCL  D2B2 7833  13.129   8.742   4.857                        
  641TOCL  C3B2 7834  13.227   8.650   4.752                        
  641TOCL  C4B2 7835  13.342   8.591   4.673                        
  642TOCL   GLC 7836   8.952  12.755   5.264                        
  642TOCL  PO41 7837   8.937  12.748   5.335                        
  642TOCL  GL11 7838   8.878  12.641   5.426                        
  642TOCL  GL21 7839   8.834  12.826   5.439                        
  642TOCL  C1A1 7840   8.796  12.541   5.537                        
  642TOCL  D2A1 7841   8.708  12.389   5.637                        
  642TOCL  C3A1 7842   8.608  12.325   5.751                        
  642TOCL  C4A1 7843   8.521  12.200   5.832                        
  642TOCL  C1B1 7844   8.705  12.897   5.543                        
  642TOCL  D2B1 7845   8.616  13.022   5.648                        
  642TOCL  C3B1 7846   8.526  13.069   5.731                        
  642TOCL  C4B1 7847   8.395  13.203   5.827                        
  642TOCL  PO42 7848   8.978  12.739   5.149                        
  642TOCL  GL12 7849   9.085  12.678   5.031                        
  642TOCL  GL22 7850   9.030  12.874   5.054                        
  642TOCL  C1A2 7851   9.171  12.572   4.959                        
  642TOCL  D2A2 7852   9.299  12.495   4.862                        
  642TOCL  C3A2 7853   9.405  12.430   4.761                        
  642TOCL  C4A2 7854   9.528  12.314   4.655                        
  642TOCL  C1B2 7855   9.137  12.962   4.939                        
  642TOCL  D2B2 7856   9.202  13.093   4.861                        
  642TOCL  C3B2 7857   9.288  13.179   4.743                        
  642TOCL  C4B2 7858   9.394  13.305   4.648                        
  643W        W 7859  13.883  12.586   8.102                        
  644W        W 7860  13.126   4.652   1.798                        
  645W        W 7861   2.183   4.374  10.487                        
  646W        W 7862   2.228   7.466   3.632                        
  647W        W 7863   8.891   1.486   0.702                        
  648W        W 7864  10.750   4.679   0.089                        
  649W        W 7865   0.150  12.858   2.832                        
  650W        W 7866   8.323  12.498  10.593                        
  651W        W 7867  13.548   1.146  11.109                        
  652W        W 7868   6.176   5.091   9.502                        
  653W        W 7869  11.743   2.821   3.109                        
  654W        W 7870  13.378   8.007   1.749                        
  655W        W 7871   3.039   5.114   8.928                        
  656W        W 7872  13.124   1.191   1.778                        
  657W        W 7873   7.830   0.452  10.802                        
  658W        W 7874   7.801  12.057  10.823                        
  659W        W 7875   4.381   7.324  10.827                        
  660W        W 7876   1.453   7.529  10.754                        
  661W        W 7877   5.995  12.812   0.381                        
  662W        W 7878   2.795  11.221   7.826                        
  663W        W 7879   2.504  10.452  10.807                        
  664W        W 7880   3.854   5.977   2.590                        
  665W        W 7881   8.076   3.275   2.507                        
  666W        W 7882   5.654  11.739   9.476                        
  667W        W 7883   3.281   1.150  10.492                        
  668W        W 7884   9.174  10.495   8.622                        
  669W        W 7885   1.721  13.099   0.635                        
  670W        W 7886   2.780   9.945   2.240                        
  671W        W 7887   7.750   6.992   9.189                        
  672W        W 7888   0.700  13.911   1.701                        
  673W        W 7889  10.493   1.942   3.892                        
  674W        W 7890   5.117  11.464  10.743                        
  675W        W 7891   1.740  11.710  11.356                        
  676W        W 7892   4.588   8.864   7.560                        
  677W        W 7893   7.785   3.276   3.132                        
  678W        W 7894  10.378  11.025   9.735                        
  679W        W 7895   7.320  12.855   8.730                        
  680W        W 7896  12.051   2.551   3.635                        
  681W        W 7897   5.745  10.403   8.887                        
  682W        W 7898   8.051   6.507   1.783                        
  683W        W 7899   5.428  10.970  10.213                        
  684W        W 7900  13.062  10.698   3.332                        
  685W        W 7901  11.709   1.229   3.033                        
  686W        W 7902   4.041  10.420   9.243                        
  687W        W 7903  12.547   6.239   2.575                        
  688W        W 7904   4.405   0.104  11.293                        
  689W        W 7905  12.029   7.306   0.443                        
  690W        W 7906  13.573  13.546   1.779                        
  691W        W 7907  13.331   0.986   0.898                        
  692W        W 7908   8.828   1.148   9.163                        
  693W        W 7909   9.947  10.455   3.019                        
  694W        W 7910  10.469   9.697   9.514                        
  695W        W 7911   6.186   7.258  11.548                        
  696W        W 7912  13.076   5.366   0.686                        
  697W        W 7913   3.616   4.356   2.240                        
  698W        W 7914   2.194   4.621   3.656                        
  699W        W 7915   5.740   7.528  10.009                        
  700W        W 7916   8.010   8.651   2.304                        
  701W        W 7917   8.009  12.792   2.774                        
  702W        W 7918  12.002  12.602  11.371                        
  703W        W 7919   7.747  11.453  10.548                        
  704W        W 7920  12.508   8.052   0.922                        
  705W        W 7921  11.211  10.918   1.217                        
  706W        W 7922   2.264   9.649   8.689                        
  707W        W 7923   7.816   1.921   2.062                        
  708W        W 7924   4.422   8.804  10.544                        
  709W        W 7925   8.804   4.031  10.472                        
  710W        W 7926  13.553   9.058   0.169                        
  711W        W 7927   5.716   7.526   2.064                        
  712W        W 7928   4.624  11.168  11.388                        
  713W        W 7929  11.820   2.272  10.803                        
  714W        W 7930   4.381   2.713   3.107                        
  715W        W 7931   0.721   1.660   8.730                        
  716W        W 7932   8.255  13.054   8.199                        
  717W        W 7933  12.500   4.089   8.934                        
  718W        W 7934   2.798  11.433  11.625                        
  719W        W 7935   4.657   6.264   0.999                        
  720W        W 7936   3.018  12.328   9.456                        
  721W        W 7937   3.776   7.762   9.183                        
  722W        W 7938   9.438   0.115  11.536                        
  723W        W 7939  10.992   4.420   8.623                        
  724W        W 7940   1.220  10.441   0.606                        
  725W        W 7941   4.583   0.681   3.292                        
  726W        W 7942   9.353   3.282  10.559                        
  727W        W 7943  12.033   4.618  10.467                        
  728W        W 7944  10.693   6.250   9.188                        
  729W        W 7945   1.999   1.681   9.142                        
  730W        W 7946   7.858   3.298   8.358                        
  731W        W 7947  10.124  13.926  11.301                        
  732W        W 7948   7.481   1.993   0.121                        
  733W        W 7949  13.918   1.953   1.740                        
  734W        W 7950  10.969   9.342   3.559                        
  735W        W 7951  12.318   4.346   1.790                        
  736W        W 7952  12.310   9.619  10.538                        
  737W        W 7953  11.817  11.789   3.062                        
  738W        W 7954  10.230   4.361   1.488                        
  739W        W 7955   4.380   0.118  10.280                        
  740W        W 7956   3.587   0.444   2.031                        
  741W        W 7957   6.199   3.066   1.746                        
  742W        W 7958   2.181   8.629   1.796                        
  743W        W 7959   4.886  12.038   9.411                        
  744W        W 7960  10.108  10.218   3.640                        
  745W        W 7961   5.461  11.431   9.198                        
  746W        W 7962   9.442   7.517  11.102                        
  747W        W 7963  10.412   5.421   8.402                        
  748W        W 7964   2.758   5.477   3.344                        
  749W        W 7965  11.231  10.447   1.731                        
  750W        W 7966   5.910   8.329  11.362                        
  751W        W 7967   6.755   5.102   0.351                        
  752W        W 7968   3.806   3.504  11.042                        
  753W        W 7969  12.873   9.582   3.914                        
  754W        W 7970   3.548   4.086   2.483                        
  755W        W 7971   2.978  12.582   0.618                        
  756W        W 7972   1.966   9.396   8.953                        
  757W        W 7973   2.794   9.693   1.513                        
  758W        W 7974  13.389   5.181   2.500                        
  759W        W 7975   5.900  12.023  10.776                        
  760W        W 7976   4.606  11.290  11.811                        
  761W        W 7977   9.351  12.839   4.411                        
  762W        W 7978  12.007  13.653   3.596                        
  763W        W 7979   1.925   7.999  10.589                        
  764W        W 7980   4.951   1.964  10.571                        
  765W        W 7981   7.470   4.861   9.247                        
  766W        W 7982   0.899  13.099   9.724                        
  767W        W 7983   9.842   1.751  11.890                        
  768W        W 7984   3.365   2.446   2.050                        
  769W        W 7985   7.231   4.847   2.058                        
  770W        W 7986   7.750   1.921   8.415                        
  771W        W 7987   4.631   9.648   0.424                        
  772W        W 7988  11.814   0.375   9.745                        
  773W        W 7989   6.477   0.186   3.309                        
  774W        W 7990  10.669   0.678  10.551                        
  775W        W 7991  12.846   5.413   0.375                        
  776W        W 7992   2.228  10.714   0.358                        
  777W        W 7993   5.091   2.043   9.484                        
  778W        W 7994  13.856   2.512   9.780                        
  779W        W 7995   5.147   7.586  11.915                        
  780W        W 7996  12.262   1.420  10.756                        
  781W        W 7997   0.986  13.856  10.824                        
  782W        W 7998   7.266   8.071   2.526                        
  783W        W 7999  10.145   7.778  10.248                        
  784W        W 8000  11.968  10.668   3.538                        
  785W        W 8001   9.615   1.696   8.636                        
  786W        W 8002   7.020   8.292  10.802                        
  787W        W 8003   2.772  12.508   3.344                        
  788W        W 8004   0.717  10.179  11.587                        
  789W        W 8005   8.284   5.194   2.738                        
  790W        W 8006  11.987   2.190   0.694                        
  791W        W 8007   5.178   3.766   9.418                        
  792W        W 8008   3.341   1.659  11.656                        
  793W        W 8009  11.806   8.327   8.368                        
  794W        W 8010   9.057   0.860   1.419                        
  795W        W 8011   0.067   5.148   2.867                        
  796W        W 8012  11.761   6.679   3.022                        
  797W        W 8013   2.553   9.645   2.221                        
  798W        W 8014  13.293   6.789   0.668                        
  799W        W 8015   9.148  11.999   8.158                        
  800W        W 8016   8.802   2.551   0.899                        
  801W        W 8017  11.818   8.841   8.925                        
  802W        W 8018  10.156  13.341   8.726                        
  803W        W 8019   6.793  12.605   1.221                        
  804W        W 8020   6.777   4.390   2.791                        
  805W        W 8021   9.901  11.548   0.708                        
  806W        W 8022   8.339   7.772   2.545                        
  807W        W 8023   4.899  11.963   9.779                        
  808W        W 8024   0.090   8.006  10.748                        
  809W        W 8025   9.063   2.243   9.435                        
  810W        W 8026  12.853   1.176  11.123                        
  811W        W 8027  11.701   2.191   3.351                        
  812W        W 8028  10.203  10.641   9.503                        
  813W        W 8029  10.147   1.922   1.250                        
  814W        W 8030   6.410  13.392  11.353                        
  815W        W 8031   4.302  10.702   2.852                        
  816W        W 8032   0.876  12.491   0.369                        
  817W        W 8033   3.363   3.044   9.204                        
  818W        W 8034   3.001  10.908   3.382                        
  819W        W 8035  10.138  10.914   1.198                        
  820W        W 8036   9.410   2.559  10.546                        
  821W        W 8037  12.841  12.782   0.403                        
  822W        W 8038  12.803  11.497   1.175                        
  823W        W 8039   0.891   7.220  10.747                        
  824W        W 8040   7.060  12.295   0.419                        
  825W        W 8041   3.819   2.561  10.312                        
  826W        W 8042   3.238  13.642  11.870                        
  827W        W 8043   4.874  13.323  11.634                        
  828W        W 8044   1.748   7.489   3.114                        
  829W        W 8045   7.992   4.830   8.985                        
  830W        W 8046  13.340   2.566   8.987                        
  831W        W 8047   3.576   3.854   0.420                        
  832W        W 8048   7.251   0.909   0.659                        
  833W        W 8049   1.953   7.579  10.823                        
  834W        W 8050   5.627   4.397  11.376                        
  835W        W 8051   1.665   5.402   2.514                        
  836W        W 8052  10.186   6.209   0.168                        
  837W        W 8053  10.992   8.873   8.961                        
  838W        W 8054   8.082   3.088   1.232                        
  839W        W 8055   8.597  13.330  11.004                        
  840W        W 8056   2.717   4.893   9.173                        
  841W        W 8057   5.879   4.360  10.864                        
  842W        W 8058   7.541   0.376   2.266                        
  843W        W 8059  10.964   1.436  11.080                        
  844W        W 8060   9.385  13.625  10.573                        
  845W        W 8061   3.299  12.539   7.804                        
  846W        W 8062  13.614   1.773   1.935                        
  847W        W 8063   0.147  11.755   3.081                        
  848W        W 8064   9.612   5.103   1.687                        
  849W        W 8065   1.958  13.066   1.177                        
  850W        W 8066  10.486   5.431   0.147                        
  851W        W 8067   7.822   7.536  10.498                        
  852W        W 8068   5.978   5.665  11.822                        
  853W        W 8069   6.427  12.074   9.206                        
  854W        W 8070   2.516   6.480   3.396                        
  855W        W 8071  12.817  10.384   9.503                        
  856W        W 8072   1.920   6.686   7.824                        
  857W        W 8073   0.074  12.541   1.150                        
  858W        W 8074  10.141   0.191   8.912                        
  859W        W 8075  13.563   9.896  10.486                        
  860W        W 8076   9.061  12.515  11.332                        
  861W        W 8077   9.706   6.693   0.172                        
  862W        W 8078   4.098   4.086  11.847                        
  863W        W 8079   0.891   3.269   9.150                        
  864W        W 8080   2.028   8.636   1.681                        
  865W        W 8081   9.340  13.892   2.329                        
  866W        W 8082  11.729  11.816   2.064                        
  867W        W 8083   3.033   3.309   2.020                        
  868W        W 8084   3.845   5.108   0.915                        
  869W        W 8085   8.899  11.495   3.645                        
  870W        W 8086   1.946  11.709   9.777                        
  871W        W 8087   1.688  13.382  11.298                        
  872W        W 8088   8.300   1.442   8.648                        
  873W        W 8089   4.333   9.124   8.388                        
  874W        W 8090   9.946   9.373   3.369                        
  875W        W 8091  11.233  10.208   3.621                        
  876W        W 8092   9.686  12.068   3.317                        
  877W        W 8093   9.601   3.631   9.738                        
  878W        W 8094  12.492  10.224   1.463                        
  879W        W 8095   6.936   7.832   2.274                        
  880W        W 8096   9.688   0.955   0.148                        
  881W        W 8097  13.013   0.612   2.565                        
  882W        W 8098   4.947  10.212   3.601                        
  883W        W 8099  10.421   8.594   2.551                        
  884W        W 8100  12.756   2.751   1.156                        
  885W        W 8101   4.364  12.567   3.039                        
  886W        W 8102   9.906   0.627   1.166                        
  887W        W 8103   8.044   5.969   9.440                        
  888W        W 8104   6.491   5.675   0.604                        
  889W        W 8105   3.094   6.449   2.566                        
  890W        W 8106   5.172   2.815  11.925                        
  891W        W 8107  10.709  13.654   0.970                        
  892W        W 8108  13.274  11.213   3.637                        
  893W        W 8109   2.506   3.569   1.470                        
  894W        W 8110   9.102   9.429  10.490                        
  895W        W 8111  13.110   8.633   1.938                        
  896W        W 8112   0.336   1.414  11.599                        
  897W        W 8113   8.573   9.903   3.663                        
  898W        W 8114   7.811   3.619   8.452                        
  899W        W 8115   7.994   0.679  10.764                        
  900W        W 8116   6.442   0.440   0.421                        
  901W        W 8117   9.178   4.302   8.953                        
  902W        W 8118  13.370   0.121  11.644                        
  903W        W 8119   0.458   8.102  10.862                        
  904W        W 8120   9.903  11.024   3.368                        
  905W        W 8121   7.829  13.862   0.176                        
  906W        W 8122   8.647  11.761  11.887                        
  907W        W 8123  10.693   3.002  11.886                        
  908W        W 8124   0.196   8.047   9.962                        
  909W        W 8125   6.152  12.847   1.227                        
  910W        W 8126   5.730   1.990   1.160                        
  911W        W 8127   0.869   9.934   0.442                        
  912W        W 8128   1.993   1.755   7.834                        
  913W        W 8129  11.269   0.444   8.940                        
  914W        W 8130   0.978   4.887   0.383                        
  915W        W 8131   1.472  13.899  10.795                        
  916W        W 8132   3.013  11.433   8.894                        
  917W        W 8133   5.911   9.333  10.224                        
  918W        W 8134   7.496   7.276   3.619                        
  919W        W 8135   7.063   8.040   2.310                        
  920W        W 8136   3.343   5.878   8.871                        
  921W        W 8137   6.795   1.723  10.497                        
  922W        W 8138   4.375  12.845  10.309                        
  923W        W 8139   8.649  10.936  11.916                        
  924W        W 8140  12.291  10.671   9.459                        
  925W        W 8141   7.238   9.423   7.843                        
  926W        W 8142   6.725  13.550  11.355                        
  927W        W 8143   8.649   3.554   9.205                        
  928W        W 8144   9.669   5.358   3.065                        
  929W        W 8145   5.698   6.733  10.030                        
  930W        W 8146   6.526   6.674   9.230                        
  931W        W 8147   7.823  10.492   1.743                        
  932W        W 8148   5.974   6.715   9.246                        
  933W        W 8149   5.734  11.749   9.248                        
  934W        W 8150   5.174  11.431   0.623                        
  935W        W 8151   7.763   9.594   2.233                        
  936W        W 8152   1.993   1.222   0.072                        
  937W        W 8153   6.792   3.366   0.940                        
  938W        W 8154   7.264   0.919   8.684                        
  939W        W 8155  13.315  12.333   1.731                        
  940W        W 8156   9.347   9.113   1.261                        
  941W        W 8157  13.096  10.203   3.651                        
  942W        W 8158   0.647   4.047   0.196                        
  943W        W 8159   3.590   4.042  10.210                        
  944W        W 8160   7.585  11.528  11.381                        
  945W        W 8161   7.235   2.030   7.898                        
  946W        W 8162   4.413   0.396   2.815                        
  947W        W 8163  10.710   0.960  10.035                        
  948W        W 8164   8.047   4.840   4.078                        
  949W        W 8165   7.536   2.571   8.412                        
  950W        W 8166   8.263   8.343   3.315                        
  951W        W 8167  13.384  13.554  10.572                        
  952W        W 8168   3.874   8.089   9.422                        
  953W        W 8169  10.462   6.443  10.863                        
  954W        W 8170   2.462   6.779   2.796                        
  955W        W 8171   7.837  11.755   0.707                        
  956W        W 8172  10.758   0.976   9.738                        
  957W        W 8173   9.665   9.607  11.653                        
  958W        W 8174  10.976   9.656   9.683                        
  959W        W 8175   8.603   1.674   3.025                        
  960W        W 8176   6.432   1.748   8.604                        
  961W        W 8177   2.750   6.407   1.462                        
  962W        W 8178   3.337  11.994   1.137                        
  963W        W 8179  12.022   8.651   0.695                        
  964W        W 8180   2.024  12.594   1.264                        
  965W        W 8181  13.362   0.860  11.327                        
  966W        W 8182   4.900   0.915  11.894                        
  967W        W 8183   7.593   0.357   0.386                        
  968W        W 8184   2.548   4.634  11.061                        
  969W        W 8185   5.917  12.863   3.302                        
  970W        W 8186   1.984   9.607   2.328                        
  971W        W 8187   6.461  12.564   3.112                        
  972W        W 8188   3.892   9.863   1.957                        
  973W        W 8189   0.659  12.514  11.889                        
  974W        W 8190   4.366   1.723   9.979                        
  975W        W 8191   1.734   1.423   3.583                        
  976W        W 8192   3.849  10.196   2.785                        
  977W        W 8193  11.777  10.643  11.584                        
  978W        W 8194  12.241  12.254   2.596                        
  979W        W 8195   7.765  12.574   8.729                        
  980W        W 8196   7.825  10.965  10.787                        
  981W        W 8197   6.257   6.228   3.320                        
  982W        W 8198   3.271  12.824   2.798                        
  983W        W 8199   7.562   3.300   0.615                        
  984W        W 8200  10.669  10.399   3.347                        
  985W        W 8201   2.222  11.164   8.974                        
  986W        W 8202   0.389   1.252   1.468                        
  987W        W 8203   2.717   8.815  11.067                        
  988W        W 8204   4.100  12.318  11.337                        
  989W        W 8205   7.055  12.324   0.618                        
  990W        W 8206  10.390   0.979  11.040                        
  991W        W 8207  13.921   2.028   9.179                        
  992W        W 8208   4.637   9.939   0.123                        
  993W        W 8209   1.392  13.136   1.975                        
  994W        W 8210   3.875  11.745   8.984                        
  995W        W 8211   1.466   3.014   0.465                        
  996W        W 8212  11.793   1.672   3.569                        
  997W        W 8213   8.111   2.201   0.701                        
  998W        W 8214   1.926   6.222   3.598                        
  999W        W 8215   8.608   4.951   2.770                        
 1000W        W 8216   4.629   1.125   2.257                        
 1001W        W 8217   0.896   7.806   0.465                        
 1002W        W 8218   8.087  10.494   1.419                        
 1003W        W 8219  10.677   3.610   8.981                        
 1004W        W 8220  11.244  13.346   0.604                        
 1005W        W 8221  10.416  10.930   2.018                        
 1006W        W 8222  10.111   7.789   8.721                        
 1007W        W 8223  10.192  11.746   1.220                        
 1008W        W 8224   9.626   8.348   3.555                        
 1009W        W 8225  11.273   1.968   0.983                        
 1010W        W 8226   2.212   4.832   8.189                        
 1011W        W 8227   1.951   3.618   0.618                        
 1012W        W 8228   7.755   4.903   9.762                        
 1013W        W 8229  10.412   7.275   0.899                        
 1014W        W 8230  10.373   6.423   7.610                        
 1015W        W 8231  10.123   1.732   3.067                        
 1016W        W 8232   8.116   6.700   0.656                        
 1017W        W 8233   0.720   5.129  11.655                        
 1018W        W 8234   8.569  10.493   8.366                        
 1019W        W 8235   1.143   5.943   1.794                        
 1020W        W 8236   3.598   8.614   8.608                        
 1021W        W 8237   3.874   5.629   1.416                        
 1022W        W 8238   8.536  11.460   2.000                        
 1023W        W 8239   8.874   5.982   9.960                        
 1024W        W 8240   6.487   5.987  10.759                        
 1025W        W 8241  12.769  11.192   3.081                        
 1026W        W 8242   2.209   4.920   3.274                        
 1027W        W 8243   9.129  10.171   9.138                        
 1028W        W 8244   8.904  10.908   2.497                        
 1029W        W 8245   7.251   1.767   7.647                        
 1030W        W 8246  10.982  10.375   0.942                        
 1031W        W 8247  10.196   6.772  11.071                        
 1032W        W 8248  11.727  11.531   1.186                        
 1033W        W 8249  12.313   5.977   0.656                        
 1034W        W 8250   0.881   0.660   3.548                        
 1035W        W 8251   9.930   9.104   1.473                        
 1036W        W 8252   5.460  11.191   8.924                        
 1037W        W 8253   3.078  10.171  10.751                        
 1038W        W 8254   6.958   2.297   0.976                        
 1039W        W 8255  12.797   2.258   9.138                        
 1040W        W 8256   8.544   7.745  10.500                        
 1041W        W 8257   7.491  12.857   1.678                        
 1042W        W 8258  13.591   2.244  11.050                        
 1043W        W 8259  10.403   4.297   9.446                        
 1044W        W 8260   8.817   0.724  10.316                        
 1045W        W 8261   7.036   5.453   1.671                        
 1046W        W 8262   4.093   1.142   1.799                        
 1047W        W 8263  12.827  10.994  10.745                        
 1048W        W 8264   4.558  11.959  10.846                        
 1049W        W 8265  13.654  11.468   9.142                        
 1050W        W 8266   6.207   5.920   1.158                        
 1051W        W 8267   0.352   3.337   2.288                        
 1052W        W 8268   2.470   3.843   8.351                        
 1053W        W 8269   1.475  10.996  11.816                        
 1054W        W 8270  10.935   6.532   9.740                        
 1055W        W 8271   3.003   2.731   3.122                        
 1056W        W 8272   0.688  12.028   0.368                        
 1057W        W 8273   7.858  10.131   8.652                        
 1058W        W 8274   6.965   4.044   8.659                        
 1059W        W 8275  10.480   9.898   8.679                        
 1060W        W 8276  12.245   7.464   1.140                        
 1061W        W 8277  11.540   5.959   8.873                        
 1062W        W 8278   9.849   5.103  11.019                        
 1063W        W 8279   0.647   1.702  10.596                        
 1064W        W 8280   8.371   0.413   9.986                        
 1065W        W 8281   6.471  13.057   8.700                        
 1066W        W 8282   8.549   0.979   2.271                        
 1067W        W 8283   3.008   6.147   2.051                        
 1068W        W 8284   0.460  11.460   3.605                        
 1069W        W 8285   4.054   5.124  10.024                        
 1070W        W 8286   7.475   1.227   9.730                        
 1071W        W 8287  13.309   3.008   9.258                        
 1072W        W 8288   1.419   2.207   8.952                        
 1073W        W 8289   1.997  12.847   9.465                        
 1074W        W 8290   3.042   0.396   1.495                        
 1075W        W 8291   7.329  11.728  10.776                        
 1076W        W 8292   2.204   0.688   8.400                        
 1077W        W 8293   0.432  13.055   0.632                        
 1078W        W 8294  12.228   4.871   3.845                        
 1079W        W 8295   9.912   8.825   2.571                        
 1080W        W 8296   8.864  13.014   4.448                        
 1081W        W 8297   3.569  12.767   8.965                        
 1082W        W 8298   5.206   9.357   0.660                        
 1083W        W 8299   4.683  12.321   1.699                        
 1084W        W 8300   0.899   5.110  10.038                        
 1085W        W 8301   0.101   1.210   3.002                        
 1086W        W 8302   0.144  13.542   2.300                        
 1087W        W 8303  10.428  12.582   0.378                        
 1088W        W 8304   4.038   6.705   9.416                        
 1089W        W 8305  11.204   2.979   0.679                        
 1090W        W 8306   1.757  10.751   3.052                        
 1091W        W 8307  12.283   5.704   3.097                        
 1092W        W 8308   3.835   2.447   0.708                        
 1093W        W 8309   6.957   3.576   2.500                        
 1094W        W 8310  12.856   5.978   8.628                        
 1095W        W 8311   9.440   1.195   8.727                        
 1096W        W 8312  11.814   6.687   2.028                        
 1097W        W 8313   3.056   1.408   9.742                        
 1098W        W 8314   6.199   9.898   8.347                        
 1099W        W 8315   0.945  12.324   8.937                        
 1100W        W 8316  12.293   6.731   8.460                        
 1101W        W 8317  12.298   3.365   8.708                        
 1102W        W 8318  12.571   4.299   9.173                        
 1103W        W 8319  12.852   0.434  11.853                        
 1104W        W 8320  12.314   7.212   2.265                        
 1105W        W 8321  12.830   2.307   3.560                        
 1106W        W 8322   7.558  13.330   1.522                        
 1107W        W 8323   8.611   8.015  10.747                        
 1108W        W 8324   3.084   6.714  11.331                        
 1109W        W 8325   0.598   4.118   2.859                        
 1110W        W 8326   1.178   9.909   9.995                        
 1111W        W 8327   7.586  12.082  11.807                        
 1112W        W 8328   7.810   1.138   8.421                        
 1113W        W 8329   2.785   6.444   9.159                        
 1114W        W 8330   1.399  12.037   2.517                        
 1115W        W 8331   5.671   1.411  10.057                        
 1116W        W 8332  13.393   0.429   1.672                        
 1117W        W 8333  10.199   9.094  11.310                        
 1118W        W 8334   5.155   0.991  11.113                        
 1119W        W 8335   1.124   9.065   9.687                        
 1120W        W 8336   8.640   1.510   1.781                        
 1121W        W 8337   0.192   2.006  10.473                        
 1122W        W 8338  12.818   9.686  10.803                        
 1123W        W 8339  12.241   4.625   3.601                        
 1124W        W 8340   4.079  10.759  10.315                        
 1125W        W 8341  12.820   6.796  10.268                        
 1126W        W 8342  10.917   0.675   1.462                        
 1127W        W 8343   6.943   3.069  10.226                        
 1128W        W 8344  12.848   9.422  11.330                        
 1129W        W 8345   8.889  13.130   7.562                        
 1130W        W 8346   6.223  12.606   1.517                        
 1131W        W 8347  12.863  11.455   0.120                        
 1132W        W 8348   7.998   6.411   2.241                        
 1133W        W 8349  13.120  10.199   9.478                        
 1134W        W 8350  11.775   6.408   2.277                        
 1135W        W 8351   7.039  11.962   9.789                        
 1136W        W 8352  13.879  11.433   0.730                        
 1137W        W 8353  10.390   8.635   3.059                        
 1138W        W 8354   4.904   4.160  11.623                        
 1139W        W 8355  11.248   9.911   9.699                        
 1140W        W 8356   7.245   8.311  10.747                        
 1141W        W 8357   5.684   9.107  11.015                        
 1142W        W 8358   9.888   9.153   8.719                        
 1143W        W 8359   7.773  13.291   9.520                        
 1144W        W 8360   0.186   1.691   0.972                        
 1145W        W 8361  11.801   8.605  11.557                        
 1146W        W 8362   9.062   9.846   9.216                        
 1147W        W 8363   2.798   5.163   2.743                        
 1148W        W 8364   4.578   0.086   9.248                        
 1149W        W 8365   3.785   1.687  10.755                        
 1150W        W 8366   5.124   1.445   9.475                        
 1151W        W 8367   9.894   7.258   8.671                        
 1152W        W 8368  12.268  11.221  11.627                        
 1153W        W 8369   8.623  12.260   0.618                        
 1154W        W 8370   5.475  11.428  10.323                        
 1155W        W 8371  10.409   9.901   1.991                        
 1156W        W 8372   9.410   5.408   2.493                        
 1157W        W 8373   0.860   5.963   2.828                        
 1158W        W 8374  12.592   4.860   8.148                        
 1159W        W 8375   1.184   2.834   8.650                        
 1160W        W 8376   1.968   1.476   2.545                        
 1161W        W 8377   9.358  10.435   2.206                        
 1162W        W 8378   6.501   2.713   9.772                        
 1163W        W 8379   4.883   4.075  10.823                        
 1164W        W 8380   4.409  13.822   1.257                        
 1165W        W 8381   8.097   2.541   8.716                        
 1166W        W 8382  12.859  11.806   9.254                        
 1167W        W 8383   7.255   2.735  11.096                        
 1168W        W 8384   0.657   0.338   2.799                        
 1169W        W 8385  11.527  10.636   2.031                        
 1170W        W 8386   0.447   4.041   2.319                        
 1171W        W 8387   0.095  11.975   1.225                        
 1172W        W 8388   9.338   1.715   0.129                        
 1173W        W 8389   7.523   5.724   0.946                        
 1174W        W 8390   8.375  13.088   3.055                        
 1175W        W 8391  11.503   3.869   0.162                        
 1176W        W 8392   7.025   2.256   3.632                        
 1177W        W 8393   3.573   6.423  10.839                        
 1178W        W 8394  13.088   5.138  11.622                        
 1179W        W 8395  10.451  12.849   9.179                        
 1180W        W 8396  12.609  10.696   7.816                        
 1181W        W 8397   6.419   0.608  11.843                        
 1182W        W 8398  12.548  13.932   0.393                        
 1183W        W 8399   9.374   6.525  11.603                        
 1184W        W 8400   8.256   1.178  10.559                        
 1185W        W 8401   1.236   8.645   0.095                        
 1186W        W 8402   0.122  12.848   0.654                        
 1187W        W 8403  13.850   2.771  11.614                        
 1188W        W 8404   9.129   1.670  11.806                        
 1189W        W 8405  11.734   7.851   8.442                        
 1190W        W 8406   3.539   1.948  10.480                        
 1191W        W 8407   4.077   7.763   0.071                        
 1192W        W 8408  10.983  12.749   2.837                        
 1193W        W 8409   5.112  10.173   1.188                        
 1194W        W 8410   5.359   0.884  11.314                        
 1195W        W 8411   4.371   7.753   9.251                        
 1196W        W 8412   9.674  13.565   9.491                        
 1197W        W 8413  10.983   6.944   2.785                        
 1198W        W 8414   9.097   8.337   9.484                        
 1199W        W 8415   2.770   7.005   8.881                        
 1200W        W 8416   5.105   7.568   3.278                        
 1201W        W 8417   3.103   3.052  10.036                        
 1202W        W 8418   9.093   0.965  11.557                        
 1203W        W 8419   4.592   6.691  10.211                        
 1204W        W 8420   6.441  11.469   1.447                        
 1205W        W 8421   6.450   8.872   2.232                        
 1206W        W 8422  11.790   1.209   2.761                        
 1207W        W 8423   0.602   4.328   0.668                        
 1208W        W 8424  11.223  11.515   0.966                        
 1209W        W 8425   8.122   3.281   0.694                        
 1210W        W 8426  10.660   9.965  10.593                        
 1211W        W 8427   6.196   0.882   4.345                        
 1212W        W 8428   6.469   4.822   2.535                        
 1213W        W 8429  11.964   5.130  10.207                        
 1214W        W 8430  10.471   2.574   1.683                        
 1215W        W 8431   0.939   5.432   8.905                        
 1216W        W 8432   2.535   5.400  10.794                        
 1217W        W 8433   3.535   8.799  10.472                        
 1218W        W 8434   5.940   9.412   0.346                        
 1219W        W 8435  12.506   9.413   8.434                        
 1220W        W 8436   8.581   0.643  11.280                        
 1221W        W 8437   8.012   6.435   0.628                        
 1222W        W 8438   0.876  11.503   1.698                        
 1223W        W 8439  12.523  12.771   9.422                        
 1224W        W 8440   5.217   7.812   0.099                        
 1225W        W 8441   8.899   2.547   9.418                        
 1226W        W 8442   5.422  13.659   1.490                        
 1227W        W 8443   8.528   3.330   8.447                        
 1228W        W 8444   3.801  12.605   0.708                        
 1229W        W 8445  13.816   5.380  10.040                        
 1230W        W 8446   5.145   0.938   0.984                        
 1231W        W 8447   5.144   6.677   8.441                        
 1232W        W 8448  12.318  10.934   3.637                        
 1233W        W 8449   0.340   1.198   9.430                        
 1234W        W 8450   3.772   2.195   8.342                        
 1235W        W 8451  12.249  13.617  10.777                        
 1236W        W 8452   9.844   9.332   0.951                        
 1237W        W 8453   9.344   9.098   8.729                        
 1238W        W 8454   1.720   7.466  11.635                        
 1239W        W 8455   7.270   0.110  10.832                        
 1240W        W 8456  10.921  11.517   0.896                        
 1241W        W 8457   8.906   3.102   2.570                        
 1242W        W 8458   8.098   4.684   8.913                        
 1243W        W 8459   8.539   2.530  11.048                        
 1244W        W 8460  12.747   7.045   0.895                        
 1245W        W 8461   8.284   4.092  11.046                        
 1246W        W 8462   3.038   6.238   3.666                        
 1247W        W 8463   1.733   9.594   2.783                        
 1248W        W 8464   8.036   6.997   0.881                        
 1249W        W 8465   1.396   5.952   2.062                        
 1250W        W 8466   5.469   0.140  11.065                        
 1251W        W 8467   3.100   1.227   7.819                        
 1252W        W 8468  10.971   7.004  11.079                        
 1253W        W 8469   9.167   2.504  11.925                        
 1254W        W 8470  11.173   0.980   0.731                        
 1255W        W 8471   3.607  11.534   2.292                        
 1256W        W 8472   5.709  10.724   3.392                        
 1257W        W 8473   7.531  10.928  11.348                        
 1258W        W 8474  11.445   1.253   3.327                        
 1259W        W 8475   8.364   9.579  11.062                        
 1260W        W 8476   7.206   5.374  10.055                        
 1261W        W 8477   7.287  12.858   2.045                        
 1262W        W 8478   1.156  10.685   2.832                        
 1263W        W 8479   0.896  10.478   8.673                        
 1264W        W 8480   0.148  13.275   1.206                        
 1265W        W 8481   9.153   7.024   0.871                        
 1266W        W 8482   2.032  11.428   0.378                        
 1267W        W 8483   5.687   1.226  10.247                        
 1268W        W 8484  10.211   6.500   9.133                        
 1269W        W 8485   7.589  13.909  11.624                        
 1270W        W 8486   5.394  13.047   9.791                        
 1271W        W 8487   0.098   4.875  11.087                        
 1272W        W 8488  10.455   8.830   9.439                        
 1273W        W 8489   8.913  13.093   7.853                        
 1274W        W 8490   0.904   8.569   8.400                        
 1275W        W 8491   2.575  11.478   8.372                        
 1276W        W 8492   6.975  12.762   9.181                        
 1277W        W 8493   5.724   6.781   0.435                        
 1278W        W 8494   6.994   9.379   8.636                        
 1279W        W 8495  10.161   4.565  11.814                        
 1280W        W 8496   9.912   6.985   8.677                        
 1281W        W 8497   0.600  13.085   8.153                        
 1282W        W 8498   8.560  10.721   3.043                        
 1283W        W 8499   9.317   0.712  10.474                        
 1284W        W 8500   7.560   1.759   4.121                        
 1285W        W 8501  12.611   2.530  10.760                        
 1286W        W 8502   4.057   7.254   0.905                        
 1287W        W 8503   6.419   7.527   8.607                        
 1288W        W 8504   2.250  12.521   1.467                        
 1289W        W 8505   4.042   6.184  11.552                        
 1290W        W 8506  11.175   7.507  10.256                        
 1291W        W 8507   6.674   4.049   9.156                        
 1292W        W 8508   0.099   3.867  11.362                        
 1293W        W 8509   1.670   7.532   2.522                        
 1294W        W 8510  12.792  12.559   8.656                        
 1295W        W 8511  12.512  11.711   1.182                        
 1296W        W 8512   7.590  12.855   0.076                        
 1297W        W 8513  11.755   0.693   8.465                        
 1298W        W 8514  10.702   6.165   3.922                        
 1299W        W 8515   1.680  11.254   9.174                        
 1300W        W 8516   3.623   2.711  11.844                        
 1301W        W 8517   2.525   4.886  10.535                        
 1302W        W 8518   2.215   8.264   9.157                        
 1303W        W 8519   9.325   6.220   0.942                        
 1304W        W 8520  12.000  11.531   1.254                        
 1305W        W 8521   4.563  10.149   1.685                        
 1306W        W 8522   7.008  12.019   9.170                        
 1307W        W 8523   3.256   4.586   1.689                        
 1308W        W 8524   8.343   3.589   2.047                        
 1309W        W 8525   5.407  11.752   2.063                        
 1310W        W 8526  10.190   5.105   9.230                        
 1311W        W 8527   7.776   7.234   8.351                        
 1312W        W 8528  10.204  12.320  10.549                        
 1313W        W 8529   2.802   7.731   3.102                        
 1314W        W 8530  12.269   4.853   3.080                        
 1315W        W 8531   8.325   0.429   1.202                        
 1316W        W 8532   0.862   8.115   9.672                        
 1317W        W 8533   8.870   4.863   0.944                        
 1318W        W 8534  12.851   2.722   2.843                        
 1319W        W 8535   4.365   6.474   1.741                        
 1320W        W 8536   7.329   8.855   9.795                        
 1321W        W 8537   0.630   5.442  10.585                        
 1322W        W 8538  10.979   7.237   1.788                        
 1323W        W 8539   1.196   5.090   1.517                        
 1324W        W 8540  13.032   3.869   8.464                        
 1325W        W 8541   8.261  11.274  11.318                        
 1326W        W 8542   3.236  13.126  11.828                        
 1327W        W 8543   0.456   2.546  10.806                        
 1328W        W 8544   0.143  13.048   3.559                        
 1329W        W 8545   4.062   1.976   2.789                        
 1330W        W 8546   9.635  10.460   4.160                        
 1331W        W 8547   9.078   7.228  10.521                        
 1332W        W 8548   2.204   7.469   9.951                        
 1333W        W 8549   3.043  12.275   2.057                        
 1334W        W 8550   6.975   7.784   0.660                        
 1335W        W 8551   2.976   9.626   0.998                        
 1336W        W 8552  12.585  13.896   9.198                        
 1337W        W 8553   5.630   9.961   2.752                        
 1338W        W 8554   0.605   2.540  11.352                        
 1339W        W 8555   5.142   5.366  11.591                        
 1340W        W 8556  12.339  11.228   0.125                        
 1341W        W 8557   6.530   4.601  10.010                        
 1342W        W 8558   5.725   9.602   2.046                        
 1343W        W 8559   0.959  10.140   1.196                        
 1344W        W 8560  11.466   0.376   3.833                        
 1345W        W 8561   8.361   0.082   8.998                        
 1346W        W 8562  13.810   1.396  11.647                        
 1347W        W 8563   4.347   7.465   3.037                        
 1348W        W 8564   9.863  10.693   8.405                        
 1349W        W 8565   7.747  11.495  11.039                        
 1350W        W 8566  10.743  10.965   0.128                        
 1351W        W 8567   0.615   6.225   2.485                        
 1352W        W 8568  11.746   6.430   8.627                        
 1353W        W 8569   7.284  12.033   8.659                        
 1354W        W 8570   3.071  13.623   3.013                        
 1355W        W 8571   8.808   2.015   1.187                        
 1356W        W 8572   9.315   4.679   2.521                        
 1357W        W 8573   7.328   3.542  11.878                        
 1358W        W 8574   8.647  10.709   9.155                        
 1359W        W 8575   1.240   8.301   2.313                        
 1360W        W 8576   2.469   9.172   3.561                        
 1361W        W 8577   1.450  10.395   8.180                        
 1362W        W 8578  10.179  10.905   1.783                        
 1363W        W 8579   7.299   5.137   1.265                        
 1364W        W 8580   2.304  13.590   8.924                        
 1365W        W 8581   6.008  12.563  10.801                        
 1366W        W 8582   6.780   5.712   0.365                        
 1367W        W 8583  11.692   8.800   2.473                        
 1368W        W 8584   8.615  11.014   9.467                        
 1369W        W 8585  12.771   4.379   3.626                        
 1370W        W 8586   2.465  11.797  10.537                        
 1371W        W 8587   2.225  12.551   9.162                        
 1372W        W 8588  12.219   8.056   0.613                        
 1373W        W 8589   5.937   5.369   0.191                        
 1374W        W 8590   1.250   4.836   1.675                        
 1375W        W 8591  12.251  12.293   0.688                        
 1376W        W 8592  12.051   8.256  11.920                        
 1377W        W 8593   5.198   9.934   9.523                        
 1378W        W 8594   4.134   7.283  10.028                        
 1379W        W 8595  13.802   9.124   8.902                        
 1380W        W 8596  10.640   4.304   3.612                        
 1381W        W 8597  12.517   9.678   2.844                        
 1382W        W 8598  10.484  13.354  10.261                        
 1383W        W 8599  13.141   2.476   2.793                        
 1384W        W 8600  12.294   5.963   0.964                        
 1385W        W 8601   1.971   9.153   3.624                        
 1386W        W 8602  10.661   8.083  11.100                        
 1387W        W 8603  11.981   0.456   3.377                        
 1388W        W 8604  11.813   0.657   1.182                        
 1389W        W 8605   1.746   4.826   8.994                        
 1390W        W 8606   0.141   3.570   0.364                        
 1391W        W 8607   0.383   7.315   3.283                        
 1392W        W 8608  12.242  13.127   9.934                        
 1393W        W 8609   2.249  11.760  11.059                        
 1394W        W 8610   5.480   6.777   1.174                        
 1395W        W 8611   4.296  13.094   3.296                        
 1396W        W 8612   9.434  13.320   2.298                        
 1397W        W 8613   5.899  12.082  11.320                        
 1398W        W 8614   2.780   3.508   2.292                        
 1399W        W 8615   3.611   8.541  11.113                        
 1400W        W 8616   1.414  10.425   0.993                        
 1401W        W 8617   3.278  13.596   0.185                        
 1402W        W 8618   1.153   8.293  10.570                        
 1403W        W 8619   2.288   6.516  10.467                        
 1404W        W 8620   1.403   0.358   9.981                        
 1405W        W 8621   3.552   9.126  11.826                        
 1406W        W 8622   2.305   8.907   9.716                        
 1407W        W 8623   6.171   9.598   0.154                        
 1408W        W 8624   9.890  12.226   7.555                        
 1409W        W 8625  13.031  11.012  10.790                        
 1410W        W 8626   5.740   9.616   9.139                        
 1411W        W 8627   7.287   3.250   9.687                        
 1412W        W 8628  13.898   2.493   3.120                        
 1413W        W 8629   0.899   9.360  11.833                        
 1414W        W 8630  10.947   9.842   2.037                        
 1415W        W 8631   0.612   1.517   2.042                        
 1416W        W 8632   3.302   2.182  11.381                        
 1417W        W 8633   5.742   4.424   8.629                        
 1418W        W 8634   8.075   9.127   9.491                        
 1419W        W 8635   4.942  11.783  11.857                        
 1420W        W 8636   5.654   7.727   9.688                        
 1421W        W 8637   6.445   8.618   1.779                        
 1422W        W 8638   9.684   3.303   3.286                        
 1423W        W 8639   4.881  10.212   8.896                        
 1424W        W 8640   3.334   5.205   1.238                        
 1425W        W 8641   5.380   1.428   2.298                        
 1426W        W 8642  11.521   5.880   9.415                        
 1427W        W 8643   9.956   8.006   3.076                        
 1428W        W 8644   8.830  12.044   0.646                        
 1429W        W 8645   7.233   4.059   0.653                        
 1430W        W 8646   4.122  11.024   2.279                        
 1431W        W 8647   5.423   4.631  11.654                        
 1432W        W 8648   1.753  12.296  10.295                        
 1433W        W 8649  10.500  11.776  10.318                        
 1434W        W 8650   7.753   3.883   0.695                        
 1435W        W 8651  12.528  13.361   1.684                        
 1436W        W 8652   3.606  11.517  10.756                        
 1437W        W 8653   6.718   9.358   7.918                        
 1438W        W 8654  11.221   0.652   0.407                        
 1439W        W 8655   4.662   2.815   0.126                        
 1440W        W 8656  12.327   2.278  11.267                        
 1441W        W 8657   7.210   0.691   1.781                        
 1442W        W 8658   9.964   6.984   0.425                        
 1443W        W 8659   6.799   7.263  11.921                        
 1444W        W 8660   3.001   2.458   9.528                        
 1445W        W 8661   3.820   3.535   0.691                        
 1446W        W 8662   7.260   6.186   9.136                        
 1447W        W 8663  11.503   3.828   9.193                        
 1448W        W 8664   6.793   1.125   0.651                        
 1449W        W 8665   7.037   6.198   3.013                        
 1450W        W 8666  12.341   9.968   9.262                        
 1451W        W 8667   4.040  13.309   2.008                        
 1452W        W 8668   0.608   4.599  11.358                        
 1453W        W 8669   7.216  12.308   3.905                        
 1454W        W 8670  10.207   3.800   3.367                        
 1455W        W 8671  12.564  13.649   2.564                        
 1456W        W 8672   8.829   0.636   0.095                        
 1457W        W 8673  13.065   9.629  11.272                        
 1458W        W 8674  13.300  10.998   1.982                        
 1459W        W 8675   0.458   4.874   8.872                        
 1460W        W 8676   1.921  13.080   9.162                        
 1461W        W 8677   8.650  13.039   9.218                        
 1462W        W 8678   7.056   7.846  11.323                        
 1463W        W 8679   9.141   4.590  10.229                        
 1464W        W 8680   6.493   4.111  10.476                        
 1465W        W 8681  11.476   9.932   3.079                        
 1466W        W 8682   1.751   6.690   0.176                        
 1467W        W 8683  13.011  11.700   4.145                        
 1468W        W 8684   1.150   6.503   2.559                        
 1469W        W 8685   5.119  10.743   8.424                        
 1470W        W 8686   4.616   9.694   9.728                        
 1471W        W 8687   7.473   9.586   8.938                        
 1472W        W 8688   9.367   3.595  11.590                        
 1473W        W 8689  10.161   0.887  11.872                        
 1474W        W 8690   2.465  11.425   1.730                        
 1475W        W 8691   2.769   5.459   2.049                        
 1476W        W 8692   7.830   3.084   0.430                        
 1477W        W 8693   2.515   4.089  11.874                        
 1478W        W 8694  10.979  10.161   4.362                        
 1479W        W 8695  10.106   4.093   0.081                        
 1480W        W 8696   6.670  10.903  10.793                        
 1481W        W 8697   7.030   2.733   8.688                        
 1482W        W 8698   7.217   2.011   0.146                        
 1483W        W 8699   0.666  11.719  11.080                        
 1484W        W 8700   5.174   5.645   1.189                        
 1485W        W 8701   4.054   7.821   2.212                        
 1486W        W 8702  12.589   3.016   0.891                        
 1487W        W 8703   5.465   9.898   8.339                        
 1488W        W 8704   2.466   8.872   1.436                        
 1489W        W 8705   0.667   5.193  11.357                        
 1490W        W 8706  11.972   6.445   9.432                        
 1491W        W 8707  10.720   4.888   2.300                        
 1492W        W 8708   4.416  13.573   9.482                        
 1493W        W 8709  13.111   8.805   2.051                        
 1494W        W 8710  10.642   5.202  11.000                        
 1495W        W 8711   1.157  11.027   2.290                        
 1496W        W 8712  10.137   7.283  11.100                        
 1497W        W 8713   0.870   2.287  10.482                        
 1498W        W 8714  13.362   5.126   3.865                        
 1499W        W 8715  12.010   0.172  11.851                        
 1500W        W 8716   5.449  11.263   9.442                        
 1501W        W 8717   2.046   5.714   4.127                        
 1502W        W 8718   7.528  13.340   2.009                        
 1503W        W 8719   9.953   0.338   2.019                        
 1504W        W 8720   5.946   8.626   3.282                        
 1505W        W 8721  12.779   1.469   7.818                        
 1506W        W 8722  11.182   0.919   0.148                        
 1507W        W 8723   6.962   1.710  11.647                        
 1508W        W 8724   3.080   4.072   1.745                        
 1509W        W 8725   3.059  13.399  11.120                        
 1510W        W 8726   7.326   9.841   8.342                        
 1511W        W 8727   7.843   1.222   7.613                        
 1512W        W 8728   8.048   8.542   1.750                        
 1513W        W 8729  11.784   1.959   2.539                        
 1514W        W 8730   5.100  11.207   0.338                        
 1515W        W 8731   7.737   5.626  10.783                        
 1516W        W 8732   2.572   0.457   0.338                        
 1517W        W 8733   8.825   2.530   1.776                        
 1518W        W 8734   3.770   9.905   0.608                        
 1519W        W 8735   8.798   3.286  11.884                        
 1520W        W 8736   2.242  10.142   0.634                        
 1521W        W 8737  10.219   0.458   8.625                        
 1522W        W 8738   5.642  11.264   1.140                        
 1523W        W 8739   8.550   8.910   9.262                        
 1524W        W 8740  13.575  10.758   9.187                        
 1525W        W 8741   7.511   7.794   1.147                        
 1526W        W 8742   0.378   1.401   9.176                        
 1527W        W 8743  11.532   9.843   9.455                        
 1528W        W 8744   0.384   7.234   9.440                        
 1529W        W 8745   1.776   0.605   1.778                        
 1530W        W 8746   1.773  12.487  11.081                        
 1531W        W 8747   9.085   3.262   8.881                        
 1532W        W 8748   7.800   7.065   2.027                        
 1533W        W 8749   0.656   8.289   1.692                        
 1534W        W 8750   4.141   3.030   1.686                        
 1535W        W 8751   9.343   6.212   9.153                        
 1536W        W 8752  11.497   0.950   8.336                        
 1537W        W 8753   9.132   6.180   0.685                        
 1538W        W 8754   5.939   5.403   7.883                        
 1539W        W 8755   5.617   3.850   3.331                        
 1540W        W 8756   6.510   5.978   1.730                        
 1541W        W 8757   7.740   5.655   2.479                        
 1542W        W 8758   3.567  13.913   0.465                        
 1543W        W 8759  11.722   3.890   2.527                        
 1544W        W 8760   1.994   4.613   3.380                        
 1545W        W 8761   0.720  12.875  10.040                        
 1546W        W 8762  10.963  10.228   3.296                        
 1547W        W 8763  11.498   3.872  10.480                        
 1548W        W 8764  12.810   3.028   8.360                        
 1549W        W 8765   6.198   6.502   8.720                        
 1550W        W 8766   7.247   2.289   3.333                        
 1551W        W 8767  10.146   2.039   2.033                        
 1552W        W 8768   8.535   4.659  10.793                        
 1553W        W 8769   0.717   0.596   1.428                        
 1554W        W 8770   9.697   9.396   9.176                        
 1555W        W 8771   0.722   8.013   9.189                        
 1556W        W 8772   1.681   4.367   8.163                        
 1557W        W 8773   8.282  11.814   2.225                        
 1558W        W 8774   8.914   5.914  11.658                        
 1559W        W 8775  10.432  11.789  11.631                        
 1560W        W 8776   0.178   1.926   2.031                        
 1561W        W 8777  12.226  12.840   2.491                        
 1562W        W 8778  12.798  11.530   3.346                        
 1563W        W 8779   1.455  10.216   3.125                        
 1564W        W 8780   4.134  10.449   0.375                        
 1565W        W 8781   3.069   1.939  10.855                        
 1566W        W 8782   0.948  11.963   2.286                        
 1567W        W 8783   0.899  13.618   2.304                        
 1568W        W 8784   9.649   3.840  11.832                        
 1569W        W 8785  13.046   7.464   1.148                        
 1570W        W 8786   9.860   4.327  11.269                        
 1571W        W 8787   9.957   5.194   3.101                        
 1572W        W 8788  11.728  10.413   9.163                        
 1573W        W 8789   6.241   9.682  10.065                        
 1574W        W 8790   3.779   5.926   3.293                        
 1575W        W 8791   4.413   6.988   9.714                        
 1576W        W 8792   7.531  11.283   3.638                        
 1577W        W 8793  13.022  11.256   8.991                        
 1578W        W 8794  10.122  12.282   8.142                        
 1579W        W 8795   6.756   1.677   0.602                        
 1580W        W 8796   2.045   1.681  11.873                        
 1581W        W 8797  10.945   0.629   2.204                        
 1582W        W 8798   3.817   4.626   9.432                        
 1583W        W 8799  11.704   2.995   7.886                        
 1584W        W 8800   7.274   8.316  10.014                        
 1585W        W 8801   2.566   8.041   1.524                        
 1586W        W 8802  12.310   9.659   4.406                        
 1587W        W 8803   3.539  13.808   3.639                        
 1588W        W 8804   0.391   9.907   1.197                        
 1589W        W 8805   4.673   4.332   3.324                        
 1590W        W 8806   9.594   2.484   8.147                        
 1591W        W 8807   7.265   6.982  10.216                        
 1592W        W 8808   5.679   4.346   8.149                        
 1593W        W 8809   5.116   0.346  10.512                        
 1594W        W 8810  12.559   2.469  11.642                        
 1595W        W 8811   6.491   3.351  10.749                        
 1596W        W 8812   9.604  12.859   1.228                        
 1597W        W 8813   9.416   5.907  10.218                        
 1598W        W 8814   0.364   9.080   3.071                        
 1599W        W 8815  13.810   4.878   9.949                        
 1600W        W 8816  10.228   8.645   2.747                        
 1601W        W 8817   3.004   4.678   8.939                        
 1602W        W 8818   5.172   3.889   0.435                        
 1603W        W 8819   2.992  13.643   2.863                        
 1604W        W 8820   7.015   5.440   7.650                        
 1605W        W 8821   0.155   6.144   1.506                        
 1606W        W 8822   1.966   1.951   3.127                        
 1607W        W 8823   9.384   1.956   1.475                        
 1608W        W 8824   4.874  13.923   3.118                        
 1609W        W 8825   5.694  11.998   8.343                        
 1610W        W 8826   6.460   0.127   2.578                        
 1611W        W 8827   7.572   0.926   2.257                        
 1612W        W 8828   0.656   8.279   3.357                        
 1613W        W 8829   4.381   0.135   0.099                        
 1614W        W 8830   9.901   3.541   3.132                        
 1615W        W 8831   2.736  12.297   1.238                        
 1616W        W 8832   3.050  13.890   9.524                        
 1617W        W 8833   8.069   8.817   9.508                        
 1618W        W 8834  13.918   1.704   0.146                        
 1619W        W 8835   4.373  13.122   1.416                        
 1620W        W 8836   0.089   3.514   2.535                        
 1621W        W 8837  11.733   8.590   2.264                        
 1622W        W 8838  10.948  10.661  11.030                        
 1623W        W 8839   0.374   9.914   8.949                        
 1624W        W 8840   0.353   8.633  11.030                        
 1625W        W 8841   8.894   0.721   1.700                        
 1626W        W 8842  11.777   9.091   7.849                        
 1627W        W 8843   9.695   5.971  10.231                        
 1628W        W 8844   3.546   5.666  10.022                        
 1629W        W 8845   3.274   9.865   1.406                        
 1630W        W 8846   1.933  10.470   2.863                        
 1631W        W 8847  13.802   3.338   2.586                        
 1632W        W 8848  13.121  13.327  11.825                        
 1633W        W 8849  10.429  13.893  10.829                        
 1634W        W 8850   6.986  13.663   9.997                        
 1635W        W 8851   9.115   0.340   9.964                        
 1636W        W 8852   4.152   7.569   2.796                        
 1637W        W 8853   1.959   9.644   0.962                        
 1638W        W 8854   8.790   6.674   2.310                        
 1639W        W 8855  12.774  10.176   8.361                        
 1640W        W 8856  13.133   8.345   9.957                        
 1641W        W 8857   1.440  11.254   3.925                        
 1642W        W 8858  12.056   7.810   3.575                        
 1643W        W 8859   4.910   9.068   2.600                        
 1644W        W 8860  12.861  10.109  10.026                        
 1645W        W 8861   8.263   2.241   0.648                        
 1646W        W 8862   5.112   3.243   8.374                        
 1647W        W 8863   0.698   5.952   2.824                        
 1648W        W 8864   2.241  11.965   8.694                        
 1649W        W 8865  12.264   6.234   8.427                        
 1650W        W 8866   5.447   2.032  11.388                        
 1651W        W 8867   4.667   8.888   2.259                        
 1652W        W 8868   9.905   7.742  10.213                        
 1653W        W 8869   3.569   6.145   1.249                        
 1654W        W 8870   7.840   0.714  11.070                        
 1655W        W 8871  12.593   3.059   1.252                        
 1656W        W 8872  12.845   9.617   9.158                        
 1657W        W 8873   1.218   5.909   8.130                        
 1658W        W 8874   4.333   6.154  10.203                        
 1659W        W 8875  11.773   0.159   8.348                        
 1660W        W 8876   1.483   5.117  10.482                        
 1661W        W 8877   9.631   1.217  11.334                        
 1662W        W 8878   9.443  11.000   1.206                        
 1663W        W 8879  12.793   8.601   3.038                        
 1664W        W 8880   0.460   5.143   1.792                        
 1665W        W 8881  10.710  13.346  11.361                        
 1666W        W 8882   6.245   3.340   2.519                        
 1667W        W 8883   4.316  13.108  11.357                        
 1668W        W 8884  10.163   0.616  11.062                        
 1669W        W 8885   0.934  12.033   2.499                        
 1670W        W 8886   0.626   2.463   9.987                        
 1671W        W 8887   1.497   0.173  11.041                        
 1672W        W 8888   5.953   7.245  11.552                        
 1673W        W 8889  10.975   3.768   9.217                        
 1674W        W 8890   4.584   4.947  10.772                        
 1675W        W 8891   6.703   4.158  10.550                        
 1676W        W 8892   1.190  11.724   1.482                        
 1677W        W 8893  12.484   1.149   3.579                        
 1678W        W 8894   2.808   8.370  10.811                        
 1679W        W 8895   5.937   3.244   2.500                        
 1680W        W 8896  13.044   3.358   2.576                        
 1681W        W 8897   1.483  11.700   9.714                        
 1682W        W 8898   6.955  11.793  11.074                        
 1683W        W 8899  12.309   2.015   1.245                        
 1684W        W 8900   2.287   9.164   8.965                        
 1685W        W 8901  10.700   5.706   1.771                        
 1686W        W 8902  12.220   2.473   0.954                        
 1687W        W 8903  13.869  11.206   3.822                        
 1688W        W 8904   0.095   6.786  10.268                        
 1689W        W 8905  12.014   7.796   2.238                        
 1690W        W 8906   6.176   9.100   1.749                        
 1691W        W 8907   7.260   8.566  11.056                        
 1692W        W 8908   0.418   6.464   1.465                        
 1693W        W 8909   8.028   4.831   3.123                        
 1694W        W 8910   7.494   5.405   1.737                        
 1695W        W 8911  11.008   4.400  11.578                        
 1696W        W 8912   2.013  11.286   8.435                        
 1697W        W 8913   0.976  10.407   1.738                        
 1698W        W 8914  10.420  13.062   9.151                        
 1699W        W 8915   8.085   2.042  10.782                        
 1700W        W 8916   2.450   3.027   9.179                        
 1701W        W 8917   8.058   1.951   1.503                        
 1702W        W 8918   3.832   4.946   8.341                        
 1703W        W 8919   1.489   3.825   1.502                        
 1704W        W 8920   7.523   8.545   0.380                        
 1705W        W 8921   3.283   9.138   8.955                        
 1706W        W 8922  11.529   2.831  11.004                        
 1707W        W 8923  11.442   9.380   2.048                        
 1708W        W 8924   3.860   8.791  10.312                        
 1709W        W 8925   4.929   3.001   8.656                        
 1710W        W 8926   1.950  10.694  10.814                        
 1711W        W 8927   4.412   8.275   8.365                        
 1712W        W 8928  10.204  11.760  10.470                        
 1713W        W 8929   4.882  11.242  10.735                        
 1714W        W 8930   1.461   6.757  11.311                        
 1715W        W 8931   9.336   1.413   0.923                        
 1716W        W 8932   1.500   0.452   3.614                        
 1717W        W 8933  11.239   1.444  11.093                        
 1718W        W 8934  13.374   8.074   4.136                        
 1719W        W 8935   8.636  13.571   2.532                        
 1720W        W 8936   1.514   5.177   9.947                        
 1721W        W 8937   0.129   2.776   9.216                        
 1722W        W 8938   0.384  10.428   2.228                        
 1723W        W 8939   8.292   7.764   1.236                        
 1724W        W 8940   7.731   0.634   9.949                        
 1725W        W 8941   9.080   5.203   0.429                        
 1726W        W 8942   8.032  13.878   9.979                        
 1727W        W 8943   9.902  13.817   9.769                        
 1728W        W 8944   2.547  11.233   9.473                        
 1729W        W 8945   4.663   9.343   9.209                        
 1730W        W 8946  10.222   8.834   2.468                        
 1731W        W 8947  13.014   5.995   0.954                        
 1732W        W 8948   4.334  12.574   1.143                        
 1733W        W 8949   5.956  10.415   2.513                        
 1734W        W 8950  12.588   4.135   7.536                        
 1735W        W 8951   7.280   2.499   3.076                        
 1736W        W 8952   5.900   8.031   2.853                        
 1737W        W 8953   1.689  12.254  11.647                        
 1738W        W 8954   5.088   4.873   1.741                        
 1739W        W 8955   2.790  12.507  11.563                        
 1740W        W 8956   9.405   9.850   9.783                        
 1741W        W 8957   2.774   1.408  10.476                        
 1742W        W 8958   9.668  13.405   4.120                        
 1743W        W 8959   4.839   3.306   2.285                        
 1744W        W 8960   2.250   5.978   0.894                        
 1745W        W 8961   0.184   2.488   0.433                        
 1746W        W 8962   9.087   3.625   0.703                        
 1747W        W 8963   3.001   4.918   4.355                        
 1748W        W 8964   0.153  10.470   8.997                        
 1749W        W 8965   2.561   1.445   7.584                        
 1750W        W 8966   0.919   3.004  10.292                        
 1751W        W 8967   7.260   0.602   7.827                        
 1752W        W 8968  12.559   8.849   3.634                        
 1753W        W 8969   4.366   3.011   9.697                        
 1754W        W 8970   0.696   8.087   7.621                        
 1755W        W 8971   8.013   0.699   8.368                        
 1756W        W 8972   0.416   4.596   8.357                        
 1757W        W 8973   9.141  11.283  10.468                        
 1758W        W 8974   2.535   9.364   2.265                        
 1759W        W 8975  11.022   2.013   2.547                        
 1760W        W 8976  10.472   1.512  11.853                        
 1761W        W 8977  13.614   9.695  11.809                        
 1762W        W 8978   8.298   8.802  11.275                        
 1763W        W 8979   4.134   3.342   0.905                        
 1764W        W 8980   4.862   6.953   9.227                        
 1765W        W 8981   0.402  10.963   8.724                        
 1766W        W 8982   8.592   6.951   3.368                        
 1767W        W 8983  12.025  11.205   0.614                        
 1768W        W 8984   3.869   9.148   0.915                        
 1769W        W 8985   7.274   4.945   1.469                        
 1770W        W 8986   6.182   9.330   1.188                        
 1771W        W 8987   8.068   3.773   8.902                        
 1772W        W 8988   6.437   8.109   2.245                        
 1773W        W 8989   8.857   7.520   1.232                        
 1774W        W 8990   2.445   4.558   3.617                        
 1775W        W 8991  13.060  10.640   8.336                        
 1776W        W 8992   0.396  11.225   0.707                        
 1777W        W 8993  11.988   5.910   1.514                        
 1778W        W 8994  12.236   2.216   2.820                        
 1779W        W 8995  13.372   2.558  10.503                        
 1780W        W 8996   8.561   3.089   2.503                        
 1781W        W 8997  13.804   1.780   7.822                        
 1782W        W 8998   8.641   2.208   0.913                        
 1783W        W 8999  11.228   5.914   9.213                        
 1784W        W 9000   4.616   4.903   0.162                        
 1785W        W 9001   8.816  12.784   9.785                        
 1786W        W 9002   9.103   4.662   8.607                        
 1787W        W 9003   0.685   2.993  11.925                        
 1788W        W 9004   5.104  11.748   8.883                        
 1789W        W 9005   2.723   6.970   8.656                        
 1790W        W 9006   5.635  11.237   8.646                        
 1791W        W 9007   1.776  10.140   1.421                        
 1792W        W 9008   6.145   5.947   1.523                        
 1793W        W 9009   5.453  12.020   1.172                        
 1794W        W 9010   8.585   7.856   0.167                        
 1795W        W 9011   0.344   0.080   3.045                        
 1796W        W 9012  13.932   8.053  10.258                        
 1797W        W 9013   7.549   3.332  10.501                        
 1798W        W 9014   1.229   8.060   1.484                        
 1799W        W 9015   3.508  13.561   3.092                        
 1800W        W 9016   5.903  13.113   3.346                        
 1801W        W 9017  10.483   4.155  10.504                        
 1802W        W 9018   1.246   6.451   3.046                        
 1803W        W 9019   7.750   9.590   8.456                        
 1804W        W 9020   2.240   7.489   9.438                        
 1805W        W 9021  12.767  13.398  11.651                        
 1806W        W 9022  10.196   1.249  11.849                        
 1807W        W 9023  10.977   2.268   2.001                        
 1808W        W 9024   2.472   3.874  10.288                        
 1809W        W 9025   6.235   7.547   9.406                        
 1810W        W 9026   7.509   9.333  11.009                        
 1811W        W 9027   9.928   1.457   0.439                        
 1812W        W 9028   1.678  13.583   0.150                        
 1813W        W 9029   6.998   5.380   4.340                        
 1814W        W 9030   6.732  12.075  10.213                        
 1815W        W 9031   8.036   5.688  11.126                        
 1816W        W 9032   4.157  10.749   0.671                        
 1817W        W 9033  12.282   8.536   0.617                        
 1818W        W 9034  11.021   0.354   2.528                        
 1819W        W 9035   0.110  11.253  11.084                        
 1820W        W 9036   1.390  12.552   2.202                        
 1821W        W 9037   8.059   0.424   3.069                        
 1822W        W 9038   4.067   1.433   1.234                        
 1823W        W 9039   0.342   5.927   3.573                        
 1824W        W 9040   0.092   0.876   1.421                        
 1825W        W 9041  11.515   5.177   2.550                        
 1826W        W 9042   1.173   1.762   1.142                        
 1827W        W 9043   9.583   7.500  11.916                        
 1828W        W 9044  11.490   1.743  11.344                        
 1829W        W 9045  10.701  12.592   9.496                        
 1830W        W 9046   6.273   3.358   0.882                        
 1831W        W 9047   1.441  10.188   9.181                        
 1832W        W 9048   7.805   9.596   2.012                        
 1833W        W 9049   0.082  12.777   8.985                        
 1834W        W 9050   3.294   2.974   9.416                        
 1835W        W 9051  11.727   1.709   1.700                        
 1836W        W 9052  12.344   1.763  10.245                        
 1837W        W 9053   8.892  12.608   8.165                        
 1838W        W 9054   9.371   2.990   1.977                        
 1839W        W 9055  10.483   1.735   0.140                        
 1840W        W 9056   2.271   7.798   4.420                        
 1841W        W 9057   3.540   7.824   2.277                        
 1842W        W 9058  12.054   6.689  10.278                        
 1843W        W 9059   8.039  11.480   8.408                        
 1844W        W 9060  12.318  10.129  11.620                        
 1845W        W 9061  10.706  13.395   0.638                        
 1846W        W 9062   3.252   7.295  11.614                        
 1847W        W 9063   4.391   5.381  11.641                        
 1848W        W 9064   2.234   7.497   9.237                        
 1849W        W 9065   4.112   7.838   1.168                        
 1850W        W 9066  11.290  10.392  10.026                        
 1851W        W 9067   6.509   8.112  10.828                        
 1852W        W 9068   3.585  10.653  10.542                        
 1853W        W 9069   0.873  11.199   0.869                        
 1854W        W 9070  11.440   7.585   3.544                        
 1855W        W 9071   5.945  13.359   8.607                        
 1856W        W 9072   4.874  13.639  10.296                        
 1857W        W 9073   8.560   3.353   8.917                        
 1858W        W 9074  10.971   9.687   1.182                        
 1859W        W 9075   3.318   2.780  10.233                        
 1860W        W 9076   8.331   9.416  11.897                        
 1861W        W 9077  13.038   3.622   8.658                        
 1862W        W 9078   3.538  13.133  11.006                        
 1863W        W 9079  12.049   2.548  11.343                        
 1864W        W 9080   0.643  10.404  11.852                        
 1865W        W 9081   9.866   8.259   2.574                        
 1866W        W 9082   7.243   9.930  11.356                        
 1867W        W 9083   4.080  11.228   0.643                        
 1868W        W 9084   2.711   3.819   0.373                        
 1869W        W 9085   8.298   9.128  11.651                        
 1870W        W 9086   1.964  12.224   2.471                        
 1871W        W 9087   7.810  13.539   8.892                        
 1872W        W 9088   0.691   0.968   3.069                        
 1873W        W 9089   9.926   2.755   3.589                        
 1874W        W 9090  13.354   3.564   2.802                        
 1875W        W 9091  13.084   9.404   0.870                        
 1876W        W 9092   6.208   3.344   3.115                        
 1877W        W 9093  12.493   4.573   8.163                        
 1878W        W 9094   4.076   6.440   9.248                        
 1879W        W 9095   3.367   8.800   8.624                        
 1880W        W 9096   3.026   4.907  10.786                        
 1881W        W 9097   1.937   1.197   1.514                        
 1882W        W 9098   9.864  10.675   0.981                        
 1883W        W 9099   0.868   2.565  11.304                        
 1884W        W 9100  11.957  11.704   1.461                        
 1885W        W 9101  10.402   4.877  11.654                        
 1886W        W 9102  12.587   3.351   1.219                        
 1887W        W 9103   2.501  12.857   2.282                        
 1888W        W 9104  11.205   1.211   9.228                        
 1889W        W 9105  11.191   1.971   1.224                        
 1890W        W 9106   5.636  12.526  11.379                        
 1891W        W 9107   9.618   5.372   0.611                        
 1892W        W 9108  12.303   8.531  11.585                        
 1893W        W 9109   8.624   8.877   8.430                        
 1894W        W 9110  12.843  12.483  11.328                        
 1895W        W 9111   2.742   0.165  11.067                        
 1896W        W 9112   4.131   6.785   2.501                        
 1897W        W 9113   3.291   7.728   3.117                        
 1898W        W 9114   3.270   8.021   9.724                        
 1899W        W 9115   8.062   3.827   0.075                        
 1900W        W 9116   1.710   8.319   0.882                        
 1901W        W 9117   6.988   5.984   1.177                        
 1902W        W 9118   2.512  11.484   2.582                        
 1903W        W 9119   6.153   1.154   3.873                        
 1904W        W 9120   2.499   0.101   7.875                        
 1905W        W 9121   4.407   1.728  10.792                        
 1906W        W 9122   2.758   5.092   0.634                        
 1907W        W 9123   0.179   9.342   1.250                        
 1908W        W 9124  13.866   9.064   1.176                        
 1909W        W 9125  10.130   7.802   8.930                        
 1910W        W 9126   7.049   0.644   4.363                        
 1911W        W 9127   0.630   3.321   3.922                        
 1912W        W 9128  10.455  11.453   9.430                        
 1913W        W 9129   8.531   4.579   0.395                        
 1914W        W 9130   5.893   9.436   8.882                        
 1915W        W 9131   9.587  13.402   9.248                        
 1916W        W 9132   8.016   8.598  11.049                        
 1917W        W 9133   0.171   0.120   8.944                        
 1918W        W 9134  10.389   5.359   9.783                        
 1919W        W 9135   0.923   6.509   3.567                        
 1920W        W 9136   0.085   5.434   0.371                        
 1921W        W 9137   9.056   0.602   3.286                        
 1922W        W 9138   0.132  10.657   2.847                        
 1923W        W 9139   7.557   2.262  10.861                        
 1924W        W 9140   9.912  12.258  10.030                        
 1925W        W 9141   2.737  12.539  11.913                        
 1926W        W 9142  13.289   0.991   3.574                        
 1927W        W 9143   8.111   2.547   2.599                        
 1928W        W 9144   5.978   5.477   3.390                        
 1929W        W 9145   8.896   2.995  10.211                        
 1930W        W 9146   3.241  10.182   1.265                        
 1931W        W 9147   9.139  10.651   2.755                        
 1932W        W 9148   7.465   8.810  10.003                        
 1933W        W 9149   3.501   5.653  10.275                        
 1934W        W 9150   5.445  13.919   8.461                        
 1935W        W 9151  11.974  13.815   3.664                        
 1936W        W 9152   4.157  11.540   2.746                        
 1937W        W 9153   6.703   6.956   0.955                        
 1938W        W 9154  11.003   4.824   8.114                        
 1939W        W 9155  10.695   3.591   2.469                        
 1940W        W 9156  13.134   7.561   3.555                        
 1941W        W 9157   6.258  11.206   0.454                        
 1942W        W 9158   8.558  10.424   1.441                        
 1943W        W 9159   2.041  11.515   2.000                        
 1944W        W 9160   8.849  13.652  11.629                        
 1945W        W 9161   7.215   3.605  10.035                        
 1946W        W 9162   9.586   9.089   2.254                        
 1947W        W 9163   3.628  10.939  10.843                        
 1948W        W 9164  13.082   1.997  11.039                        
 1949W        W 9165   4.894   0.346   8.414                        
 1950W        W 9166   7.028   1.447  10.799                        
 1951W        W 9167   8.793   7.253   8.952                        
 1952W        W 9168   5.644   1.692  10.505                        
 1953W        W 9169   4.049   7.792   9.152                        
 1954W        W 9170   6.962  13.045   1.766                        
 1955W        W 9171   7.519   0.901  11.913                        
 1956W        W 9172   3.533   0.719   1.766                        
 1957W        W 9173   7.241   0.632  10.277                        
 1958W        W 9174   3.818   8.284   0.342                        
 1959W        W 9175   1.775   8.785   0.102                        
 1960W        W 9176   2.291   0.717  10.275                        
 1961W        W 9177  11.817  11.277   4.340                        
 1962W        W 9178   9.145   5.393   9.462                        
 1963W        W 9179   1.927   0.426   0.603                        
 1964W        W 9180  13.326   7.214   0.396                        
 1965W        W 9181  12.790   5.950   1.527                        
 1966W        W 9182   6.239   4.137   1.503                        
 1967W        W 9183   5.127  10.227   8.888                        
 1968W        W 9184  12.015   2.997  10.276                        
 1969W        W 9185  13.851   9.657   1.681                        
 1970W        W 9186  10.733   3.327   8.978                        
 1971W        W 9187   2.473   7.486  11.281                        
 1972W        W 9188  11.490   4.950  11.053                        
 1973W        W 9189  10.192  11.262   1.990                        
 1974W        W 9190   6.192   0.898   9.215                        
 1975W        W 9191   8.031   0.184   3.116                        
 1976W        W 9192   9.634   7.238   0.958                        
 1977W        W 9193   1.207   2.043  10.002                        
 1978W        W 9194   3.819   5.977   9.756                        
 1979W        W 9195   6.683   0.372   0.694                        
 1980W        W 9196   8.106   1.931   1.710                        
 1981W        W 9197   8.350   7.527   9.166                        
 1982W        W 9198  11.267   4.125   2.216                        
 1983W        W 9199   4.340  10.975  10.486                        
 1984W        W 9200   4.896   3.894   1.136                        
 1985W        W 9201  12.796   7.579   0.680                        
 1986W        W 9202   5.107   8.549   8.458                        
 1987W        W 9203   1.455   1.755   8.365                        
 1988W        W 9204   6.690   7.319   3.060                        
 1989W        W 9205   4.327  12.557   9.701                        
 1990W        W 9206   5.418   6.947   8.359                        
 1991W        W 9207  13.345  11.533  10.242                        
 1992W        W 9208   4.086   2.743   2.219                        
 1993W        W 9209   8.828   2.470  10.060                        
 1994W        W 9210   9.139   1.670   3.024                        
 1995W        W 9211  12.309   6.003   7.609                        
 1996W        W 9212   4.108   5.175   9.429                        
 1997W        W 9213  13.555  13.874  10.021                        
 1998W        W 9214   0.641   6.741   9.487                        
 1999W        W 9215   1.148   3.050  11.816                        
 2000W        W 9216   7.044   4.949   4.394                        
 2001W        W 9217   9.639   8.633  10.275                        
 2002W        W 9218  12.524  12.081   4.192                        
 2003W        W 9219  11.976   9.389   3.873                        
 2004W        W 9220   3.823  11.504   2.522                        
 2005W        W 9221   5.383  12.550   2.746                        
 2006W        W 9222   6.713   8.808   2.034                        
 2007W        W 9223  11.447  13.313   9.710                        
 2008W        W 9224   3.260  13.033   3.395                        
 2009W        W 9225   9.683   9.955  10.482                        
 2010W        W 9226   0.452   1.733   2.531                        
 2011W        W 9227   4.307  10.470   9.460                        
 2012W        W 9228   8.889  11.759  10.812                        
 2013W        W 9229   8.284   9.664   9.483                        
 2014W        W 9230  11.774   1.228  11.609                        
 2015W        W 9231   0.718   7.280  10.008                        
 2016W        W 9232  13.329   4.134  11.843                        
 2017W        W 9233   1.961   2.721   8.177                        
 2018W        W 9234  13.094   0.100  10.854                        
 2019W        W 9235   1.683  12.289   0.672                        
 2020W        W 9236   4.866   2.473   1.754                        
 2021W        W 9237  12.547  11.540   8.376                        
 2022W        W 9238  11.270  12.057   1.199                        
 2023W        W 9239  13.403   5.982  11.634                        
 2024W        W 9240  12.841   9.942   3.370                        
 2025W        W 9241   8.081   6.713   2.288                        
 2026W        W 9242   7.308  13.545   1.441                        
 2027W        W 9243   3.341   5.911   2.494                        
 2028W        W 9244  12.283   7.785   9.986                        
 2029W        W 9245  11.261   3.543   3.273                        
 2030W        W 9246   5.917   4.094   2.573                        
 2031W        W 9247  10.373   7.489   0.930                        
 2032W        W 9248  13.640   6.180   9.456                        
 2033W        W 9249  13.135   3.585   2.834                        
 2034W        W 9250   6.744   7.582   9.960                        
 2035W        W 9251   6.411   9.061   2.004                        
 2036W        W 9252   9.426   1.777  11.811                        
 2037W        W 9253   8.633   6.688   2.592                        
 2038W        W 9254  12.567   3.547   3.034                        
 2039W        W 9255   6.213  11.028   9.503                        
 2040W        W 9256   5.212   0.935   3.555                        
 2041W        W 9257  13.100   6.801  11.346                        
 2042W        W 9258  13.104  13.068   2.762                        
 2043W        W 9259   7.228   9.396   9.722                        
 2044W        W 9260   5.658  11.820  10.835                        
 2045W        W 9261   8.786   8.533   8.611                        
 2046W        W 9262  12.810   5.369   3.283                        
 2047W        W 9263   5.695   0.633   0.107                        
 2048W        W 9264   1.401   1.429  10.301                        
 2049W        W 9265  11.994   6.243   9.757                        
 2050W        W 9266  12.497  12.273   8.689                        
 2051W        W 9267  13.554  10.379   0.922                        
 2052W        W 9268   9.329  11.814   0.416                        
 2053W        W 9269  12.572  11.179   0.959                        
 2054W        W 9270   3.047   9.907   9.733                        
 2055W        W 9271   8.008   4.055   0.930                        
 2056W        W 9272   7.015   2.554   8.394                        
 2057W        W 9273   2.505   8.854   9.198                        
 2058W        W 9274   7.036   8.608   7.641                        
 2059W        W 9275   8.023   6.983  10.326                        
 2060W        W 9276   8.274  13.278   0.733                        
 2061W        W 9277   5.099  11.452   9.953                        
 2062W        W 9278   3.342   3.866   2.297                        
 2063W        W 9279   6.447   3.035   1.507                        
 2064W        W 9280   5.879  12.536   0.440                        
 2065W        W 9281  13.334  10.388   0.436                        
 2066W        W 9282   2.560   9.171  11.020                        
 2067W        W 9283   9.595   3.094  10.841                        
 2068W        W 9284   9.866   0.874   3.538                        
 2069W        W 9285   8.839   8.828   3.535                        
 2070W        W 9286   8.817  13.854   2.208                        
 2071W        W 9287   3.359   2.781   0.683                        
 2072W        W 9288  11.471   5.697   0.397                        
 2073W        W 9289  11.797   0.967   1.716                        
 2074W        W 9290  12.863   0.628   0.889                        
 2075W        W 9291  12.559   3.816   2.548                        
 2076W        W 9292   8.596  11.436   8.377                        
 2077W        W 9293   1.236  10.209   2.322                        
 2078W        W 9294   4.584   7.471  11.657                        
 2079W        W 9295   8.842  12.052  11.039                        
 2080W        W 9296  12.582   9.408  11.294                        
 2081W        W 9297   6.001   9.392  11.066                        
 2082W        W 9298   9.648  10.493   8.955                        
 2083W        W 9299   4.068  10.193   3.888                        
 2084W        W 9300   8.114   5.441   9.958                        
 2085W        W 9301   3.315   2.474  10.778                        
 2086W        W 9302   9.361   3.005   9.190                        
 2087W        W 9303  11.502  12.276   8.464                        
 2088W        W 9304  11.800   6.002  10.497                        
 2089W        W 9305   2.044   3.311   9.472                        
 2090W        W 9306   9.886  11.968   2.550                        
 2091W        W 9307   9.956   1.922   8.617                        
 2092W        W 9308   1.517  11.014  10.551                        
 2093W        W 9309   5.439   7.201  10.513                        
 2094W        W 9310   2.035   3.332  11.306                        
 2095W        W 9311   6.676   2.040   8.680                        
 2096W        W 9312   5.936   3.045   2.521                        
 2097W        W 9313   7.732   2.500  10.029                        
 2098W        W 9314   8.380   6.690   9.482                        
 2099W        W 9315   4.590   7.014   2.594                        
 2100W        W 9316  10.638   0.414   4.182                        
 2101W        W 9317   6.265   4.612  11.887                        
 2102W        W 9318  13.905  13.373   2.003                        
 2103W        W 9319   7.818   4.822   0.354                        
 2104W        W 9320   0.436  11.492  11.908                        
 2105W        W 9321   5.616   8.561  11.072                        
 2106W        W 9322   9.901   5.439   8.890                        
 2107W        W 9323  13.925   4.090   0.455                        
 2108W        W 9324   3.093  13.306   0.374                        
 2109W        W 9325   6.946   3.625   2.760                        
 2110W        W 9326   0.431   3.884  10.312                        
 2111W        W 9327   8.897   6.993   2.016                        
 2112W        W 9328   7.799   4.048   0.987                        
 2113W        W 9329  13.378   5.690   2.301                        
 2114W        W 9330   1.712   0.643  10.561                        
 2115W        W 9331   7.289   7.199   8.617                        
 2116W        W 9332   6.988   2.194  11.921                        
 2117W        W 9333   5.727  11.776   2.845                        
 2118W        W 9334   2.539  13.395  11.841                        
 2119W        W 9335   3.315   1.227  11.655                        
 2120W        W 9336   8.085  10.711   8.412                        
 2121W        W 9337   9.929   0.621   2.469                        
 2122W        W 9338  10.425   9.414   9.423                        
 2123W        W 9339   9.600   0.936   0.989                        
 2124W        W 9340   4.036  10.751   2.319                        
 2125W        W 9341   2.839  10.210   3.589                        
 2126W        W 9342   4.305   5.434  11.019                        
 2127W        W 9343  12.301   1.746   3.657                        
 2128W        W 9344   4.080  13.311   9.770                        
 2129W        W 9345   2.711   3.854   0.941                        
 2130W        W 9346   0.633   3.566   3.537                        
 2131W        W 9347   2.973   2.234   3.369                        
 2132W        W 9348   8.285   3.042   1.181                        
 2133W        W 9349  11.246   2.300   2.278                        
 2134W        W 9350   0.096   9.377  10.230                        
 2135W        W 9351   5.915   8.106  11.840                        
 2136W        W 9352   1.406  11.450  11.322                        
 2137W        W 9353  11.515   0.609   0.083                        
 2138W        W 9354   8.613   5.449  10.841                        
 2139W        W 9355   0.394  10.406   3.028                        
 2140W        W 9356  10.152   7.537   9.151                        
 2141W        W 9357  13.590   8.340   2.291                        
 2142W        W 9358   6.145   0.408   2.056                        
 2143W        W 9359   5.734   9.379   0.393                        
 2144W        W 9360   0.451   2.560  11.371                        
 2145W        W 9361   7.239   1.470   1.987                        
 2146W        W 9362   4.948  11.200   1.405                        
 2147W        W 9363  10.673   5.471   9.143                        
 2148W        W 9364   6.937   7.279   9.709                        
 2149W        W 9365  11.780   8.351   1.951                        
 2150W        W 9366   0.665  11.292  10.001                        
 2151W        W 9367  11.426   4.681   7.851                        
 2152W        W 9368   6.937   8.267   8.099                        
 2153W        W 9369   8.069   9.686   1.713                        
 2154W        W 9370   2.462  12.240  10.023                        
 2155W        W 9371  13.636   4.917  10.792                        
 2156W        W 9372   0.157  12.020   8.104                        
 2157W        W 9373   8.595  10.684   8.124                        
 2158W        W 9374   9.067   6.514  11.045                        
 2159W        W 9375   5.195   1.931   0.645                        
 2160W        W 9376   9.096   5.409   1.167                        
 2161W        W 9377   6.158  12.754   3.295                        
 2162W        W 9378   0.883   6.238  10.055                        
 2163W        W 9379   6.757  11.238   3.606                        
 2164W        W 9380  11.775   0.968   8.943                        
 2165W        W 9381   3.349  11.231   9.673                        
 2166W        W 9382   7.857  12.336  10.254                        
 2167W        W 9383  13.659   9.688  10.833                        
 2168W        W 9384   5.119   9.933  11.325                        
 2169W        W 9385   7.206  10.638   2.592                        
 2170W        W 9386   5.889  10.436  10.240                        
 2171W        W 9387  11.970   0.431   0.106                        
 2172W        W 9388   7.056   6.254   9.505                        
 2173W        W 9389  12.602   0.722  10.270                        
 2174W        W 9390   3.613   6.441   8.899                        
 2175W        W 9391   1.702  13.053  11.351                        
 2176W        W 9392   4.863   5.950   1.258                        
 2177W        W 9393  11.202  10.983   0.730                        
 2178W        W 9394   4.321   0.332   9.422                        
 2179W        W 9395   6.271   1.503   9.999                        
 2180W        W 9396  11.219   3.587  11.387                        
 2181W        W 9397  13.109   2.261   0.603                        
 2182W        W 9398   1.995   4.381   9.400                        
 2183W        W 9399  13.316   4.039   9.255                        
 2184W        W 9400   0.393   9.909   3.349                        
 2185W        W 9401  11.705   1.475   4.157                        
 2186W        W 9402   1.964   8.799   2.275                        
 2187W        W 9403   0.636   6.212   9.220                        
 2188W        W 9404   0.929   6.492   3.291                        
 2189W        W 9405   4.351   7.261   8.447                        
 2190W        W 9406   9.130   8.097  10.536                        
 2191W        W 9407  10.692   4.073  11.006                        
 2192W        W 9408   8.860   4.600   9.142                        
 2193W        W 9409   2.799   9.918   9.752                        
 2194W        W 9410   4.045   0.928   8.942                        
 2195W        W 9411   0.378  10.695   8.356                        
 2196W        W 9412   4.577   7.227   2.553                        
 2197W        W 9413   8.863   1.126  11.657                        
 2198W        W 9414   2.216   8.609   1.244                        
 2199W        W 9415   1.510  12.256   3.029                        
 2200W        W 9416   4.396   9.868  11.903                        
 2201W        W 9417   0.664   8.847   9.503                        
 2202W        W 9418   6.789   9.609  11.375                        
 2203W        W 9419   0.452  11.482  10.528                        
 2204W        W 9420  10.120   7.265   2.232                        
 2205W        W 9421  13.912   1.512  10.825                        
 2206W        W 9422   2.295   1.146   2.267                        
 2207W        W 9423   9.701  13.116  10.237                        
 2208W        W 9424   6.970  10.149   3.640                        
 2209W        W 9425  11.467  10.430   8.441                        
 2210W        W 9426   4.652  10.118   9.956                        
 2211W        W 9427  11.453  13.041   0.426                        
 2212W        W 9428   5.677   2.218   3.013                        
 2213W        W 9429   1.428   2.263   0.339                        
 2214W        W 9430  13.811   9.619  11.874                        
 2215W        W 9431   3.500  11.770   1.453                        
 2216W        W 9432   4.837   7.005  11.388                        
 2217W        W 9433   1.224   6.414   8.902                        
 2218W        W 9434   9.051  10.693   3.021                        
 2219W        W 9435   3.578   3.862   9.430                        
 2220W        W 9436   2.026   9.678  10.203                        
 2221W        W 9437  13.054   6.516   2.539                        
 2222W        W 9438   5.358   8.909   8.873                        
 2223W        W 9439   4.948   0.068  11.564                        
 2224W        W 9440  12.507   8.644   3.653                        
 2225W        W 9441   3.358   8.022   2.058                        
 2226W        W 9442   9.047  13.299  11.269                        
 2227W        W 9443   5.674   3.012   9.488                        
 2228W        W 9444  10.189   7.203   9.230                        
 2229W        W 9445   5.655  13.082   8.183                        
 2230W        W 9446   1.224   5.645   2.822                        
 2231W        W 9447   5.961  13.297   9.466                        
 2232W        W 9448   8.263   2.744   7.873                        
 2233W        W 9449   3.791  13.279   3.094                        
 2234W        W 9450  11.160  12.518   9.459                        
 2235W        W 9451   6.698   4.906   2.524                        
 2236W        W 9452   0.416   7.583  10.848                        
 2237W        W 9453   0.666   6.755   0.465                        
 2238W        W 9454  11.477   8.845   0.924                        
 2239W        W 9455   4.128   0.154  10.315                        
 2240W        W 9456   9.420  12.774   0.465                        
 2241W        W 9457  12.572   6.201   9.424                        
 2242W        W 9458   5.169   3.286   8.941                        
 2243W        W 9459   5.959   4.558   8.983                        
 2244W        W 9460  11.708  11.231   3.302                        
 2245W        W 9461   3.048  12.334   0.135                        
 2246W        W 9462   2.209   8.352   8.406                        
 2247W        W 9463   5.408  11.707   0.092                        
 2248W        W 9464   3.871  10.219  11.022                        
 2249W        W 9465   4.832  13.052  10.229                        
 2250W        W 9466  10.406   2.566  11.923                        
 2251W        W 9467   1.689  11.287   0.613                        
 2252W        W 9468  11.742  10.971  10.544                        
 2253W        W 9469   5.942   9.850  10.221                        
 2254W        W 9470  13.644   9.843  11.804                        
 2255W        W 9471   2.236   6.230  10.824                        
 2256W        W 9472   6.147  11.543   2.234                        
 2257W        W 9473   9.363   0.693  11.004                        
 2258W        W 9474   2.024  12.529   0.435                        
 2259W        W 9475  10.987  12.796  11.549                        
 2260W        W 9476   8.591   5.165  10.859                        
 2261W        W 9477   2.261   7.249  11.025                        
 2262W        W 9478   1.716   1.652   9.241                        
 2263W        W 9479   0.977  10.178   2.753                        
 2264W        W 9480   4.315   5.374   1.939                        
 2265W        W 9481   3.253   4.374   0.142                        
 2266W        W 9482  13.028   0.700   0.180                        
 2267W        W 9483   3.019   7.485   0.966                        
 2268W        W 9484   9.410  11.218   8.457                        
 2269W        W 9485   4.347   4.838   0.377                        
 2270W        W 9486   7.587   3.085  11.029                        
 2271W        W 9487   5.192   7.773   9.147                        
 2272W        W 9488  12.023  12.814  10.789                        
 2273W        W 9489   7.832   6.712   2.496                        
 2274W        W 9490   5.479   5.881   7.883                        
 2275W        W 9491   9.599   3.085  11.614                        
 2276W        W 9492  13.366  10.729   2.236                        
 2277W        W 9493  10.972   2.001   1.194                        
 2278W        W 9494  11.795  11.738   2.231                        
 2279W        W 9495   2.204  13.904   9.950                        
 2280W        W 9496  12.806  10.924   0.421                        
 2281W        W 9497   9.332   2.793   8.685                        
 2282W        W 9498   9.135   9.628  11.566                        
 2283W        W 9499   3.868   8.892  11.105                        
 2284W        W 9500   8.051   3.352   8.875                        
 2285W        W 9501   5.912   3.554   3.114                        
 2286W        W 9502   3.814  13.285  11.089                        
 2287W        W 9503   7.024   2.993  10.048                        
 2288W        W 9504   2.524   9.161   1.184                        
 2289W        W 9505   4.916   1.764   3.074                        
 2290W        W 9506   7.808   7.756  11.127                        
 2291W        W 9507   1.244   3.844  10.026                        
 2292W        W 9508   4.157   5.440   2.591                        
 2293W        W 9509   0.951   7.809   1.682                        
 2294W        W 9510   1.736   1.689  11.129                        
 2295W        W 9511   1.725   2.279  11.661                        
 2296W        W 9512  11.194  10.641   1.722                        
 2297W        W 9513   9.060  12.304  11.086                        
 2298W        W 9514   1.227  10.936  10.313                        
 2299W        W 9515   0.718   5.743   0.963                        
 2300W        W 9516   2.503   8.876   9.426                        
 2301W        W 9517  11.229  10.753  11.548                        
 2302W        W 9518   2.230   2.735   8.648                        
 2303W        W 9519   8.644   2.231   7.897                        
 2304W        W 9520   2.306   8.887   2.204                        
 2305W        W 9521   2.741   0.427   0.895                        
 2306W        W 9522   7.520   4.325   9.149                        
 2307W        W 9523   7.294  12.559   8.675                        
 2308W        W 9524   4.892  13.386   3.607                        
 2309W        W 9525   9.431  12.261   3.065                        
 2310W        W 9526   2.189   0.970   8.618                        
 2311W        W 9527   7.232   3.001   8.679                        
 2312W        W 9528   5.380   2.275   0.603                        
 2313W        W 9529   9.391   3.593   2.808                        
 2314W        W 9530   5.907   6.729   8.627                        
 2315W        W 9531   6.722  12.236   3.583                        
 2316W        W 9532   1.152   5.411   2.556                        
 2317W        W 9533   5.464  11.503  10.539                        
 2318W        W 9534   8.854  11.474   8.619                        
 2319W        W 9535   1.201   8.828   7.834                        
 2320W        W 9536   6.232  13.276   3.357                        
 2321W        W 9537   9.159   0.698   1.513                        
 2322W        W 9538   9.111   6.703   3.559                        
 2323W        W 9539   7.519  11.761   3.352                        
 2324W        W 9540   1.936   5.427   2.802                        
 2325W        W 9541  12.228  13.055   2.275                        
 2326W        W 9542  12.072   9.344   1.156                        
 2327W        W 9543  10.389   5.912  11.888                        
 2328W        W 9544   7.762   7.224   9.419                        
 2329W        W 9545   3.295   0.606  11.800                        
 2330W        W 9546  10.949   6.145  11.079                        
 2331W        W 9547   6.936  12.549   8.401                        
 2332W        W 9548  10.109   5.438   3.571                        
 2333W        W 9549   6.008   3.354   0.929                        
 2334W        W 9550   1.401   2.248   9.169                        
 2335W        W 9551  13.813  10.929  10.584                        
 2336W        W 9552   2.208   2.017  11.058                        
 2337W        W 9553   3.006   8.609   0.392                        
 2338W        W 9554  13.651   3.268   9.172                        
 2339W        W 9555   4.644   8.057  10.774                        
 2340W        W 9556   8.267  10.987   8.638                        
 2341W        W 9557  11.719   8.856   8.140                        
 2342W        W 9558   2.727   3.811  10.308                        
 2343W        W 9559   5.707  13.371  11.108                        
 2344W        W 9560   9.594  11.731   2.477                        
 2345W        W 9561  13.805  10.911  11.030                        
 2346W        W 9562  10.145   6.715   9.225                        
 2347W        W 9563   6.688  12.022   3.665                        
 2348W        W 9564  12.310   0.112  10.276                        
 2349W        W 9565   3.873   3.305  11.811                        
 2350W        W 9566   9.615   2.191   2.542                        
 2351W        W 9567  13.916  13.846   8.366                        
 2352W        W 9568   4.609   6.755  11.604                        
 2353W        W 9569   8.562   0.666  11.921                        
 2354W        W 9570   0.609   0.972   8.904                        
 2355W        W 9571   9.093  11.179   3.578                        
 2356W        W 9572   5.116   3.036  11.387                        
 2357W        W 9573  10.216   5.455   0.447                        
 2358W        W 9574  10.653   7.304   0.129                        
 2359W        W 9575   0.422   1.245  10.833                        
 2360W        W 9576  10.743   3.087   8.626                        
 2361W        W 9577  11.815  13.820  10.310                        
 2362W        W 9578   6.480  13.594   3.887                        
 2363W        W 9579   0.134  11.715   0.338                        
 2364W        W 9580   3.303   8.647   0.111                        
 2365W        W 9581  11.230   2.291   4.116                        
 2366W        W 9582   7.754   6.776   1.792                        
 2367W        W 9583   1.411   3.054   9.254                        
 2368W        W 9584   1.924   4.293   1.438                        
 2369W        W 9585   9.614   6.975   3.605                        
 2370W        W 9586  10.668   1.238  10.545                        
 2371W        W 9587   2.516   0.678   8.887                        
 2372W        W 9588   5.970   3.056   0.633                        
 2373W        W 9589   5.939   7.798  11.660                        
 2374W        W 9590  13.612   0.102   0.200                        
 2375W        W 9591   7.517  13.567   1.416                        
 2376W        W 9592   1.473  13.663  11.591                        
 2377W        W 9593  11.472   3.597   3.659                        
 2378W        W 9594   0.916   9.630   8.437                        
 2379W        W 9595   6.509   9.963  11.922                        
 2380W        W 9596  12.805   3.049   1.963                        
 2381W        W 9597  12.066   2.570   8.887                        
 2382W        W 9598   5.415   2.501   1.707                        
 2383W        W 9599   5.142   3.605   0.407                        
 2384W        W 9600   2.742  11.260   1.168                        
 2385W        W 9601  12.304   3.520  11.640                        
 2386W        W 9602  12.522   2.527  11.054                        
 2387W        W 9603  13.361   1.703   3.853                        
 2388W        W 9604   4.951   0.939   9.459                        
 2389W        W 9605   0.611   5.900   2.289                        
 2390W        W 9606  13.017  10.459   8.362                        
 2391W        W 9607   8.382   8.018   9.969                        
 2392W        W 9608  12.296   7.538   2.027                        
 2393W        W 9609   3.048   6.999  10.794                        
 2394W        W 9610   5.151   3.620   0.955                        
 2395W        W 9611   9.705   1.250   2.311                        
 2396W        W 9612   7.563  11.213   8.883                        
 2397W        W 9613  11.716  13.115   0.910                        
 2398W        W 9614   7.845  10.685   2.829                        
 2399W        W 9615  10.415  12.788   9.501                        
 2400W        W 9616   9.082   1.652   0.716                        
 2401W        W 9617   4.305   5.146   3.587                        
 2402W        W 9618   7.523   0.635   2.217                        
 2403W        W 9619  12.565   5.701  10.204                        
 2404W        W 9620   2.025   1.503  10.476                        
 2405W        W 9621   0.122   7.812   0.935                        
 2406W        W 9622   4.604  11.778   8.385                        
 2407W        W 9623   8.910   9.431   2.542                        
 2408W        W 9624  11.235  13.639   1.754                        
 2409W        W 9625   3.314   0.377  10.517                        
 2410W        W 9626   0.931   9.085   0.923                        
 2411W        W 9627   6.768  10.106   7.576                        
 2412W        W 9628  13.648  13.823   1.407                        
 2413W        W 9629   9.592  13.385   1.485                        
 2414W        W 9630   1.951   4.336  10.275                        
 2415W        W 9631  11.549  13.656   9.735                        
 2416W        W 9632   1.436   5.464  11.647                        
 2417W        W 9633   6.147   4.866   8.708                        
 2418W        W 9634   9.105   4.358   0.917                        
 2419W        W 9635  10.990   0.168  11.594                        
 2420W        W 9636   7.809  10.423   3.619                        
 2421W        W 9637  12.793   9.881   1.710                        
 2422W        W 9638   9.163   1.215  10.830                        
 2423W        W 9639   2.545  10.707   1.671                        
 2424W        W 9640   6.729   8.821   3.283                        
 2425W        W 9641   8.531  10.912  10.861                        
 2426W        W 9642   0.978  10.741   1.413                        
 2427W        W 9643   1.693  13.369  10.013                        
 2428W        W 9644   4.344   8.101   7.926                        
 2429W        W 9645   8.017   4.641   3.559                        
 2430W        W 9646  11.471   2.027   3.398                        
 2431W        W 9647  11.214  10.423   9.242                        
 2432W        W 9648   4.608   8.083   2.261                        
 2433W        W 9649   2.191   6.263   1.148                        
 2434W        W 9650   6.702  12.854   0.420                        
 2435W        W 9651   6.150  12.027  10.254                        
 2436W        W 9652   4.618  11.780   8.958                        
 2437W        W 9653   3.888   3.262   8.453                        
 2438W        W 9654  13.879   4.902   2.330                        
 2439W        W 9655   3.888   6.493   8.415                        
 2440W        W 9656   0.102  12.069   9.728                        
 2441W        W 9657  12.309  10.654  11.596                        
 2442W        W 9658   4.359   4.417   9.496                        
 2443W        W 9659  12.346   3.091   0.631                        
 2444W        W 9660   4.140   8.870  11.076                        
 2445W        W 9661  13.815   8.550   3.583                        
 2446W        W 9662   2.018   4.576  11.108                        
 2447W        W 9663   0.425   5.423   9.724                        
 2448W        W 9664  10.674   4.110   9.237                        
 2449W        W 9665   7.729  11.491   8.632                        
 2450W        W 9666   0.627   6.477   4.105                        
 2451W        W 9667  10.933  10.650   2.028                        
 2452W        W 9668   5.447   6.738   0.631                        
 2453W        W 9669  13.274  11.731   1.707                        
 2454W        W 9670   5.735   9.905   0.364                        
 2455W        W 9671   9.138   6.421   2.271                        
 2456W        W 9672   2.267   3.357   0.912                        
 2457W        W 9673   1.774   1.167   4.156                        
 2458W        W 9674   7.468   9.179   0.419                        
 2459W        W 9675   3.363   6.476   3.052                        
 2460W        W 9676  12.483   5.450   8.882                        
 2461W        W 9677   4.832   5.902   2.757                        
 2462W        W 9678   0.396  10.719   9.470                        
 2463W        W 9679   3.332  10.474   1.703                        
 2464W        W 9680   6.258  10.751   2.837                        
 2465W        W 9681   4.035  10.493  11.877                        
 2466W        W 9682   7.583   3.286   8.937                        
 2467W        W 9683   8.883  10.195   2.292                        
 2468W        W 9684   7.815   1.485   3.810                        
 2469W        W 9685   2.005   0.968   8.378                        
 2470W        W 9686   8.531   6.718   8.914                        
 2471W        W 9687   0.455   8.838   2.011                        
 2472W        W 9688   8.001   4.398  11.267                        
 2473W        W 9689   7.540   2.192   3.319                        
 2474W        W 9690   7.830  12.317   4.133                        
 2475W        W 9691   5.471   4.832   9.504                        
 2476W        W 9692   7.464   0.400   7.801                        
 2477W        W 9693   9.168   7.265   9.750                        
 2478W        W 9694   0.943   8.898  11.858                        
 2479W        W 9695   0.700  10.654   0.449                        
 2480W        W 9696   3.264  11.509   1.409                        
 2481W        W 9697   9.957  13.128   3.086                        
 2482W        W 9698   8.633   1.173   2.041                        
 2483W        W 9699  13.626  10.988  11.552                        
 2484W        W 9700   5.687   3.552   2.771                        
 2485W        W 9701  12.749  12.806  11.614                        
 2486W        W 9702   6.788   6.797   8.906                        
 2487W        W 9703  13.910   0.657   1.263                        
 2488W        W 9704   9.073   5.878   3.027                        
 2489W        W 9705   5.964   1.701   3.663                        
 2490W        W 9706   8.006  11.461   3.566                        
 2491W        W 9707   8.874   1.765   2.741                        
 2492W        W 9708   4.372  10.235   9.246                        
 2493W        W 9709   4.142   3.560   2.510                        
 2494W        W 9710  11.224   7.482   1.712                        
 2495W        W 9711  12.838   9.050  10.468                        
 2496W        W 9712   0.922  12.229  11.277                        
 2497W        W 9713   8.319  12.483   0.369                        
 2498W        W 9714  10.466  10.485   9.156                        
 2499W        W 9715   5.375   9.133   0.922                        
 2500W        W 9716   1.455   6.234   1.496                        
 2501W        W 9717  10.909   7.996  10.018                        
 2502W        W 9718  11.991   4.351   3.550                        
 2503W        W 9719  10.657   1.763  10.231                        
 2504W        W 9720   3.330  12.084   0.422                        
 2505W        W 9721   4.594   4.052   9.777                        
 2506W        W 9722  12.253   0.923   9.489                        
 2507W        W 9723   8.870   0.439   0.618                        
 2508W        W 9724  13.588   4.897   0.445                        
 2509W        W 9725  12.229   8.265   8.183                        
 2510W        W 9726   8.527   9.970   9.741                        
 2511W        W 9727  10.679   8.088   0.704                        
 2512W        W 9728   0.165   2.756   2.574                        
 2513W        W 9729   7.769   8.309   8.911                        
 2514W        W 9730   4.151   0.410   2.277                        
 2515W        W 9731   8.291   0.078   8.112                        
 2516W        W 9732   8.362  10.711   9.458                        
 2517W        W 9733   2.974   2.305   2.062                        
 2518W        W 9734  13.808   4.376   1.714                        
 2519W        W 9735   8.787  12.275   9.432                        
 2520W        W 9736   7.249  10.635  11.841                        
 2521W        W 9737   1.241   9.087   8.442                        
 2522W        W 9738   6.162   6.717   3.092                        
 2523W        W 9739   4.071   0.907  11.071                        
 2524W        W 9740   3.016  13.068  10.587                        
 2525W        W 9741   6.941   8.341   1.249                        
 2526W        W 9742   6.427   9.398   8.423                        
 2527W        W 9743   9.583   2.484   1.728                        
 2528W        W 9744  13.070   1.167  10.854                        
 2529W        W 9745   1.465   4.344  11.612                        
 2530W        W 9746   8.121   6.445   9.786                        
 2531W        W 9747   1.943  13.058  11.633                        
 2532W        W 9748   5.884   2.244   8.710                        
 2533W        W 9749  13.622   6.987   1.435                        
 2534W        W 9750   9.620  10.424  11.642                        
 2535W        W 9751  10.211   1.760   1.770                        
 2536W        W 9752  13.804  11.472   0.876                        
 2537W        W 9753  12.281  10.417   8.632                        
 2538W        W 9754  10.981   7.808   3.931                        
 2539W        W 9755   3.828   5.151   1.248                        
 2540W        W 9756   0.402  10.676   2.520                        
 2541W        W 9757   8.081   5.130  11.069                        
 2542W        W 9758   8.264   1.944   0.913                        
 2543W        W 9759   9.154   0.134   0.663                        
 2544W        W 9760  13.856  10.134  11.081                        
 2545W        W 9761  11.756   5.368   4.445                        
 2546W        W 9762   5.621   0.100   9.215                        
 2547W        W 9763   0.338   6.761   9.440                        
 2548W        W 9764   8.854   5.987   2.820                        
 2549W        W 9765  12.063   9.355  11.871                        
 2550W        W 9766   1.930  10.664   3.563                        
 2551W        W 9767   0.072   5.713   3.304                        
 2552W        W 9768   6.716   0.638  11.083                        
 2553W        W 9769   3.075   5.184  10.021                        
 2554W        W 9770   0.450   0.333   4.363                        
 2555W        W 9771   6.205   7.826   0.149                        
 2556W        W 9772  11.211   0.699  10.018                        
 2557W        W 9773   5.929   6.183   2.580                        
 2558W        W 9774   5.668   5.744   8.375                        
 2559W        W 9775   1.487   6.428   0.906                        
 2560W        W 9776   6.793   4.646   2.488                        
 2561W        W 9777   7.012   2.045   7.623                        
 2562W        W 9778  12.760   7.752   1.770                        
 2563W        W 9779   9.333  10.759   0.387                        
 2564W        W 9780   4.564  12.833   3.572                        
 2565W        W 9781   5.111   4.902   2.589                        
 2566W        W 9782   0.335  13.111   3.367                        
 2567W        W 9783  13.346   6.694  11.880                        
 2568W        W 9784   3.630   5.713   1.524                        
 2569W        W 9785   9.625   5.664   9.671                        
 2570W        W 9786   6.748  11.782   2.008                        
 2571W        W 9787   8.531   3.780   8.457                        
 2572W        W 9788   5.936   7.562  11.621                        
 2573W        W 9789  10.192   8.094   8.679                        
 2574W        W 9790  13.905  11.738   2.065                        
 2575W        W 9791   6.008  10.687   7.650                        
 2576W        W 9792   8.296   7.013   8.383                        
 2577W        W 9793  10.973   1.426   9.227                        
 2578W        W 9794   4.394   2.457  11.276                        
 2579W        W 9795  12.221   1.696   1.798                        
 2580W        W 9796   4.318   8.070   8.614                        
 2581W        W 9797   3.504   9.608   1.766                        
 2582W        W 9798   0.924   0.445   9.168                        
 2583W        W 9799   4.598   6.503   0.944                        
 2584W        W 9800   5.895  11.805   3.042                        
 2585W        W 9801   7.308   6.736   2.736                        
 2586W        W 9802   5.098   8.366   3.898                        
 2587W        W 9803   0.447   5.718   8.449                        
 2588W        W 9804   9.615   9.657  11.395                        
 2589W        W 9805  12.573   6.759   2.545                        
 2590W        W 9806   4.315   6.512   1.138                        
 2591W        W 9807   0.674   1.470  11.363                        
 2592W        W 9808   9.955  11.760  10.843                        
 2593W        W 9809   3.776   0.726   9.695                        
 2594W        W 9810  13.016  12.487   1.528                        
 2595W        W 9811   4.346   9.937   0.408                        
 2596W        W 9812  13.904   5.150   9.792                        
 2597W        W 9813  13.134  10.134   8.339                        
 2598W        W 9814   8.538  12.063   9.503                        
 2599W        W 9815   1.653   1.437   1.194                        
 2600W        W 9816   6.511   2.801  10.229                        
 2601W        W 9817  10.662   0.388   9.993                        
 2602W        W 9818   3.301   0.150   0.112                        
 2603W        W 9819  12.017   6.143  10.307                        
 2604W        W 9820  12.825   0.659   2.333                        
 2605W        W 9821  13.368  13.623  10.777                        
 2606W        W 9822  11.213   6.798   3.580                        
 2607W        W 9823  12.259   3.890  11.618                        
 2608W        W 9824  10.112   0.094   1.955                        
 2609W        W 9825  11.530  10.950   2.843                        
 2610W        W 9826   3.247   8.810   2.548                        
 2611W        W 9827   4.365   1.231  10.761                        
 2612W        W 9828  12.334   1.667   0.158                        
 2613W        W 9829  13.833   1.930   0.914                        
 2614W        W 9830  10.688  13.024   8.679                        
 2615W        W 9831  13.134  11.433  11.819                        
 2616W        W 9832  10.465   0.381   1.193                        
 2617W        W 9833   9.069   8.576   3.629                        
 2618W        W 9834  11.287   5.688   3.354                        
 2619W        W 9835   4.656  12.533   8.981                        
 2620W        W 9836   0.612   5.450   9.484                        
 2621W        W 9837   4.316  10.168   3.269                        
 2622W        W 9838  11.753   3.276   8.681                        
 2623W        W 9839   4.406  11.725   1.418                        
 2624W        W 9840   3.272   4.084   9.741                        
 2625W        W 9841   9.333   5.213  11.533                        
 2626W        W 9842   6.450  11.537   1.200                        
 2627W        W 9843  11.171  13.630   0.114                        
 2628W        W 9844   8.265   8.808  11.103                        
 2629W        W 9845   4.420   2.474   0.987                        
 2630W        W 9846   1.177   8.585  11.828                        
 2631W        W 9847  11.776   0.357  10.506                        
 2632W        W 9848   7.201   4.148   3.878                        
 2633W        W 9849   5.160   8.884   3.307                        
 2634W        W 9850  11.989   5.421   2.575                        
 2635W        W 9851   7.545   8.865  11.300                        
 2636W        W 9852   3.579   1.389   8.870                        
 2637W        W 9853   2.255  10.213  10.294                        
 2638W        W 9854   2.713  12.328   2.777                        
 2639W        W 9855   2.997   3.241   8.961                        
 2640W        W 9856   7.589   1.250   8.339                        
 2641W        W 9857  13.629  11.972  11.874                        
 2642W        W 9858   4.127  10.104  10.741                        
 2643W        W 9859  12.770   9.594  10.038                        
 2644W        W 9860  12.009   4.419   1.435                        
 2645W        W 9861   1.402   6.996   4.197                        
 2646W        W 9862   2.804   7.991   3.638                        
 2647W        W 9863   6.227   4.891  11.076                        
 2648W        W 9864   7.575  12.495   2.739                        
 2649W        W 9865   9.693  11.470   1.242                        
 2650W        W 9866  12.506   2.217  10.746                        
 2651W        W 9867  12.046   6.994  11.580                        
 2652W        W 9868   8.344   9.850  10.325                        
 2653W        W 9869   3.855   8.848   3.566                        
 2654W        W 9870   1.179  12.243  10.469                        
 2655W        W 9871   8.295   7.575   2.569                        
 2656W        W 9872   7.514   1.165   1.691                        
 2657W        W 9873  11.977   1.167   8.924                        
 2658W        W 9874   0.071   2.017   0.716                        
 2659W        W 9875   5.399   1.446   0.095                        
 2660W        W 9876  10.936   3.365   2.517                        
 2661W        W 9877   7.816  12.802   9.689                        
 2662W        W 9878  13.382  12.276   9.240                        
 2663W        W 9879   1.505   9.928   2.004                        
 2664W        W 9880   2.041   9.356   9.772                        
 2665W        W 9881   5.210   1.976   0.164                        
 2666W        W 9882  11.811   1.409  11.805                        
 2667W        W 9883   8.799  12.221   2.333                        
 2668W        W 9884   8.002   4.842   2.303                        
 2669W        W 9885   9.365   1.970   2.322                        
 2670W        W 9886   2.250  13.896   1.971                        
 2671W        W 9887   8.055   7.765   1.436                        
 2672W        W 9888   2.761   4.594  10.203                        
 2673W        W 9889   9.166   2.293   2.028                        
 2674W        W 9890  10.423   3.309   9.763                        
 2675W        W 9891  12.860  10.146   2.833                        
 2676W        W 9892   0.441   4.410   0.614                        
 2677W        W 9893   5.695   4.606  10.481                        
 2678W        W 9894  10.148  10.139  11.068                        
 2679W        W 9895   5.451   4.664   3.612                        
 2680W        W 9896   6.217  13.584  11.327                        
 2681W        W 9897   4.394   3.521   8.338                        
 2682W        W 9898  10.121   5.363   1.432                        
 2683W        W 9899  12.765   6.252  10.003                        
 2684W        W 9900   8.309   3.341   9.459                        
 2685W        W 9901   4.087   5.437   3.597                        
 2686W        W 9902   9.910   2.803   9.483                        
 2687W        W 9903   0.689   0.598  10.316                        
 2688W        W 9904   0.138   0.598   0.869                        
 2689W        W 9905  13.871   1.774   0.883                        
 2690W        W 9906   4.090   8.855   8.978                        
 2691W        W 9907  10.127   4.085  11.874                        
 2692W        W 9908   4.631  10.234  10.791                        
 2693W        W 9909  13.395   1.392   9.742                        
 2694W        W 9910  13.284  11.429   2.490                        
 2695W        W 9911  13.387  13.601   9.723                        
 2696W        W 9912  12.803   4.113   1.182                        
 2697W        W 9913   5.377   1.513  11.350                        
 2698W        W 9914  12.845   0.428   9.240                        
 2699W        W 9915   5.713  10.714   8.448                        
 2700W        W 9916   4.568   9.330  11.095                        
 2701W        W 9917   8.029   1.918   9.485                        
 2702W        W 9918  12.492   1.170  10.543                        
 2703W        W 9919   3.092   1.440   3.640                        
 2704W        W 9920   4.858  13.877   1.409                        
 2705W        W 9921   1.189   7.295   2.313                        
 2706W        W 9922   0.693  10.403  10.795                        
 2707W        W 9923  10.473  12.240  11.039                        
 2708W        W 9924   5.173   2.728   3.122                        
 2709W        W 9925   9.921  10.742   8.951                        
 2710W        W 9926   3.348   6.270   0.679                        
 2711W        W 9927   3.507   3.302  10.795                        
 2712W        W 9928   2.973   5.946   4.379                        
 2713W        W 9929   1.236  13.276   4.101                        
 2714W        W 9930  13.645   8.021   2.039                        
 2715W        W 9931   0.661  13.605  11.554                        
 2716W        W 9932  13.847   5.090   1.230                        
 2717W        W 9933   7.822   7.052  11.572                        
 2718W        W 9934  13.036  11.994   8.882                        
 2719W        W 9935  10.139  11.434  11.390                        
 2720W        W 9936   8.578  13.283   8.365                        
 2721W        W 9937   5.451   4.316   3.557                        
 2722W        W 9938   8.282  13.299   9.461                        
 2723W        W 9939  13.082  11.015   9.147                        
 2724W        W 9940   6.739   6.272   0.922                        
 2725W        W 9941   3.576   7.529   3.353                        
 2726W        W 9942  12.592  11.286   3.538                        
 2727W        W 9943  13.099  10.967  10.526                        
 2728W        W 9944   1.423   4.853   3.814                        
 2729W        W 9945   3.561  11.498   0.456                        
 2730W        W 9946   9.064   2.250   0.730                        
 2731W        W 9947  13.298   1.393   3.808                        
 2732W        W 9948   8.808   1.694  11.310                        
 2733W        W 9949  12.811   0.382  10.243                        
 2734W        W 9950  13.587  10.707   7.895                        
 2735W        W 9951  11.232   2.454   4.439                        
 2736W        W 9952   4.627  13.926   0.951                        
 2737W        W 9953   6.250   0.963   1.443                        
 2738W        W 9954   3.367   2.266   0.937                        
 2739W        W 9955   4.626   6.143  10.048                        
 2740W        W 9956  12.581   8.102   0.124                        
 2741W        W 9957   5.478   4.863   0.069                        
 2742W        W 9958   7.507   3.798   4.373                        
 2743W        W 9959  13.138   7.247   3.051                        
 2744W        W 9960  11.462   4.594   0.623                        
 2745W        W 9961   9.335  13.640   2.328                        
 2746W        W 9962  13.326   1.742   1.463                        
 2747W        W 9963   4.075   1.455   7.610                        
 2748W        W 9964   4.339   6.492   8.351                        
 2749W        W 9965  11.167   6.722   9.175                        
 2750W        W 9966  10.481   7.851  11.078                        
 2751W        W 9967   6.729   7.256   2.214                        
 2752W        W 9968   1.142   1.420   9.217                        
 2753W        W 9969   8.618   9.967  10.272                        
 2754W        W 9970  13.289  10.209   3.058                        
 2755W        W 9971   1.657   1.505   3.894                        
 2756W        W 9972   6.710   0.405   0.992                        
 2757W        W 9973   5.352   4.400   0.457                        
 2758W        W 9974  10.707   8.865   0.157                        
 2759W        W 9975  13.137  11.214   2.501                        
 2760W        W 9976   6.529   1.168   2.508                        
 2761W        W 9977  13.109   6.235   1.468                        
 2762W        W 9978  10.969   4.361  10.254                        
 2763W        W 9979   7.545   4.620   8.365                        
 2764W        W 9980   3.081   4.074  10.788                        
 2765W        W 9981  10.207   0.076   3.376                        
 2766W        W 9982   0.407   3.870   9.177                        
 2767W        W 9983   1.251   1.764  10.325                        
 2768W        W 9984   4.311   8.056  11.021                        
 2769W        W 9985   7.501  13.853   8.664                        
 2770W        W 9986   0.702   8.577  11.062                        
 2771W        W 9987   6.775   2.521   3.303                        
 2772W        W 9988   6.689   5.979   3.082                        
 2773W        W 9989   5.134   0.128   1.200                        
 2774W        W 9990   5.352   2.264   0.411                        
 2775W        W 9991   4.151   0.198   8.382                        
 2776W        W 9992   8.899   9.871   2.593                        
 2777W        W 9993  13.382   6.181  11.644                        
 2778W        W 9994   3.887  13.816   8.401                        
 2779W        W 9995  12.228   8.278   2.548                        
 2780W        W 9996   8.864   9.063   0.911                        
 2781W        W 9997  13.394   1.420   3.658                        
 2782W        W 9998   6.004   8.297   2.496                        
 2783W        W 9999   9.141   4.303   2.223                        
 2784W        W10000   7.466   6.750   0.726                        
 2785W        W10001  12.011  11.775   2.820                        
 2786W        W10002  12.761   2.265  11.658                        
 2787W        W10003  10.436   9.137  10.022                        
 2788W        W10004  10.371   8.082   1.157                        
 2789W        W10005  13.354   3.537  11.897                        
 2790W        W10006   5.352   8.818  11.883                        
 2791W        W10007   8.570   0.933   8.353                        
 2792W        W10008  12.551   6.746   1.140                        
 2793W        W10009   1.510   3.052   1.504                        
 2794W        W10010  13.815   6.712   3.577                        
 2795W        W10011   9.062  12.854   9.440                        
 2796W        W10012   5.449   3.538   1.531                        
 2797W        W10013   5.647  11.209  10.028                        
 2798W        W10014  12.048  11.223  10.263                        
 2799W        W10015   4.662   4.614   8.346                        
 2800W        W10016  10.980   4.322   0.079                        
 2801W        W10017  13.325  10.393   1.785                        
 2802W        W10018   4.571  11.027   3.377                        
 2803W        W10019   5.472   5.458  10.803                        
 2804W        W10020   6.190   8.278  11.594                        
 2805W        W10021   3.562  12.517   9.747                        
 2806W        W10022  11.254   6.758  11.052                        
 2807W        W10023   2.187   4.307   1.262                        
 2808W        W10024   9.681  10.215  11.801                        
 2809W        W10025   0.893   9.626   3.591                        
 2810W        W10026   6.794  13.403   8.657                        
 2811W        W10027   4.672   1.134   2.809                        
 2812W        W10028   1.651   3.083  11.893                        
 2813W        W10029   6.144   0.714   3.391                        
 2814W        W10030   8.879   4.585   0.143                        
 2815W        W10031   8.099   3.563   0.081                        
 2816W        W10032   5.479   0.398   3.589                        
 2817W        W10033   8.892   5.374   8.407                        
 2818W        W10034   4.570   5.471  11.540                        
 2819W        W10035   3.581  10.234   1.150                        
 2820W        W10036   7.483   0.937   8.383                        
 2821W        W10037   6.193   2.999   2.761                        
 2822W        W10038   8.023   5.986  10.507                        
 2823W        W10039  10.430  10.136   2.823                        
 2824W        W10040  12.259   5.176   3.103                        
 2825W        W10041  12.295   8.879   2.511                        
 2826W        W10042  12.308   9.953   9.996                        
 2827W        W10043   1.167   0.605   4.102                        
 2828W        W10044  13.095   3.059   3.342                        
 2829W        W10045   1.756   4.934  11.902                        
 2830W        W10046  11.189   4.414   3.580                        
 2831W        W10047   0.674  11.817   9.941                        
 2832W        W10048   6.503   6.690   3.640                        
 2833W        W10049  12.021   1.497  11.285                        
 2834W        W10050  12.811  11.017  10.538                        
 2835W        W10051  13.038   4.307  10.474                        
 2836W        W10052  10.764  13.284  11.857                        
 2837W        W10053   4.323  12.223   8.146                        
 2838W        W10054   0.879  10.113   9.681                        
 2839W        W10055   8.377   3.276   9.172                        
 2840W        W10056   2.286   0.868   2.019                        
 2841W        W10057   5.392  12.240   3.277                        
 2842W        W10058   0.893   0.916   0.104                        
 2843W        W10059  11.208  10.221   1.432                        
 2844W        W10060  13.015   3.881   8.657                        
 2845W        W10061  10.111  12.870   4.159                        
 2846W        W10062   8.303  11.546   1.973                        
 2847W        W10063   2.823  12.048  11.129                        
 2848W        W10064  12.877  12.836   2.830                        
 2849W        W10065  10.710   4.674   2.041                        
 2850W        W10066  13.604   3.857  11.339                        
 2851W        W10067   6.173  13.334  10.848                        
 2852W        W10068  11.715  11.817   8.912                        
 2853W        W10069   6.758   1.128  10.242                        
 2854W        W10070   8.542   2.447  11.844                        
 2855W        W10071  12.528  13.106   0.411                        
 2856W        W10072   0.678  12.237   2.534                        
 2857W        W10073  10.466  11.529  11.574                        
 2858W        W10074   3.365  12.324   1.948                        
 2859W        W10075  13.878  11.454   3.576                        
 2860W        W10076   1.228   5.916   1.249                        
 2861W        W10077  12.553  11.792   8.725                        
 2862W        W10078  12.748  12.041   2.551                        
 2863W        W10079   8.108  13.108   2.307                        
 2864W        W10080  12.073  10.698   1.986                        
 2865W        W10081   5.476   5.426   1.774                        
 2866W        W10082  13.020  11.773  11.076                        
 2867W        W10083   5.179  12.064   8.902                        
 2868W        W10084   2.038   4.347   1.140                        
 2869W        W10085   0.979   7.588  10.824                        
 2870W        W10086   7.277   4.097  10.301                        
 2871W        W10087   3.363   5.632  11.837                        
 2872W        W10088  12.770  10.661  10.001                        
 2873W        W10089   1.518   9.414   0.892                        
 2874W        W10090   1.920   0.359   1.943                        
 2875W        W10091   8.852   8.565   1.512                        
 2876W        W10092   4.073   9.072   3.643                        
 2877W        W10093   6.432  13.385   2.054                        
 2878W        W10094   0.334   6.248   0.879                        
 2879W        W10095   8.829   9.071  11.036                        
 2880W        W10096  13.125   3.062   8.069                        
 2881W        W10097   3.794  11.180   1.728                        
 2882W        W10098  11.169   1.467   8.671                        
 2883W        W10099  13.359   7.222   1.784                        
 2884W        W10100  11.549   4.154   1.772                        
 2885W        W10101   9.051  11.432   3.093                        
 2886W        W10102   6.462  11.428   2.831                        
 2887W        W10103  13.027  12.031   2.482                        
 2888W        W10104  11.720   9.339  11.126                        
 2889W        W10105  10.411  13.345   9.454                        
 2890W        W10106   7.303   8.610   3.332                        
 2891W        W10107  10.948  11.505   1.179                        
 2892W        W10108   8.886   7.746  10.238                        
 2893W        W10109   7.314   7.210  11.650                        
 2894W        W10110  10.226  10.156  10.595                        
 2895W        W10111   7.271   5.420   1.181                        
 2896W        W10112   2.243   3.560   9.669                        
 2897W        W10113  11.964   8.590   8.198                        
 2898W        W10114  12.268   1.945  10.029                        
 2899W        W10115  12.579   0.084   7.897                        
 2900W        W10116   3.292   8.586  10.242                        
 2901W        W10117   4.106  13.355   0.136                        
 2902W        W10118   6.220   9.104  10.778                        
 2903W        W10119   3.260  13.291   7.886                        
 2904W        W10120  10.478  13.643   3.382                        
 2905W        W10121   4.607   2.466   8.676                        
 2906W        W10122  12.039   3.575  11.325                        
 2907W        W10123  12.319  13.831   8.660                        
 2908W        W10124  12.826   0.892   9.478                        
 2909W        W10125   5.706   8.386   3.116                        
 2910W        W10126   0.897   9.166   1.411                        
 2911W        W10127  10.902   3.883   9.443                        
 2912W        W10128   6.457   3.809   2.029                        
 2913W        W10129   9.090  12.040   3.630                        
 2914W        W10130   6.451   4.405   1.426                        
 2915W        W10131   6.442   8.548  10.249                        
 2916W        W10132   9.845  10.991  10.235                        
 2917W        W10133   2.474   6.505   0.724                        
 2918W        W10134   9.849  12.757   9.249                        
 2919W        W10135   8.264   9.955   0.425                        
 2920W        W10136  11.240   1.230  10.814                        
 2921W        W10137  10.648   5.933  11.616                        
 2922W        W10138  11.814  12.302   0.645                        
 2923W        W10139   1.432   5.965   9.417                        
 2924W        W10140  13.044   1.712   9.161                        
 2925W        W10141  12.773   3.885   0.351                        
 2926W        W10142  12.604   4.359   2.241                        
 2927W        W10143   0.193  10.741   1.494                        
 2928W        W10144   9.939   5.890   2.489                        
 2929W        W10145   2.725   7.243   0.389                        
 2930W        W10146   9.073   3.009  10.473                        
 2931W        W10147   3.349  13.135  11.625                        
 2932W        W10148   0.336   8.013   9.419                        
 2933W        W10149  12.749   0.080  11.656                        
 2934W        W10150   6.536  12.584   9.438                        
 2935W        W10151  10.960   9.947   0.990                        
 2936W        W10152   6.193   0.720   3.027                        
 2937W        W10153  10.427   2.491   3.541                        
 2938W        W10154   9.315  13.099  11.854                        
 2939W        W10155   7.053   9.378  10.564                        
 2940W        W10156  10.692   0.719   3.268                        
 2941W        W10157   3.054   0.718   8.889                        
 2942W        W10158  11.460   8.060   3.035                        
 2943W        W10159   1.675   1.191  10.013                        
 2944W        W10160  10.201   1.509   3.031                        
 2945W        W10161  13.556   9.853  11.607                        
 2946W        W10162  13.659   4.073   9.474                        
 2947W        W10163   8.581   2.980   7.843                        
 2948W        W10164   8.321   1.443  11.007                        
 2949W        W10165  11.818   2.197   0.099                        
 2950W        W10166   1.495   7.841   0.921                        
 2951W        W10167  12.025   5.480   2.789                        
 2952W        W10168   0.926  13.327   2.317                        
 2953W        W10169   7.764   6.491   9.526                        
 2954W        W10170  10.368   4.067   1.242                        
 2955W        W10171   9.361  13.543  11.618                        
 2956W        W10172   8.323   7.063  10.576                        
 2957W        W10173   0.444   0.724   4.360                        
 2958W        W10174   5.171   6.987   8.404                        
 2959W        W10175   8.542   4.321  11.817                        
 2960W        W10176  12.273   2.267   0.711                        
 2961W        W10177   2.217   5.417   8.150                        
 2962W        W10178   2.281  12.594   0.691                        
 2963W        W10179   5.615   1.945  10.330                        
 2964W        W10180   4.399   4.298   0.948                        
 2965W        W10181   0.916   0.907   2.038                        
 2966W        W10182   2.568   5.388   0.946                        
 2967W        W10183   0.952   6.174   9.250                        
 2968W        W10184   5.691   6.782   0.940                        
 2969W        W10185  13.658   4.927   3.597                        
 2970W        W10186   0.669   4.687   9.727                        
 2971W        W10187   7.473   1.251   2.841                        
 2972W        W10188   0.693   6.248   2.205                        
 2973W        W10189  13.031   0.688   1.743                        
 2974W        W10190   3.286   9.649  10.506                        
 2975W        W10191   3.627  12.528   2.023                        
 2976W        W10192   8.530   5.195   3.322                        
 2977W        W10193   3.102   0.705   0.092                        
 2978W        W10194  11.737   2.728  10.551                        
 2979W        W10195   6.200   0.718  11.105                        
 2980W        W10196   0.168   5.706   7.655                        
 2981W        W10197   5.086   7.217   9.993                        
 2982W        W10198   9.903   3.864  11.317                        
 2983W        W10199   0.394   0.420  11.833                        
 2984W        W10200   8.300  12.797   9.996                        
 2985W        W10201   5.214  13.877   0.611                        
 2986W        W10202   0.331   7.770   3.651                        
 2987W        W10203   5.202  12.079   9.410                        
 2988W        W10204  13.397  13.881  10.523                        
 2989W        W10205  12.005   6.998   2.488                        
 2990W        W10206   9.672  13.552   0.118                        
 2991W        W10207  13.856  13.856   2.469                        
 2992W        W10208   2.822   8.119   8.160                        
 2993W        W10209   1.484   1.227   0.955                        
 2994W        W10210   4.687  10.660   3.367                        
 2995W        W10211  10.483   5.897   1.256                        
 2996W        W10212   9.380   6.180  10.567                        
 2997W        W10213   0.684   7.514   1.435                        
 2998W        W10214  11.760   9.320  11.298                        
 2999W        W10215  12.524   0.453   3.318                        
 3000W        W10216   7.550   6.958   0.932                        
 3001W        W10217  11.774   8.120  10.500                        
 3002W        W10218   2.568   8.115   9.742                        
 3003W        W10219  10.444  11.504  11.397                        
 3004W        W10220  12.792   0.164  11.347                        
 3005W        W10221  13.573  12.062  11.548                        
 3006W        W10222   4.584  11.168   9.778                        
 3007W        W10223   3.801   4.348   0.610                        
 3008W        W10224   2.711   6.979  10.787                        
 3009W        W10225   9.063   1.230   1.237                        
 3010W        W10226  10.663   9.929   8.689                        
 3011W        W10227   6.151   0.088   1.743                        
 3012W        W10228  11.802  10.993   3.017                        
 3013W        W10229   6.733   0.101   0.361                        
 3014W        W10230   6.260  10.405   1.226                        
 3015W        W10231  10.470   5.196   0.674                        
 3016W        W10232   9.168   1.247   0.418                        
 3017W        W10233   1.970  13.289   0.943                        
 3018W        W10234  13.633   4.359   8.406                        
 3019W        W10235  10.704   6.178   3.593                        
 3020W        W10236   5.178   4.303   8.700                        
 3021W        W10237   3.541  13.860  10.514                        
 3022W        W10238   5.189   3.314   2.763                        
 3023W        W10239   3.821   5.954  10.762                        
 3024W        W10240  10.705  13.083   3.653                        
 3025W        W10241  10.684   3.527   9.518                        
 3026W        W10242   0.069   8.053   0.614                        
 3027W        W10243   5.897   9.320   9.473                        
 3028W        W10244   0.374   9.359   3.871                        
 3029W        W10245  10.950  11.704   2.291                        
 3030W        W10246   7.515   5.188  10.565                        
 3031W        W10247  12.847   3.259   8.709                        
 3032W        W10248   4.334   2.282   1.470                        
 3033W        W10249  13.116   1.140   0.344                        
 3034W        W10250   7.056   3.787   8.393                        
 3035W        W10251   2.449   0.961   8.988                        
 3036W        W10252   9.951  11.722   0.609                        
 3037W        W10253   3.852  10.684   0.916                        
 3038W        W10254  10.206  12.253   3.133                        
 3039W        W10255   8.597   9.961   9.482                        
 3040W        W10256   0.864   2.837   3.300                        
 3041W        W10257  10.692   0.338   3.363                        
 3042W        W10258   0.933   8.014   1.744                        
 3043W        W10259   7.239   0.654   1.429                        
 3044W        W10260   3.298   2.539  10.530                        
 3045W        W10261   1.719  13.097   9.194                        
 3046W        W10262   3.046   5.962   9.178                        
 3047W        W10263  13.869   6.690   7.819                        
 3048W        W10264  11.520   6.429  11.663                        
 3049W        W10265   0.706  11.998   3.650                        
 3050W        W10266   6.446   1.195   4.349                        
 3051W        W10267   6.784   6.691   1.493                        
 3052W        W10268   8.338  12.336   2.530                        
 3053W        W10269   2.310   6.179   0.657                        
 3054W        W10270  10.758   3.566   3.300                        
 3055W        W10271   5.683   7.299   2.528                        
 3056W        W10272   5.649   7.269   8.721                        
 3057W        W10273   0.955   0.873   9.972                        
 3058W        W10274  11.963   2.245   2.561                        
 3059W        W10275   2.040  11.470   9.428                        
 3060W        W10276  11.227   5.690  10.752                        
 3061W        W10277   6.726   5.085   1.183                        
 3062W        W10278   0.974   4.684   1.782                        
 3063W        W10279  13.823  11.774  10.469                        
 3064W        W10280   2.542   2.204   2.535                        
 3065W        W10281   2.527   9.661  11.806                        
 3066W        W10282   3.037   0.664   1.710                        
 3067W        W10283   0.394   8.879   1.263                        
 3068W        W10284   8.025   6.183  11.024                        
 3069W        W10285   8.000   5.393   9.464                        
 3070W        W10286  10.761   5.175   9.965                        
 3071W        W10287   9.866   4.847   9.257                        
 3072W        W10288   5.979  13.823  11.367                        
 3073W        W10289  11.751   8.280   9.695                        
 3074W        W10290  12.484   8.630  11.598                        
 3075W        W10291  12.804   1.421  10.042                        
 3076W        W10292   4.109   5.952   8.117                        
 3077W        W10293   1.409   3.884   8.166                        
 3078W        W10294  10.722  11.998  10.049                        
 3079W        W10295  13.304   0.969   1.707                        
 3080W        W10296  10.651   7.577   2.064                        
 3081W        W10297  13.033   2.574   3.063                        
 3082W        W10298   8.356   9.679   8.718                        
 3083W        W10299  10.396   8.900   1.234                        
 3084W        W10300   3.526  12.271   2.573                        
 3085W        W10301   5.703   2.821  11.370                        
 3086W        W10302   7.827  12.227   9.232                        
 3087W        W10303   6.997   5.198   3.311                        
 3088W        W10304   5.210   5.744   0.141                        
 3089W        W10305  12.533   2.448  10.019                        
 3090W        W10306   6.720   9.676   3.014                        
 3091W        W10307   2.776   0.955   8.886                        
 3092W        W10308   3.804   2.257   2.325                        
 3093W        W10309  12.070  12.829   8.669                        
 3094W        W10310   0.722   0.880  10.056                        
 3095W        W10311   8.082  10.141  11.883                        
 3096W        W10312   5.366   9.088  11.349                        
 3097W        W10313   4.619  12.008   0.701                        
 3098W        W10314   2.000   0.688   2.806                        
 3099W        W10315   2.463   2.488   2.763                        
 3100W        W10316  10.898   9.959   9.993                        
 3101W        W10317   7.326   5.174   2.003                        
 3102W        W10318  13.920   7.566  11.806                        
 3103W        W10319  13.390   1.213   9.189                        
 3104W        W10320   7.236   1.961   1.182                        
 3105W        W10321   6.232   9.405   3.043                        
 3106W        W10322   0.119   1.133   2.253                        
 3107W        W10323   4.683   1.772   3.274                        
 3108W        W10324   9.441  10.653  11.590                        
 3109W        W10325  13.642  11.967   0.869                        
 3110W        W10326   1.466   9.158   2.235                        
 3111W        W10327   5.403   4.046  10.292                        
 3112W        W10328   6.500   1.410   1.524                        
 3113W        W10329   2.022  11.809   3.623                        
 3114W        W10330   4.142  11.024  10.565                        
 3115W        W10331  11.468   3.251   1.203                        
 3116W        W10332   4.081  10.466   7.842                        
 3117W        W10333   0.924   3.789   1.971                        
 3118W        W10334   4.077   1.700   0.182                        
 3119W        W10335   1.963   7.262  11.393                        
 3120W        W10336   2.755   3.579   0.197                        
 3121W        W10337   4.850   0.917   8.344                        
 3122W        W10338  12.608   8.790   0.730                        
 3123W        W10339  11.501   9.329   8.428                        
 3124W        W10340   2.241   7.303  11.863                        
 3125W        W10341   0.162  10.995   8.958                        
 3126W        W10342   1.741   8.292   2.230                        
 3127W        W10343  11.178   7.287   0.375                        
 3128W        W10344  10.170   5.449   9.988                        
 3129W        W10345   6.486   3.283   9.482                        
 3130W        W10346   0.161   3.598   1.474                        
 3131W        W10347  12.749   1.160   0.656                        
 3132W        W10348  11.710  10.160  10.286                        
 3133W        W10349   4.338   8.370   0.622                        
 3134W        W10350   4.129   8.350  10.763                        
 3135W        W10351  11.285   2.006   2.565                        
 3136W        W10352   4.609   3.770   3.010                        
 3137W        W10353  12.550   2.716   3.343                        
 3138W        W10354  13.824  12.747  10.837                        
 3139W        W10355   5.216   1.655   7.661                        
 3140W        W10356   9.433   8.553  11.052                        
 3141W        W10357  10.206   8.303   3.341                        
 3142W        W10358   6.188   6.972  11.072                        
 3143W        W10359   5.098   4.076   1.706                        
 3144W        W10360   1.714   5.354   9.944                        
 3145W        W10361  11.550   0.719   3.280                        
 3146W        W10362   0.966   1.137   1.190                        
 3147W        W10363  12.514   1.517  10.299                        
 3148W        W10364   5.723   0.672   3.024                        
 3149W        W10365   5.416   5.685   8.961                        
 3150W        W10366   9.674  13.369   3.571                        
 3151W        W10367   7.751   2.008   3.311                        
 3152W        W10368   0.723  12.746   3.375                        
 3153W        W10369   4.916  12.016   9.234                        
 3154W        W10370  12.066  11.206   0.137                        
 3155W        W10371   6.218   1.446   7.578                        
 3156W        W10372   6.956   2.215   8.106                        
 3157W        W10373   1.673   9.092   2.498                        
 3158W        W10374   6.711   1.923   7.626                        
 3159W        W10375   6.981   3.024   3.664                        
 3160W        W10376  10.483   4.904   2.287                        
 3161W        W10377   9.924   6.729   3.015                        
 3162W        W10378   6.718   6.753   0.926                        
 3163W        W10379   2.520   6.765   0.183                        
 3164W        W10380   2.554  13.012   3.814                        
 3165W        W10381  10.164   0.894   8.905                        
 3166W        W10382   1.487   8.870  10.810                        
 3167W        W10383  10.389   6.204   8.622                        
 3168W        W10384  13.831   4.824  11.883                        
 3169W        W10385   6.701  11.801   0.874                        
 3170W        W10386  10.403  13.326  11.620                        
 3171W        W10387   4.327   1.461   3.356                        
 3172W        W10388   8.075   7.299   9.228                        
 3173W        W10389   8.647   4.110   1.800                        
 3174W        W10390  10.684   4.153   3.386                        
 3175W        W10391  12.289   5.149   0.121                        
 3176W        W10392   6.954   0.951  11.881                        
 3177W        W10393   9.958   2.801   9.942                        
 3178W        W10394   8.016  10.683   2.474                        
 3179W        W10395   7.303   0.649   8.641                        
 3180W        W10396   7.289   4.862   9.985                        
 3181W        W10397   0.676   3.878   8.648                        
 3182W        W10398  11.760  13.020   1.172                        
 3183W        W10399   5.407   6.802   0.377                        
 3184W        W10400  11.690  13.019  10.243                        
 3185W        W10401   3.030   6.959   3.391                        
 3186W        W10402   4.135   6.192  11.291                        
 3187W        W10403  12.500  13.372   0.964                        
 3188W        W10404  10.193   7.535  10.301                        
 3189W        W10405  10.447  10.483   9.695                        
 3190W        W10406   7.514   4.946  10.046                        
 3191W        W10407   4.893  12.587  11.055                        
 3192W        W10408  13.555  10.952   0.465                        
 3193W        W10409   0.369  10.467   3.298                        
 3194W        W10410  12.831  10.898   9.785                        
 3195W        W10411   9.436  12.798   1.757                        
 3196W        W10412  11.812   8.313   2.761                        
 3197W        W10413  11.258   5.395   3.634                        
 3198W        W10414   7.007   6.008   8.938                        
 3199W        W10415   4.665   3.806   9.494                        
 3200W        W10416  12.276  13.662   0.727                        
 3201W        W10417   9.947   7.494   2.526                        
 3202W        W10418  10.949   6.229   0.383                        
 3203W        W10419   0.640   5.718   8.882                        
 3204W        W10420  10.993   8.858   3.042                        
 3205W        W10421   1.736  11.985   0.185                        
 3206W        W10422  11.439   8.105   1.719                        
 3207W        W10423   9.704   8.785  10.572                        
 3208W        W10424   7.037   1.443   1.406                        
 3209W        W10425  10.160   1.253   0.366                        
 3210W        W10426   5.452   6.416   1.988                        
 3211W        W10427   8.837  11.958   8.887                        
 3212W        W10428  10.698   5.678   2.781                        
 3213W        W10429   0.430   6.175   9.974                        
 3214W        W10430   7.594   9.422   1.430                        
 3215W        W10431  13.611   4.142   0.427                        
 3216W        W10432  11.465   2.478  10.038                        
 3217W        W10433  11.993   2.277   1.764                        
 3218W        W10434   2.190   8.104   1.793                        
 3219W        W10435   4.147   3.892   0.701                        
 3220W        W10436   5.656  13.307  10.209                        
 3221W        W10437  12.047   2.484   0.369                        
 3222W        W10438   9.079   9.627   1.243                        
 3223W        W10439   5.106   1.656   0.642                        
 3224W        W10440  13.345   0.900   3.079                        
 3225W        W10441   0.136   2.258   9.776                        
 3226W        W10442  12.069   6.778   0.105                        
 3227W        W10443  11.453   8.024   1.482                        
 3228W        W10444  11.513   1.415   3.281                        
 3229W        W10445   3.611   7.574   9.224                        
 3230W        W10446   6.473  10.156  10.790                        
 3231W        W10447  12.865   9.644   2.294                        
 3232W        W10448  13.398   1.698   1.760                        
 3233W        W10449  10.387   4.655   9.709                        
 3234W        W10450  12.070   3.273  10.273                        
 3235W        W10451   9.703   2.561   3.649                        
 3236W        W10452  13.899   5.362   3.638                        
 3237W        W10453   8.011   0.160  11.316                        
 3238W        W10454   5.895   3.769   0.909                        
 3239W        W10455   6.760   3.623  11.809                        
 3240W        W10456  13.925   2.202  11.616                        
 3241W        W10457   3.604  10.158   2.793                        
 3242W        W10458   4.323  11.817  10.553                        
 3243W        W10459   5.375   8.873   0.417                        
 3244W        W10460  10.132   4.834   1.451                        
 3245W        W10461   3.005   9.609   1.786                        
 3246W        W10462   7.772   1.681   0.171                        
 3247W        W10463  10.916   3.787   8.348                        
 3248W        W10464   3.853  12.751   3.382                        
 3249W        W10465  10.230  12.304   7.553                        
 3250W        W10466   7.585   3.621   9.422                        
 3251W        W10467   2.287   7.265   9.209                        
 3252W        W10468  12.227   9.104   2.819                        
 3253W        W10469   0.598   8.543   8.982                        
 3254W        W10470   8.906   8.888   0.396                        
 3255W        W10471   5.916   0.646  10.586                        
 3256W        W10472  13.095   4.342   9.173                        
 3257W        W10473   4.120   0.459   3.653                        
 3258W        W10474  10.462   5.091   1.971                        
 3259W        W10475   3.501  12.243   0.629                        
 3260W        W10476   2.470   4.062   4.434                        
 3261W        W10477  13.850   0.331  10.002                        
 3262W        W10478   3.244   3.086   2.052                        
 3263W        W10479   8.319   1.177   0.436                        
 3264W        W10480   4.661  11.211   3.270                        
 3265W        W10481   1.718  10.477   8.378                        
 3266W        W10482   0.409  11.698   3.029                        
 3267W        W10483   6.687   1.514   3.604                        
 3268W        W10484  11.212  12.851   9.253                        
 3269W        W10485  12.346  11.995  11.819                        
 3270W        W10486   5.618  10.428   1.964                        
 3271W        W10487   1.751   3.775   0.179                        
 3272W        W10488  10.433   1.135  10.049                        
 3273W        W10489  13.324   4.410   0.726                        
 3274W        W10490  11.429   0.636  10.830                        
 3275W        W10491   9.896   8.820   2.798                        
 3276W        W10492   9.106   4.590   8.954                        
 3277W        W10493   3.853   9.324   0.409                        
 3278W        W10494   7.062  13.379  10.757                        
 3279W        W10495  11.957   7.486   3.353                        
 3280W        W10496  12.049  13.382  11.080                        
 3281W        W10497   8.307   3.238   1.682                        
 3282W        W10498   6.764   1.445   9.485                        
 3283W        W10499   8.339   0.083   9.693                        
 3284W        W10500   4.045   5.179   8.133                        
 3285W        W10501   0.894   4.864  11.856                        
 3286W        W10502  12.516   9.096   9.675                        
 3287W        W10503  12.519   7.252   9.253                        
 3288W        W10504  11.782   2.737   9.475                        
 3289W        W10505   2.281   4.598   8.872                        
 3290W        W10506   2.556   0.418   3.052                        
 3291W        W10507   5.652  13.666   1.452                        
 3292W        W10508   6.944   2.513   1.975                        
 3293W        W10509  12.807   1.745   0.447                        
 3294W        W10510  10.119   1.472  10.045                        
 3295W        W10511   7.838   3.516   3.542                        
 3296W        W10512  13.554  13.289   3.613                        
 3297W        W10513  12.758  12.076   8.379                        
 3298W        W10514   1.227   7.805   8.951                        
 3299W        W10515   9.063   5.661   3.369                        
 3300W        W10516  10.648   8.025   8.637                        
 3301W        W10517   1.442   1.511   4.157                        
 3302W        W10518   0.966  10.382   2.219                        
 3303W        W10519  12.786  13.326  11.866                        
 3304W        W10520   4.111  13.624   3.078                        
 3305W        W10521   8.526   7.845   8.725                        
 3306W        W10522  13.843   0.653   7.636                        
 3307W        W10523   9.365  13.878   2.017                        
 3308W        W10524   8.083  12.246   1.230                        
 3309W        W10525   0.184   2.978   0.938                        
 3310W        W10526   3.530   4.136   0.947                        
 3311W        W10527   3.863  11.498   9.480                        
 3312W        W10528   0.964   7.039   3.623                        
 3313W        W10529   9.970   3.244  11.123                        
 3314W        W10530   2.206   1.238   7.564                        
 3315W        W10531   0.927   0.909   3.028                        
 3316W        W10532  13.834   7.734   8.881                        
 3317W        W10533   9.390  10.669   2.501                        
 3318W        W10534   2.781   4.069   2.561                        
 3319W        W10535   5.680   0.639   3.610                        
 3320W        W10536   4.824   1.693   9.778                        
 3321W        W10537   7.532   2.744   0.981                        
 3322W        W10538  13.301  13.821   0.111                        
 3323W        W10539   3.069   4.424   9.177                        
 3324W        W10540   6.219   0.404  10.238                        
 3325W        W10541   5.890   4.834   1.956                        
 3326W        W10542   2.195   9.365   0.685                        
 3327W        W10543   6.422   6.480  10.515                        
 3328W        W10544   0.108   0.341   0.098                        
 3329W        W10545  10.988   6.725   0.451                        
 3330W        W10546  10.643  13.591   2.808                        
 3331W        W10547   0.902  13.622   8.943                        
 3332W        W10548   0.986   5.998  10.010                        
 3333W        W10549   8.827   8.609   0.604                        
 3334W        W10550   0.723   3.315   0.194                        
 3335W        W10551   6.243  11.472  10.292                        
 3336W        W10552   3.310   1.952   0.080                        
 3337W        W10553   0.880   6.506   0.658                        
 3338W        W10554   6.257  13.318  11.311                        
 3339W        W10555  10.482   0.608   1.511                        
 3340W        W10556  13.021   1.488  10.802                        
 3341W        W10557   6.223  13.352   3.072                        
 3342W        W10558   7.994   4.928   1.706                        
 3343W        W10559   0.707   7.525  11.597                        
 3344W        W10560   5.643   8.625   8.991                        
 3345W        W10561   5.400   7.051   1.990                        
 3346W        W10562   6.182   3.058   9.781                        
 3347W        W10563  11.019   1.157  10.568                        
 3348W        W10564  12.857   8.282  11.288                        
 3349W        W10565   6.687   0.167   9.683                        
 3350W        W10566   2.288   9.618   4.335                        
 3351W        W10567   6.730   3.338   1.441                        
 3352W        W10568  11.795   5.199  10.320                        
 3353W        W10569   3.252  10.992   8.908                        
 3354W        W10570   9.583   3.285   1.744                        
 3355W        W10571   0.987   7.741   2.327                        
 3356W        W10572  13.892   4.051   9.412                        
 3357W        W10573   7.835  13.044   7.885                        
 3358W        W10574   0.121  13.838  11.850                        
 3359W        W10575  12.276   3.597   1.420                        
 3360W        W10576   0.086   2.307   0.364                        
 3361W        W10577  11.249   5.101   1.763                        
 3362W        W10578   6.783   3.094   8.710                        
 3363W        W10579  11.791   2.233   2.519                        
 3364W        W10580  11.504   5.161   9.153                        
 3365W        W10581  12.855   7.231   3.079                        
 3366W        W10582   0.963  13.127  11.880                        
 3367W        W10583   1.768  11.202  10.770                        
 3368W        W10584  10.943  10.183   9.987                        
 3369W        W10585  13.036   9.382   0.465                        
 3370W        W10586  11.779   1.505   0.668                        
 3371W        W10587   6.511   7.764   3.624                        
 3372W        W10588  12.513  12.323  10.254                        
 3373W        W10589   7.760  11.232   1.209                        
 3374W        W10590   4.653  11.718   1.950                        
 3375W        W10591   9.345   2.451   2.318                        
 3376W        W10592  10.444   9.136  11.894                        
 3377W        W10593  13.852  12.327   9.998                        
 3378W        W10594   9.612  13.660   4.187                        
 3379W        W10595   3.018  13.908  10.061                        
 3380W        W10596   5.885  13.112   8.644                        
 3381W        W10597   1.489   4.588  11.350                        
 3382W        W10598   9.147   4.907   9.776                        
 3383W        W10599   6.794   1.765   0.393                        
 3384W        W10600  10.930   0.599  10.024                        
 3385W        W10601  10.144   5.353  10.572                        
 3386W        W10602   6.231   8.001   9.485                        
 3387W        W10603   6.702   0.658   3.370                        
 3388W        W10604   8.293   3.064   9.947                        
 3389W        W10605   6.939   8.568  11.597                        
 3390W        W10606  10.938   8.353   2.793                        
 3391W        W10607   7.259   4.914   4.105                        
 3392W        W10608   2.036   9.613   1.502                        
 3393W        W10609   7.744   4.077   9.187                        
 3394W        W10610   4.059   1.736  10.330                        
 3395W        W10611   0.143  13.331   0.615                        
 3396W        W10612  10.420   0.636  10.220                        
 3397W        W10613  13.371   6.515  11.658                        
 3398W        W10614   4.156   0.462   0.153                        
 3399W        W10615   1.209   8.614   1.744                        
 3400W        W10616  12.577   7.315  10.750                        
 3401W        W10617   5.187   7.757   1.466                        
 3402W        W10618   1.140   3.625   1.971                        
 3403W        W10619   9.407   2.814  10.491                        
 3404W        W10620  13.825   2.256   8.679                        
 3405W        W10621   2.271   5.739  10.321                        
 3406W        W10622   5.420  13.394   7.900                        
 3407W        W10623   0.341  10.917   0.616                        
 3408W        W10624   9.966   7.560   9.252                        
 3409W        W10625  10.115   8.535   0.882                        
 3410W        W10626   6.509  12.524  10.214                        
 3411W        W10627  10.207  12.860  11.862                        
 3412W        W10628   0.678   0.103   9.403                        
 3413W        W10629   7.243  13.065   2.594                        
 3414W        W10630   2.192   9.654   9.732                        
 3415W        W10631  10.975   9.089   9.669                        
 3416W        W10632   7.204  12.786  10.856                        
 3417W        W10633   3.852  12.872   3.065                        
 3418W        W10634  13.021   1.733  11.340                        
 3419W        W10635   1.661   9.408  11.051                        
 3420W        W10636   5.119  11.524  10.210                        
 3421W        W10637   5.466   9.957  11.069                        
 3422W        W10638  11.816   5.123   9.973                        
 3423W        W10639   3.272   1.409   1.776                        
 3424W        W10640   9.334   8.019   0.197                        
 3425W        W10641   8.097   1.176   0.108                        
 3426W        W10642   4.315  10.728   1.227                        
 3427W        W10643   5.140  11.450  11.883                        
 3428W        W10644  13.806   8.367   2.035                        
 3429W        W10645   9.906   1.473   0.979                        
 3430W        W10646   9.659   8.908  11.372                        
 3431W        W10647  13.600   5.168   9.435                        
 3432W        W10648   4.909   7.041   0.925                        
 3433W        W10649  10.936  10.683  10.839                        
 3434W        W10650   4.638  12.068   3.011                        
 3435W        W10651  12.576   7.205   8.914                        
 3436W        W10652  11.276  11.164   1.159                        
 3437W        W10653   7.727  11.710   3.111                        
 3438W        W10654   9.579   8.580   9.486                        
 3439W        W10655   6.740   1.238  11.352                        
 3440W        W10656   8.082  12.228   8.139                        
 3441W        W10657   6.165   9.062  11.339                        
 3442W        W10658  13.090  13.834   1.983                        
 3443W        W10659   7.496  12.343  10.232                        
 3444W        W10660   1.500   8.576   8.430                        
 3445W        W10661   6.267  10.928   0.652                        
 3446W        W10662   8.857   0.653  10.010                        
 3447W        W10663   1.666   8.884   9.764                        
 3448W        W10664   2.818   0.174   9.731                        
 3449W        W10665  12.550   3.603  10.264                        
 3450W        W10666  13.274   8.033   9.973                        
 3451W        W10667  11.206   0.667   1.507                        
 3452W        W10668  13.862   3.831   0.916                        
 3453W        W10669  10.956   3.857  11.659                        
 3454W        W10670   7.849  13.393  10.004                        
 3455W        W10671  13.376   0.091   2.806                        
 3456W        W10672   2.022   4.830   8.357                        
 3457W        W10673   1.152   7.319  11.022                        
 3458W        W10674   0.086   7.750   1.723                        
 3459W        W10675   0.602   8.574   1.243                        
 3460W        W10676   6.475   2.271  10.267                        
 3461W        W10677  11.247   5.949   3.580                        
 3462W        W10678  13.056  10.430   1.233                        
 3463W        W10679   8.343   4.822   8.974                        
 3464W        W10680  11.284  12.800   2.810                        
 3465W        W10681  11.769   8.841  10.827                        
 3466W        W10682   6.407  11.505   3.369                        
 3467W        W10683   9.604   2.191   9.203                        
 3468W        W10684   5.199   3.055   0.640                        
 3469W        W10685  13.302  10.417   0.927                        
 3470W        W10686   0.433   2.566   0.366                        
 3471W        W10687  12.530   5.716  10.490                        
 3472W        W10688   2.254  11.965  11.394                        
 3473W        W10689  13.030   1.235   9.750                        
 3474W        W10690  13.088   4.313   3.384                        
 3475W        W10691  10.915   0.437   2.805                        
 3476W        W10692   8.360   4.825  10.314                        
 3477W        W10693   3.319   4.905   1.468                        
 3478W        W10694  10.737   6.798   3.655                        
 3479W        W10695  13.838  10.139   9.789                        
 3480W        W10696   0.956   6.428  11.274                        
 3481W        W10697   1.441   2.219  10.548                        
 3482W        W10698  12.778   7.522  11.606                        
 3483W        W10699   6.781   3.318   1.773                        
 3484W        W10700   8.276   6.001   1.233                        
 3485W        W10701   9.582   7.554  10.511                        
 3486W        W10702   5.431   4.057   1.461                        
 3487W        W10703   9.705   3.777   8.625                        
 3488W        W10704   8.291   0.345   8.639                        
 3489W        W10705   3.556   3.575   2.282                        
 3490W        W10706   8.286   5.617   2.279                        
 3491W        W10707   5.464  12.027   8.349                        
 3492W        W10708   8.353  10.111  10.002                        
 3493W        W10709   3.884   5.207  10.821                        
 3494W        W10710   6.518  10.124   1.259                        
 3495W        W10711   9.633   5.624  11.120                        
 3496W        W10712   4.901   5.197   8.871                        
 3497W        W10713   0.129   9.062   3.089                        
 3498W        W10714  10.668   6.227   3.096                        
 3499W        W10715   2.233  13.577   1.939                        
 3500W        W10716   7.329  12.006  10.752                        
 3501W        W10717   7.293   3.605  10.795                        
 3502W        W10718   2.566   5.455   3.072                        
 3503W        W10719   0.878   5.407   9.161                        
 3504W        W10720   7.211   6.501   2.841                        
 3505W        W10721   3.286   1.210   8.162                        
 3506W        W10722   9.650   9.946   9.145                        
 3507W        W10723   2.978   1.488   8.351                        
 3508W        W10724  13.636   7.743   8.912                        
 3509W        W10725   4.415  11.198   3.877                        
 3510W        W10726   3.036   4.150   9.769                        
 3511W        W10727   0.901  13.897   9.446                        
 3512W        W10728   4.108   2.523  11.568                        
 3513W        W10729   5.121   6.148  11.601                        
 3514W        W10730   6.783   4.365  10.858                        
 3515W        W10731   8.894   8.807   1.502                        
 3516W        W10732   0.956   9.395  10.483                        
 3517W        W10733   3.292   4.648   2.268                        
 3518W        W10734  11.800   8.085   3.590                        
 3519W        W10735   0.179   5.185   9.401                        
 3520W        W10736   5.377   1.701   0.887                        
 3521W        W10737  12.236   2.181   7.820                        
 3522W        W10738   5.889   1.653   9.474                        
 3523W        W10739  10.667   7.038   0.100                        
 3524W        W10740  11.008  12.331   0.875                        
 3525W        W10741   5.997   1.664   3.918                        
 3526W        W10742   6.223  12.835   8.920                        
 3527W        W10743   8.007   2.730  10.780                        
 3528W        W10744   2.014   1.971   9.777                        
 3529W        W10745   4.419   4.601   1.177                        
 3530W        W10746   5.955   6.727  10.518                        
 3531W        W10747   8.060   1.921   9.993                        
 3532W        W10748   5.130   0.135   0.647                        
 3533W        W10749  11.186   2.990   9.415                        
 3534W        W10750   6.466   5.929   8.980                        
 3535W        W10751   1.441   3.028  11.872                        
 3536W        W10752   9.055  12.070   9.793                        
 3537W        W10753  13.025   5.689  11.072                        
 3538W        W10754   2.256   0.877   0.649                        
 3539W        W10755   3.506   3.095   1.786                        
 3540W        W10756  10.176   4.048  10.000                        
 3541W        W10757   4.653   4.133   8.964                        
 3542W        W10758  13.014   6.705   3.349                        
 3543W        W10759  12.799   5.720   1.746                        
 3544W        W10760  13.307   7.241   1.197                        
 3545W        W10761   9.946   8.269  10.508                        
 3546W        W10762   5.731   4.585   1.499                        
 3547W        W10763   2.278   4.662   7.922                        
 3548W        W10764  10.904   1.979   9.961                        
 3549W        W10765   6.965   7.254  10.258                        
 3550W        W10766   7.026  10.195  11.068                        
 3551W        W10767   6.209   0.982  11.352                        
 3552W        W10768  12.594   8.865  11.817                        
 3553W        W10769   0.389  11.971   8.390                        
 3554W        W10770   9.907   9.863  11.581                        
 3555W        W10771  13.128   3.797  11.930                        
 3556W        W10772   5.108   8.001   3.869                        
 3557W        W10773   7.488   1.175   3.822                        
 3558W        W10774  13.286  10.965   0.675                        
 3559W        W10775   6.420  12.807   9.259                        
 3560W        W10776   9.346   0.073   8.368                        
 3561W        W10777  12.308   8.311   2.287                        
 3562W        W10778   5.478  10.941   1.253                        
 3563W        W10779   2.776   0.613   3.021                        
 3564W        W10780   3.781   9.329   1.982                        
 3565W        W10781   2.042   3.319   2.280                        
 3566W        W10782   5.676   8.522   2.328                        
 3567W        W10783   8.310  10.182   0.959                        
 3568W        W10784   8.275  13.086   7.884                        
 3569W        W10785  13.131   2.757  11.045                        
 3570W        W10786   0.614   4.830   8.382                        
 3571W        W10787   8.332   7.747   8.141                        
 3572W        W10788   6.958  12.850  11.032                        
 3573W        W10789   5.675   1.158   9.409                        
 3574W        W10790   7.297  13.055   0.991                        
 3575W        W10791   9.841   6.143  11.617                        
 3576W        W10792   7.207   4.134   2.862                        
 3577W        W10793  11.474   1.672   1.525                        
 3578W        W10794   2.035   8.906   2.033                        
 3579W        W10795  13.646   6.236   8.419                        
 3580W        W10796   0.370   3.366   3.609                        
 3581W        W10797   4.649   1.473   1.675                        
 3582W        W10798   2.562   1.722   1.425                        
 3583W        W10799   4.662   7.256  11.810                        
 3584W        W10800  12.834   4.852   9.418                        
 3585W        W10801   6.992  11.272   0.889                        
 3586W        W10802   8.893   6.497  11.115                        
 3587W        W10803   0.161   3.087   1.240                        
 3588W        W10804   0.118   1.211   1.236                        
 3589W        W10805   7.492   7.536   2.756                        
 3590W        W10806  10.472  11.435   8.423                        
 3591W        W10807   9.079  12.825   0.630                        
 3592W        W10808   4.878  12.852  10.786                        
 3593W        W10809   0.714  11.536   9.477                        
 3594W        W10810   0.190  13.399  10.469                        
 3595W        W10811   1.720   0.961   3.313                        
 3596W        W10812   4.354   8.299  11.623                        
 3597W        W10813  13.282   5.646   1.496                        
 3598W        W10814   2.275   6.937  11.317                        
 3599W        W10815   5.085  10.473   1.685                        
 3600W        W10816   8.022   8.881   9.709                        
 3601W        W10817  11.992   7.576   9.681                        
 3602W        W10818  11.544   4.141   0.993                        
 3603W        W10819   7.487   7.771  11.011                        
 3604W        W10820  10.415   4.424   9.147                        
 3605W        W10821   5.436   9.066   2.246                        
 3606W        W10822   8.374   0.175   3.086                        
 3607W        W10823   1.962   6.191  10.556                        
 3608W        W10824   0.456   2.568   2.588                        
 3609W        W10825   8.532   0.698  10.598                        
 3610W        W10826   4.368   9.607   8.691                        
 3611W        W10827  10.128   3.848   8.603                        
 3612W        W10828  12.547   5.954   3.280                        
 3613W        W10829   8.595   5.425  10.483                        
 3614W        W10830   5.927   1.214   3.037                        
 3615W        W10831  13.390  10.676   8.980                        
 3616W        W10832   9.113  10.188   9.442                        
 3617W        W10833  13.368   3.325   1.793                        
 3618W        W10834   1.761   2.818   9.997                        
 3619W        W10835  13.558   3.343   9.463                        
 3620W        W10836   5.955   4.366   1.165                        
 3621W        W10837   0.701   8.796   1.976                        
 3622W        W10838  13.588   2.498   0.366                        
 3623W        W10839  12.051   4.569   0.664                        
 3624W        W10840   8.374   0.347   1.975                        
 3625W        W10841   2.996   0.164   2.797                        
 3626W        W10842  11.227   0.619  11.821                        
 3627W        W10843   1.783   1.187  11.559                        
 3628W        W10844   5.618   0.070   0.388                        
 3629W        W10845  13.812  11.755   8.429                        
 3630W        W10846   2.283   4.863   4.124                        
 3631W        W10847   7.839   7.568   0.180                        
 3632W        W10848   6.755   3.626   1.968                        
 3633W        W10849  10.710   3.785   8.898                        
 3634W        W10850  10.437   7.037  11.310                        
 3635W        W10851   4.398   7.579   9.158                        
 3636W        W10852   4.680   0.158   9.464                        
 3637W        W10853  10.939   7.026  10.308                        
 3638W        W10854   9.135   1.203   2.302                        
 3639W        W10855  12.224  12.521   3.601                        
 3640W        W10856   7.061   6.227   8.661                        
 3641W        W10857  13.095  12.348   7.825                        
 3642W        W10858  13.652   6.757  11.869                        
 3643W        W10859  10.207  13.595   1.767                        
 3644W        W10860   8.281   0.645   0.452                        
 3645W        W10861  13.294  12.329   8.893                        
 3646W        W10862   1.216   8.355  10.307                        
 3647W        W10863  13.612  10.924   0.666                        
 3648W        W10864  12.054   6.238   1.228                        
 3649W        W10865   3.298   4.047   0.457                        
 3650W        W10866  13.287  11.184   3.126                        
 3651W        W10867   9.631   2.501  10.840                        
 3652W        W10868   2.183   9.351  11.882                        
 3653W        W10869   6.708  12.749  11.565                        
 3654W        W10870   8.844   1.498  10.479                        
 3655W        W10871  12.485  13.318  11.054                        
 3656W        W10872   6.234   6.786   9.258                        
 3657W        W10873   2.514   8.906  10.034                        
 3658W        W10874   0.627   4.916   3.027                        
 3659W        W10875  10.726   6.782   9.409                        
 3660W        W10876   2.244   1.239   0.190                        
 3661W        W10877   1.685   3.556   0.927                        
 3662W        W10878   9.657   6.948   1.211                        
 3663W        W10879  11.704   6.941  10.523                        
 3664W        W10880   7.206   2.478  10.862                        
 3665W        W10881   3.035   4.557   0.452                        
 3666W        W10882  13.310  13.292   1.481                        
 3667W        W10883   1.674  10.925   8.940                        
 3668W        W10884  10.693  12.795  11.828                        
 3669W        W10885   6.147  12.239  11.324                        
 3670W        W10886   2.002   9.907  11.809                        
 3671W        W10887  11.553   6.966   8.706                        
 3672W        W10888  11.740   8.056   9.402                        
 3673W        W10889   9.903   6.693   0.968                        
 3674W        W10890   4.893   1.742   8.614                        
 3675W        W10891  12.869   8.909   2.826                        
 3676W        W10892   4.644   3.030   2.753                        
 3677W        W10893  10.465   9.857   1.145                        
 3678W        W10894   8.016   9.888  10.476                        
 3679W        W10895   3.530   7.792  11.813                        
 3680W        W10896  13.079   5.945  11.091                        
 3681W        W10897   1.944   1.238   2.474                        
 3682W        W10898   3.614   4.300   9.421                        
 3683W        W10899   3.027   0.391  10.258                        
 3684W        W10900  11.812  12.494   3.131                        
 3685W        W10901  12.008  11.162   9.674                        
 3686W        W10902   7.285   4.557   9.995                        
 3687W        W10903   3.591   1.421   0.704                        
 3688W        W10904   4.876   3.555   7.541                        
 3689W        W10905   4.154   1.249   8.981                        
 3690W        W10906   3.515   8.078   1.532                        
 3691W        W10907   6.191  13.076   8.732                        
 3692W        W10908   2.290  10.436  11.057                        
 3693W        W10909   2.737   2.477   3.279                        
 3694W        W10910   1.461   0.135   1.780                        
 3695W        W10911   1.931   7.733   9.494                        
 3696W        W10912  11.533   9.078   2.239                        
 3697W        W10913   7.266  13.925   3.380                        
 3698W        W10914   7.289   5.355   9.686                        
 3699W        W10915   4.851  13.601  10.538                        
 3700W        W10916   0.196  12.766   2.490                        
 3701W        W10917   1.655   8.088   1.689                        
 3702W        W10918  12.344   9.385   0.958                        
 3703W        W10919   0.918   2.811   9.950                        
 3704W        W10920   5.111   5.682   7.645                        
 3705W        W10921   4.142   3.808   0.410                        
 3706W        W10922   5.421   4.890  11.126                        
 3707W        W10923  10.154   4.576   3.105                        
 3708W        W10924   0.715   9.949   0.929                        
 3709W        W10925   3.058   0.459   2.781                        
 3710W        W10926   9.590  10.641   9.992                        
 3711W        W10927   8.355   6.981   9.146                        
 3712W        W10928   1.755  11.756   2.549                        
 3713W        W10929   6.149  11.181   2.546                        
 3714W        W10930   5.105   1.492   4.142                        
 3715W        W10931  12.831  12.038   8.953                        
 3716W        W10932   0.368   0.671   2.533                        
 3717W        W10933   4.580   7.522   1.694                        
 3718W        W10934   6.446  10.402   2.826                        
 3719W        W10935   4.618  10.208   8.368                        
 3720W        W10936   5.214   9.683  10.480                        
 3721W        W10937  10.496   1.986   9.187                        
 3722W        W10938   8.910   3.537   0.980                        
 3723W        W10939   1.509   0.159   0.164                        
 3724W        W10940   7.323   3.283   0.464                        
 3725W        W10941   8.850  11.732   0.685                        
 3726W        W10942  13.395   2.465  11.641                        
 3727W        W10943  10.635   5.687  11.298                        
 3728W        W10944  10.449  12.851  10.770                        
 3729W        W10945   7.857   9.658   2.494                        
 3730W        W10946  10.385  11.240  10.496                        
 3731W        W10947   3.824   9.897   2.268                        
 3732W        W10948   9.682  12.846   4.462                        
 3733W        W10949  13.284   1.673   3.396                        
 3734W        W10950  13.344   7.528   1.754                        
 3735W        W10951  12.819   9.118   1.491                        
 3736W        W10952   1.494   9.156  11.280                        
 3737W        W10953  12.027   3.803  11.027                        
 3738W        W10954   9.063  11.691   4.375                        
 3739W        W10955   8.619   8.859  10.770                        
 3740W        W10956   7.803   9.131   1.683                        
 3741W        W10957  10.499   9.381   1.704                        
 3742W        W10958   5.416   4.410   3.043                        
 3743W        W10959   4.951   4.824   0.190                        
 3744W        W10960   9.329   0.865   2.230                        
 3745W        W10961   3.793  12.550   8.628                        
 3746W        W10962   1.690  10.665   1.734                        
 3747W        W10963   1.469   0.864   8.887                        
 3748W        W10964  11.794   2.986   0.893                        
 3749W        W10965  10.399   3.047   0.084                        
 3750W        W10966  12.580  12.821   2.238                        
 3751W        W10967   8.055   1.157   7.617                        
 3752W        W10968  13.101  13.337   9.717                        
 3753W        W10969   7.323   4.396   2.840                        
 3754W        W10970  10.652  12.262   0.081                        
 3755W        W10971  13.081   1.733   8.867                        
 3756W        W10972  12.535   0.942   3.622                        
 3757W        W10973  13.586  12.535   0.346                        
 3758W        W10974   4.621   1.463   8.958                        
 3759W        W10975  12.532   5.411   3.805                        
 3760W        W10976  11.999  13.595  11.376                        
 3761W        W10977  11.809   8.897   1.527                        
 3762W        W10978   7.291  11.443   3.564                        
 3763W        W10979   6.501  11.984   9.692                        
 3764W        W10980   7.750   5.671   9.970                        
 3765W        W10981   0.599  13.277   8.357                        
 3766W        W10982   0.343  11.543   8.873                        
 3767W        W10983   8.358   4.580   0.412                        
 3768W        W10984  10.369  12.249  11.279                        
 3769W        W10985   4.917   4.918   1.407                        
 3770W        W10986   7.026   8.284   0.710                        
 3771W        W10987   8.071   9.143   9.203                        
 3772W        W10988  12.074   2.767  10.578                        
 3773W        W10989   1.463  10.499   0.098                        
 3774W        W10990  12.606   6.435   0.611                        
 3775W        W10991   2.493  11.779   8.458                        
 3776W        W10992  11.028   3.551   2.737                        
 3777W        W10993   0.945   1.764   0.399                        
 3778W        W10994   7.512   2.773  11.048                        
 3779W        W10995   3.088  10.710  11.314                        
 3780W        W10996   2.237  10.764   1.731                        
 3781W        W10997   9.160   7.737   3.014                        
 3782W        W10998  12.229  11.703   1.517                        
 3783W        W10999   4.093  13.637   0.363                        
 3784W        W11000   2.279  13.398   0.994                        
 3785W        W11001   7.506   1.731  11.093                        
 3786W        W11002  12.333   3.543   3.619                        
 3787W        W11003   4.420   0.137   1.521                        
 3788W        W11004   3.044   1.496  11.841                        
 3789W        W11005   8.339   8.806   1.765                        
 3790W        W11006  13.012   1.200   8.680                        
 3791W        W11007   0.164   0.086   3.918                        
 3792W        W11008   0.437  10.971  10.247                        
 3793W        W11009  11.716   1.249  10.852                        
 3794W        W11010   8.275   0.633   9.731                        
 3795W        W11011   0.665   4.678   8.991                        
 3796W        W11012   6.440  10.105  11.612                        
 3797W        W11013   5.667  12.579   8.878                        
 3798W        W11014   0.144   7.218  11.893                        
 3799W        W11015   0.429   1.967  11.849                        
 3800W        W11016   8.885   4.918   2.830                        
 3801W        W11017   3.520   3.621   3.586                        
 3802W        W11018   4.043   2.758   9.202                        
 3803W        W11019   4.351   4.139   7.811                        
 3804W        W11020   5.728  13.632   1.213                        
 3805W        W11021   6.770   5.438   2.507                        
 3806W        W11022   3.341   0.164  11.834                        
 3807W        W11023   0.974   8.647  10.506                        
 3808W        W11024  10.740   9.597   2.313                        
 3809W        W11025  12.507  12.818   1.260                        
 3810W        W11026   3.511   9.112   9.981                        
 3811W        W11027   9.114   7.055  11.803                        
 3812W        W11028   2.193  13.064   3.044                        
 3813W        W11029   1.234   1.751   2.208                        
 3814W        W11030  10.380   8.322   2.833                        
 3815W        W11031  12.840   9.351   3.387                        
 3816W        W11032  10.733   3.010   2.017                        
 3817W        W11033   8.120  11.754  11.021                        
 3818W        W11034   8.588  11.260  10.051                        
 3819W        W11035  12.011   8.615   9.201                        
 3820W        W11036   2.734   2.036   9.430                        
 3821W        W11037   8.364   3.293   0.675                        
 3822W        W11038  11.781  13.868   3.342                        
 3823W        W11039  10.639   3.285  11.805                        
 3824W        W11040  10.385   3.765   2.013                        
 3825W        W11041  10.944  10.431   4.100                        
 3826W        W11042   4.623   5.208   8.126                        
 3827W        W11043   0.941  10.166  11.312                        
 3828W        W11044   8.824   3.084   3.363                        
 3829W        W11045   8.325   5.164  10.204                        
 3830W        W11046   8.009  12.067  11.877                        
 3831W        W11047   4.617   6.759   9.682                        
 3832W        W11048   8.583   9.056   7.829                        
 3833W        W11049   4.830   6.439   3.317                        
 3834W        W11050   6.935  13.541   8.646                        
 3835W        W11051  10.476   5.142  10.565                        
 3836W        W11052  11.025  11.539   3.542                        
 3837W        W11053   1.171  10.984  10.735                        
 3838W        W11054   3.005  10.155   2.804                        
 3839W        W11055   5.411   8.277   3.126                        
 3840W        W11056   1.403   5.904   2.486                        
 3841W        W11057   3.571  10.182   9.937                        
 3842W        W11058  13.604   3.586  10.588                        
 3843W        W11059  12.854   8.552   2.506                        
 3844W        W11060   9.872   3.350   9.170                        
 3845W        W11061   9.103   2.002   1.440                        
 3846W        W11062   0.080   4.144   9.943                        
 3847W        W11063   8.526   9.870   3.298                        
 3848W        W11064   3.625   3.345   8.349                        
 3849W        W11065  13.321   2.243   8.872                        
 3850W        W11066   9.901  11.807   8.603                        
 3851W        W11067   6.776   1.464   4.455                        
 3852W        W11068  13.614   9.431   0.380                        
 3853W        W11069   2.300  12.867   1.224                        
 3854W        W11070   3.836   4.924   0.383                        
 3855W        W11071   5.683   9.339   1.769                        
 3856W        W11072   5.163   6.940  10.863                        
 3857W        W11073   7.262  12.521  10.247                        
 3858W        W11074   8.864   1.968   8.624                        
 3859W        W11075   9.673   7.236   2.771                        
 3860W        W11076  10.673   6.513  10.288                        
 3861W        W11077  11.963   7.779   9.147                        
 3862W        W11078   0.596   9.404  11.873                        
 3863W        W11079  12.540   5.891  11.342                        
 3864W        W11080   4.884   1.753   8.369                        
 3865W        W11081  12.290  13.629  10.244                        
 3866W        W11082   8.639   0.197  11.593                        
 3867W        W11083  11.820  11.505  11.020                        
 3868W        W11084  13.301   9.405  11.908                        
 3869W        W11085   6.185   0.719   1.166                        
 3870W        W11086   4.930  12.497   2.786                        
 3871W        W11087   9.635   9.674  11.131                        
 3872W        W11088   1.229   1.240  11.878                        
 3873W        W11089  13.664   2.030   2.210                        
 3874W        W11090   0.962   3.354   3.383                        
 3875W        W11091   7.548   4.147   8.876                        
 3876W        W11092   0.071  11.288   3.095                        
 3877W        W11093  12.748  11.505   8.099                        
 3878W        W11094  13.287   3.880   8.956                        
 3879W        W11095   8.552  13.654   8.180                        
 3880W        W11096   5.902   8.381   3.103                        
 3881W        W11097   4.826   2.738   3.052                        
 3882W        W11098   0.434  12.600  11.270                        
 3883W        W11099   3.833   1.707   9.518                        
 3884W        W11100   4.103   2.183   1.777                        
 3885W        W11101   1.992  11.232   1.935                        
 3886W        W11102  13.551   3.802   0.918                        
 3887W        W11103   1.394  10.997  11.350                        
 3888W        W11104  11.769   5.202   0.890                        
 3889W        W11105  11.809   4.050   1.213                        
 3890W        W11106  10.644  13.070   8.437                        
 3891W        W11107  13.284   9.688   7.662                        
 3892W        W11108  11.556   6.773   3.644                        
 3893W        W11109   0.611  13.308   1.783                        
 3894W        W11110   0.198   1.423   8.998                        
 3895W        W11111   7.065   0.921  10.535                        
 3896W        W11112   0.958   0.445   9.768                        
 3897W        W11113  10.995   1.700   3.072                        
 3898W        W11114   0.896   2.296   0.404                        
 3899W        W11115   4.049   8.260   1.736                        
 3900W        W11116   0.439   0.947   9.736                        
 3901W        W11117  13.376   3.824   0.072                        
 3902W        W11118   7.000   7.779   9.729                        
 3903W        W11119   3.794   7.739   3.890                        
 3904W        W11120   7.816  11.554  11.308                        
 3905W        W11121  12.485  12.286   3.617                        
 3906W        W11122   3.329  11.975   8.710                        
 3907W        W11123  12.864   3.306   2.786                        
 3908W        W11124  12.268   0.721   0.998                        
 3909W        W11125   6.264   8.814   9.682                        
 3910W        W11126   4.155  12.531  10.234                        
 3911W        W11127   0.126   8.902   2.010                        
 3912W        W11128   1.161   7.463   3.352                        
 3913W        W11129   4.070  11.692   0.618                        
 3914W        W11130   9.637   9.950  11.020                        
 3915W        W11131   3.291   2.203   1.722                        
 3916W        W11132   0.424  10.182   1.444                        
 3917W        W11133   9.366   3.846   8.931                        
 3918W        W11134   7.215  10.752  11.070                        
 3919W        W11135   8.273   8.881   9.936                        
 3920W        W11136  10.665   3.063   1.704                        
 3921W        W11137  11.228  13.362   8.377                        
 3922W        W11138   1.229   1.230  11.552                        
 3923W        W11139  12.753   4.598   9.740                        
 3924W        W11140   9.114   2.762   1.722                        
 3925W        W11141   9.931  13.558  10.322                        
 3926W        W11142  12.249   8.020   2.057                        
 3927W        W11143  11.008   6.197   1.465                        
 3928W        W11144   0.130  11.505  11.597                        
 3929W        W11145   5.678   5.173   9.158                        
 3930W        W11146   6.264  13.022   3.357                        
 3931W        W11147   3.350   7.006   1.457                        
 3932W        W11148   0.627   0.427   3.015                        
 3933W        W11149  10.200   1.425   1.447                        
 3934W        W11150   7.810   9.844   8.367                        
 3935W        W11151   9.159   5.954  10.536                        
 3936W        W11152  10.902   1.695  11.838                        
 3937W        W11153   7.845  12.782  11.855                        
 3938W        W11154   8.650  11.762   2.772                        
 3939W        W11155   5.672   6.173   1.511                        
 3940W        W11156  11.465   4.894   1.461                        
 3941W        W11157   5.993   4.142   1.722                        
 3942W        W11158   9.664   3.591  11.357                        
 3943W        W11159   7.831  10.417   2.295                        
 3944W        W11160   5.146   1.927  10.500                        
 3945W        W11161   1.438   8.600  10.287                        
 3946W        W11162   3.839   2.991  11.355                        
 3947W        W11163   6.987   0.359  10.855                        
 3948W        W11164   9.866  10.742   2.043                        
 3949W        W11165   8.847   1.415  10.753                        
 3950W        W11166  10.926  13.064   3.666                        
 3951W        W11167  10.436   4.382   2.048                        
 3952W        W11168  12.060   0.098  10.761                        
 3953W        W11169   7.559   2.973  11.593                        
 3954W        W11170  13.597  12.548   8.921                        
 3955W        W11171   7.572   5.135   0.965                        
 3956W        W11172  12.485   7.747   9.968                        
 3957W        W11173   3.063  10.688   9.238                        
 3958W        W11174   7.483   1.666   3.660                        
 3959W        W11175  13.876   3.589   3.318                        
 3960W        W11176   1.661  13.046  11.654                        
 3961W        W11177   1.181   4.324   0.457                        
 3962W        W11178   9.874   4.416   1.141                        
 3963W        W11179   6.240  10.145   2.496                        
 3964W        W11180   8.011   5.187   9.753                        
 3965W        W11181   2.187   7.062  11.026                        
 3966W        W11182   0.613   7.520  10.270                        
 3967W        W11183  12.759  13.017   2.059                        
 3968W        W11184   8.881   3.344   9.207                        
 3969W        W11185   7.833   6.720   3.391                        
 3970W        W11186   0.388  10.442   9.725                        
 3971W        W11187   7.854   1.718  11.643                        
 3972W        W11188  13.092  10.159  10.033                        
 3973W        W11189   1.987   1.513   4.107                        
 3974W        W11190   4.077   3.802   9.406                        
 3975W        W11191  13.601   1.172  11.394                        
 3976W        W11192   9.342   3.046   2.230                        
 3977W        W11193  12.296   9.624   3.347                        
 3978W        W11194   1.750  13.540   2.842                        
 3979W        W11195  13.631   4.633   1.437                        
 3980W        W11196  10.127  13.016   4.371                        
 3981W        W11197   4.086  11.265   2.490                        
 3982W        W11198  11.993   3.866  10.517                        
 3983W        W11199   6.760   1.680  11.801                        
 3984W        W11200  12.816   0.885   9.246                        
 3985W        W11201  12.046   0.397   3.615                        
 3986W        W11202   1.132   8.120  11.354                        
 3987W        W11203  12.483  11.187  10.059                        
 3988W        W11204   9.440   3.020   4.180                        
 3989W        W11205  10.146   3.266   0.876                        
 3990W        W11206  13.301   7.554   3.337                        
 3991W        W11207   3.552   5.664  11.389                        
 3992W        W11208   5.413   7.533   0.415                        
 3993W        W11209  10.708   4.050   0.139                        
 3994W        W11210   8.009   0.365   7.923                        
 3995W        W11211   6.181   8.635   7.837                        
 3996W        W11212   8.053   1.733   0.944                        
 3997W        W11213  13.339   2.208   3.067                        
 3998W        W11214   6.423  11.814   2.808                        
 3999W        W11215   3.333   8.056   1.500                        
 4000W        W11216  12.296   9.873  10.738                        
 4001W        W11217  13.605  13.883   3.845                        
 4002W        W11218  11.805   4.034   3.922                        
 4003W        W11219  11.749   0.599  10.531                        
 4004W        W11220   1.147  12.787  11.309                        
 4005W        W11221   3.811  11.465   1.219                        
 4006W        W11222   4.066  11.518   8.460                        
 4007W        W11223  10.154   9.611   8.649                        
 4008W        W11224   5.892   9.410   9.678                        
 4009W        W11225   5.455  13.543   3.121                        
 4010W        W11226  13.869   3.365   8.964                        
 4011W        W11227   5.209   9.093   1.418                        
 4012W        W11228   0.970  12.020   8.617                        
 4013W        W11229   6.783   3.605   9.450                        
 4014W        W11230   9.348   5.150   0.120                        
 4015W        W11231   4.130   2.490   1.794                        
 4016W        W11232   9.322   8.634   9.948                        
 4017W        W11233  12.550   0.083   1.961                        
 4018W        W11234   8.784  11.430   0.612                        
 4019W        W11235   9.703   3.821  11.033                        
 4020W        W11236   6.484   1.157  10.772                        
 4021W        W11237   5.193   0.140  10.051                        
 4022W        W11238   0.614   1.420   0.671                        
 4023W        W11239   5.095   5.383  10.236                        
 4024W        W11240  10.713   3.862  11.359                        
 4025W        W11241  13.866   2.047  10.304                        
 4026W        W11242   2.741   8.907  11.910                        
 4027W        W11243  12.281  13.656   1.731                        
 4028W        W11244   9.694   1.423   0.664                        
 4029W        W11245   3.570   8.353   3.609                        
 4030W        W11246   9.917  10.173   3.065                        
 4031W        W11247   2.483   8.877  10.243                        
 4032W        W11248   6.778   0.091   9.407                        
 4033W        W11249   5.112  11.976   0.190                        
 4034W        W11250   5.355  13.037   3.357                        
 4035W        W11251   5.959   9.902   2.297                        
 4036W        W11252  11.718   5.123   8.704                        
 4037W        W11253   4.653   9.050   2.298                        
 4038W        W11254  13.074   2.723  11.581                        
 4039W        W11255   6.435   4.383  10.009                        
 4040W        W11256   6.996   2.561   3.114                        
 4041W        W11257   7.207   8.886   0.161                        
 4042W        W11258   8.352   3.580  11.314                        
 4043W        W11259   4.392  12.809  11.580                        
 4044W        W11260  11.739  10.459   8.416                        
 4045W        W11261  10.696  12.750   9.707                        
 4046W        W11262  11.999  13.558  11.925                        
 4047W        W11263   7.212   2.766   9.456                        
 4048W        W11264   2.708   0.456   3.308                        
 4049W        W11265   8.023  12.813   3.858                        
 4050W        W11266   4.859  10.907  10.266                        
 4051W        W11267  12.563   4.684  10.271                        
 4052W        W11268   1.681   5.418   8.151                        
 4053W        W11269   2.560   4.609   9.260                        
 4054W        W11270   5.670   3.537  10.224                        
 4055W        W11271   5.883   9.644  11.296                        
 4056W        W11272  13.646   9.581   1.184                        
 4057W        W11273   5.879   5.934   3.314                        
 4058W        W11274   6.674   8.379   1.443                        
 4059W        W11275   5.115   5.169  10.313                        
 4060W        W11276   7.488   0.978   4.091                        
 4061W        W11277   7.239  12.264   2.752                        
 4062W        W11278  13.849  13.563   2.210                        
 4063W        W11279   1.766  12.591   0.440                        
 4064W        W11280   7.051   3.363   0.955                        
 4065W        W11281   8.293   3.071   8.952                        
 4066W        W11282   9.110   2.767  10.207                        
 4067W        W11283   9.073   8.625   1.757                        
 4068W        W11284   0.907   5.476   7.868                        
 4069W        W11285  11.776   9.670   8.672                        
 4070W        W11286   1.408   4.828   9.475                        
 4071W        W11287   8.094   6.776   4.113                        
 4072W        W11288   6.955   7.857  11.886                        
 4073W        W11289  10.459   9.688   1.950                        
 4074W        W11290   1.147  10.749   9.174                        
 4075W        W11291  10.759   3.830  10.520                        
 4076W        W11292   6.770  10.491  10.057                        
 4077W        W11293  12.567   7.504   3.043                        
 4078W        W11294   4.032   5.897  11.297                        
 4079W        W11295   8.630   4.928   2.576                        
 4080W        W11296   0.684   1.136   1.169                        
 4081W        W11297   5.976   1.704   2.027                        
 4082W        W11298   0.919   1.126   9.527                        
 4083W        W11299   4.637   5.453   0.901                        
 4084W        W11300   2.038  10.729   2.024                        
 4085W        W11301   6.416   4.128   1.697                        
 4086W        W11302  10.116   5.959   9.776                        
 4087W        W11303   4.940   6.214  11.813                        
 4088W        W11304   3.043   5.182  10.573                        
 4089W        W11305  13.669   5.190  10.746                        
 4090W        W11306   5.738  11.283   0.076                        
 4091W        W11307   1.769   9.890   0.604                        
 4092W        W11308   6.943   6.974   2.506                        
 4093W        W11309   3.562   5.384   7.921                        
 4094W        W11310   2.242   0.190   4.440                        
 4095W        W11311   2.823   6.786   0.386                        
 4096W        W11312   9.090   9.336   7.865                        
 4097W        W11313   3.602   9.592  11.042                        
 4098W        W11314   2.542   4.857   9.493                        
 4099W        W11315  10.425  11.431   8.884                        
 4100W        W11316   3.858   4.361   9.757                        
 4101W        W11317   6.709   2.485  11.331                        
 4102W        W11318   4.380   8.611   2.280                        
 4103W        W11319  13.331   7.225   7.592                        
 4104W        W11320   8.820  11.529   9.416                        
 4105W        W11321   8.561   9.332   9.415                        
 4106W        W11322  12.485   6.168  10.797                        
 4107W        W11323   2.445   4.077  11.392                        
 4108W        W11324   1.679   4.317  11.564                        
 4109W        W11325  12.289   7.778   8.344                        
 4110W        W11326   9.081   7.812   3.345                        
 4111W        W11327  13.643   8.614   8.365                        
 4112W        W11328   0.878   0.418   0.104                        
 4113W        W11329   5.163   4.858   0.387                        
 4114W        W11330   6.974   4.658   9.458                        
 4115W        W11331  12.522   3.547  11.031                        
 4116W        W11332  10.134   5.166  11.921                        
 4117W        W11333   4.565  13.277   7.838                        
 4118W        W11334  10.906   2.461   2.746                        
 4119W        W11335  10.389   1.935  10.526                        
 4120W        W11336   3.072   4.379   3.591                        
 4121W        W11337   2.188   5.457  11.068                        
 4122W        W11338  12.344   5.638  10.848                        
 4123W        W11339   1.137   5.928   0.733                        
 4124W        W11340   6.176  12.610   0.640                        
 4125W        W11341   5.126   0.607   9.181                        
 4126W        W11342   8.614  10.107   8.677                        
 4127W        W11343  13.548   9.426   1.169                        
 4128W        W11344  11.716   8.808   1.744                        
 4129W        W11345  12.270   1.925  11.631                        
 4130W        W11346   1.415   6.706   0.369                        
 4131W        W11347   0.689  10.992  11.847                        
 4132W        W11348   0.631  11.489   1.172                        
 4133W        W11349   6.755   0.336  10.263                        
 4134W        W11350   5.130   8.537   0.381                        
 4135W        W11351   5.087  10.762   8.071                        
 4136W        W11352   0.981  12.320   2.738                        
 4137W        W11353  10.948   7.028  11.639                        
 4138W        W11354   5.203  10.133   0.879                        
 4139W        W11355   9.682  11.491   2.593                        
 4140W        W11356  13.017   2.782   3.536                        
 4141W        W11357   4.379   3.885   1.188                        
 4142W        W11358  12.013   3.018   0.409                        
 4143W        W11359   0.878  12.019   1.528                        
 4144W        W11360  12.557   0.392  10.853                        
 4145W        W11361   3.079   1.967   2.761                        
 4146W        W11362   0.902   4.860   9.234                        
 4147W        W11363   1.184  11.986   0.947                        
 4148W        W11364   3.071   1.942   1.529                        
 4149W        W11365   6.444   5.436  11.886                        
 4150W        W11366   3.296  11.494  10.814                        
 4151W        W11367   0.415  11.788  11.653                        
 4152W        W11368  10.716   3.518   1.174                        
 4153W        W11369   3.050  13.374   0.730                        
 4154W        W11370   8.358   5.478   9.249                        
 4155W        W11371   1.710   6.477   9.146                        
 4156W        W11372   8.064   4.861  10.747                        
 4157W        W11373   0.135   2.995  11.855                        
 4158W        W11374  12.076   8.027   9.153                        
 4159W        W11375   8.107   5.423   2.597                        
 4160W        W11376   2.200   2.230  11.345                        
 4161W        W11377   6.416   0.652   3.666                        
 4162W        W11378   6.956   3.556   9.780                        
 4163W        W11379   3.768   7.992   4.190                        
 4164W        W11380   7.008  11.180  10.271                        
 4165W        W11381   0.625   7.794   9.142                        
 4166W        W11382   3.260   4.117   9.422                        
 4167W        W11383   6.748   3.768  11.556                        
 4168W        W11384   3.300  13.838  10.064                        
 4169W        W11385   8.370   3.301  10.792                        
 4170W        W11386   4.679  10.430   1.788                        
 4171W        W11387   7.481   0.689   0.724                        
 4172W        W11388   5.983   7.816   2.306                        
 4173W        W11389   3.621   4.867  10.488                        
 4174W        W11390  10.986  10.986   2.219                        
 4175W        W11391   9.346   3.011   0.349                        
 4176W        W11392   0.878  12.538   3.277                        
 4177W        W11393   4.622   0.605   1.770                        
 4178W        W11394   9.393  12.819   3.813                        
 4179W        W11395  11.259   2.504  11.360                        
 4180W        W11396   3.536   8.622  10.214                        
 4181W        W11397   8.018  12.876  11.557                        
 4182W        W11398  10.161   6.723   3.568                        
 4183W        W11399  12.599  11.701   1.488                        
 4184W        W11400  12.792   1.666  11.309                        
 4185W        W11401  10.741   1.755   0.177                        
 4186W        W11402   0.339   8.382   1.156                        
 4187W        W11403   6.432   1.206   2.261                        
 4188W        W11404   8.875  12.042  10.472                        
 4189W        W11405   0.989   2.015   3.380                        
 4190W        W11406   7.796   7.783   2.497                        
 4191W        W11407   5.981   7.324   2.754                        
 4192W        W11408   1.952  13.321   0.139                        
 4193W        W11409   0.717   4.063  10.795                        
 4194W        W11410   6.255  10.902   3.377                        
 4195W        W11411   3.630   8.645   1.243                        
 4196W        W11412   9.172  11.816   8.464                        
 4197W        W11413   1.957   8.557  11.844                        
 4198W        W11414   4.359  13.887  10.593                        
 4199W        W11415   4.584   7.561   8.665                        
 4200W        W11416   3.299  11.251   0.644                        
 4201W        W11417   8.605   5.450   0.447                        
 4202W        W11418  10.455   3.819  11.036                        
 4203W        W11419   5.172   0.669   2.030                        
 4204W        W11420   9.392   4.871   0.716                        
 4205W        W11421  10.921  12.340   9.527                        
 4206W        W11422   1.225   1.425   8.646                        
 4207W        W11423  13.541   8.539  10.035                        
 4208W        W11424   0.450   7.738   1.766                        
 4209W        W11425  13.075  13.842   0.951                        
 4210W        W11426   4.848  13.056   8.929                        
 4211W        W11427   6.451   7.312   2.212                        
 4212W        W11428   8.367   2.204   3.553                        
 4213W        W11429  11.970   5.178   0.983                        
 4214W        W11430   3.579   1.453   8.120                        
 4215W        W11431   7.823  13.072   2.736                        
 4216W        W11432  13.804   9.163   0.141                        
 4217W        W11433   2.267   4.666   7.615                        
 4218W        W11434   8.378   6.407   2.741                        
 4219W        W11435  10.709   8.627  10.493                        
 4220W        W11436  11.212   9.937  11.374                        
 4221W        W11437  10.980   2.538   9.451                        
 4222W        W11438   1.233  10.901   0.200                        
 4223W        W11439   3.282   6.523  10.793                        
 4224W        W11440   2.997   7.503  10.813                        
 4225W        W11441   9.602   7.047   1.493                        
 4226W        W11442  12.863   1.208   8.722                        
 4227W        W11443  13.633   5.634   0.189                        
 4228W        W11444  11.464   9.896   8.692                        
 4229W        W11445   9.964   7.037   3.621                        
 4230W        W11446   3.858   0.157   8.971                        
 4231W        W11447   8.583  10.125   2.312                        
 4232W        W11448   7.768  11.542   1.211                        
 4233W        W11449  12.280   4.135  10.004                        
 4234W        W11450   2.221  13.887   9.237                        
 4235W        W11451   5.939   9.692   8.653                        
 4236W        W11452   0.917   3.852   1.146                        
 4237W        W11453   1.123  12.218  10.019                        
 4238W        W11454   3.248   6.179   1.149                        
 4239W        W11455   0.411  10.401  10.544                        
 4240W        W11456   6.211   7.304  11.874                        
 4241W        W11457   7.234   9.146   1.993                        
 4242W        W11458  12.849   6.268   0.112                        
 4243W        W11459   2.182   1.423   1.529                        
 4244W        W11460   4.116  11.224   0.431                        
 4245W        W11461   6.446   6.228   3.339                        
 4246W        W11462   8.329  12.823  11.886                        
 4247W        W11463   9.155   1.413   7.813                        
 4248W        W11464  12.579  12.607  11.290                        
 4249W        W11465   4.669   1.989   0.404                        
 4250W        W11466   4.339   1.475   0.918                        
 4251W        W11467   4.568   9.358   2.578                        
 4252W        W11468   1.501   5.354   0.650                        
 4253W        W11469   4.310   3.566   2.311                        
 4254W        W11470   7.816   4.632   2.032                        
 4255W        W11471  10.649   1.476   8.351                        
 4256W        W11472  13.284   9.057   1.779                        
 4257W        W11473   3.535  13.836  11.930                        
 4258W        W11474   5.408   8.625   2.066                        
 4259W        W11475   6.990   8.601   3.621                        
 4260W        W11476  12.296   1.196   2.587                        
 4261W        W11477   0.126   7.257   0.381                        
 4262W        W11478   3.364   5.426   1.427                        
 4263W        W11479  13.901   8.119   9.770                        
 4264W        W11480   3.054   9.857   3.569                        
 4265W        W11481   0.624   2.267   9.719                        
 4266W        W11482   3.032   9.930  11.107                        
 4267W        W11483   2.514   4.589   9.777                        
 4268W        W11484   8.348   1.704   3.035                        
 4269W        W11485   9.647  12.753   9.415                        
 4270W        W11486  10.715  13.842   0.947                        
 4271W        W11487   3.853  10.189  11.891                        
 4272W        W11488   8.576   7.825   1.165                        
 4273W        W11489   8.571   5.211   3.571                        
 4274W        W11490   2.775  13.850   9.676                        
 4275W        W11491   2.190   5.986   9.136                        
 4276W        W11492   3.339   1.407   9.133                        
 4277W        W11493   4.325   0.394   8.413                        
 4278W        W11494   6.692   7.841  10.772                        
 4279W        W11495  11.766   3.034   8.194                        
 4280W        W11496   7.506   1.475   0.407                        
 4281W        W11497  11.742   4.336   0.636                        
 4282W        W11498   3.815   8.560   8.892                        
 4283W        W11499   7.292   4.375   0.355                        
 4284W        W11500  13.601   4.078   2.802                        
 4285W        W11501   8.364  13.284  11.371                        
 4286W        W11502   9.673  12.252  11.337                        
 4287W        W11503   2.826  12.334   9.209                        
 4288W        W11504   2.277  11.718  10.740                        
 4289W        W11505  12.066   5.165   0.369                        
 4290W        W11506   0.884  13.563   9.714                        
 4291W        W11507  13.610   1.445   8.608                        
 4292W        W11508   5.138   9.424   8.731                        
 4293W        W11509   4.611  13.298   2.509                        
 4294W        W11510   5.368   5.680   9.407                        
 4295W        W11511   4.308   0.118   9.458                        
 4296W        W11512  13.027   9.406   1.191                        
 4297W        W11513   4.947  13.320   8.192                        
 4298W        W11514   2.999   8.378   3.540                        
 4299W        W11515   3.017   4.100   3.821                        
 4300W        W11516   4.377   5.362   1.402                        
 4301W        W11517   8.100  12.583   8.349                        
 4302W        W11518   5.449   5.879   2.588                        
 4303W        W11519  13.618   8.262   0.172                        
 4304W        W11520   3.798   2.819  11.810                        
 4305W        W11521  10.761   0.139   3.399                        
 4306W        W11522   2.305  10.673  10.508                        
 4307W        W11523   5.174  11.956   8.709                        
 4308W        W11524   5.455   1.212   3.328                        
 4309W        W11525   6.774   2.305   9.769                        
 4310W        W11526   2.246   0.963  10.030                        
 4311W        W11527   1.190   6.771   8.700                        
 4312W        W11528   5.184   2.998   9.789                        
 4313W        W11529  10.913   5.946   9.417                        
 4314W        W11530   7.792   2.458   1.936                        
 4315W        W11531   0.988   1.500   9.235                        
 4316W        W11532   4.079  11.988  10.220                        
 4317W        W11533   4.315   8.054   0.984                        
 4318W        W11534   5.199   4.905   1.262                        
 4319W        W11535  13.351   2.545  10.215                        
 4320W        W11536  13.847  11.497   0.106                        
 4321W        W11537  13.295   8.814   0.996                        
 4322W        W11538  10.711  13.134   0.883                        
 4323W        W11539   9.676  11.979   1.674                        
 4324W        W11540   0.899   0.114   3.631                        
 4325W        W11541   3.239   0.643   3.593                        
 4326W        W11542   4.647  10.434   0.403                        
 4327W        W11543   1.754   9.132   8.647                        
 4328W        W11544  10.211   8.898  10.808                        
 4329W        W11545   4.408   1.970   0.382                        
 4330W        W11546   8.264   8.075   1.713                        
 4331W        W11547   5.132   4.321   2.061                        
 4332W        W11548   6.150   5.159  10.211                        
 4333W        W11549  12.505  10.722   2.779                        
 4334W        W11550  11.442   1.941   8.383                        
 4335W        W11551   1.459   1.404   2.483                        
 4336W        W11552  12.275   3.881   0.703                        
 4337W        W11553  11.511  10.374  10.049                        
 4338W        W11554   2.223  10.737   3.063                        
 4339W        W11555   2.271   2.993   1.209                        
 4340W        W11556  12.506   7.797   8.601                        
 4341W        W11557  12.504  11.221  10.211                        
 4342W        W11558   5.677  11.461   8.708                        
 4343W        W11559   9.583   1.738   9.478                        
 4344W        W11560   4.891  12.829   1.422                        
 4345W        W11561   2.485   4.847  11.074                        
 4346W        W11562   5.109   7.479  11.052                        
 4347W        W11563  11.287   5.890   0.938                        
 4348W        W11564   8.558   4.334  10.511                        
 4349W        W11565   1.664   2.727   9.451                        
 4350W        W11566   2.710   5.178  11.928                        
 4351W        W11567   4.650   2.046   3.271                        
 4352W        W11568   3.870  11.172  10.009                        
 4353W        W11569   1.986   6.760   9.249                        
 4354W        W11570   0.335  10.639   1.443                        
 4355W        W11571   7.811   9.150   8.615                        
 4356W        W11572  12.572   8.311   2.816                        
 4357W        W11573   2.798  11.720  11.875                        
 4358W        W11574   4.146   1.699   8.992                        
 4359W        W11575   9.895  13.885   7.919                        
 4360W        W11576  10.193   4.941   8.982                        
 4361W        W11577   1.695   3.264   3.588                        
 4362W        W11578   2.490  12.031  10.770                        
 4363W        W11579  10.905  10.632   3.368                        
 4364W        W11580   6.773  13.328  10.592                        
 4365W        W11581   6.693   0.613   9.763                        
 4366W        W11582  12.495  12.844  11.286                        
 4367W        W11583   8.590  12.839   2.766                        
 4368W        W11584   9.072   1.135   3.550                        
 4369W        W11585  10.975  10.166  10.569                        
 4370W        W11586   0.910   2.260  11.373                        
 4371W        W11587   7.803   4.333   1.174                        
 4372W        W11588   5.191   6.759  11.855                        
 4373W        W11589   1.209   6.995   1.167                        
 4374W        W11590  10.180   5.434   8.342                        
 4375W        W11591   6.438   4.383   3.547                        
 4376W        W11592   2.771   6.965   0.346                        
 4377W        W11593   2.753   2.206   7.586                        
 4378W        W11594   3.300  10.412   8.373                        
 4379W        W11595  13.058   1.489   8.336                        
 4380W        W11596  12.244   9.324   9.212                        
 4381W        W11597   1.922   8.322   0.681                        
 4382W        W11598   6.445   7.529   1.987                        
 4383W        W11599   6.202   8.083   1.164                        
 4384W        W11600  10.959   2.516   3.363                        
 4385W        W11601   7.251   4.678   2.859                        
 4386W        W11602  11.524   8.784   9.743                        
 4387W        W11603   2.804   4.900   0.430                        
 4388W        W11604   1.147   0.972  11.551                        
 4389W        W11605   4.638   7.014   0.938                        
 4390W        W11606   0.103   9.130   1.200                        
 4391W        W11607  11.458   8.572  10.321                        
 4392W        W11608   8.883   4.673   8.962                        
 4393W        W11609  13.850   7.282   3.111                        
 4394W        W11610   6.249   1.709   0.445                        
 4395W        W11611   3.267   4.894  10.202                        
 4396W        W11612   5.921  13.839   8.371                        
 4397W        W11613   5.911   4.405  11.550                        
 4398W        W11614   4.380   3.550  11.338                        
 4399W        W11615   1.733   7.056   8.656                        
 4400W        W11616   9.061   7.055   9.993                        
 4401W        W11617   9.954  12.827   9.467                        
 4402W        W11618   0.129  11.220  10.736                        
 4403W        W11619   6.971   1.683   8.444                        
 4404W        W11620   9.392   4.914  11.356                        
 4405W        W11621   4.892   2.824   1.155                        
 4406W        W11622   5.937   7.265   1.438                        
 4407W        W11623   0.682  12.539  10.739                        
 4408W        W11624   5.154   8.324  10.547                        
 4409W        W11625   8.040  10.402   3.820                        
 4410W        W11626  10.952   5.880   3.317                        
 4411W        W11627  11.194   7.731   1.779                        
 4412W        W11628   4.416   4.927  11.309                        
 4413W        W11629   6.799   6.436   3.566                        
 4414W        W11630   5.736   2.746   0.726                        
 4415W        W11631  13.663   4.424   3.021                        
 4416W        W11632   3.582   9.323   1.710                        
 4417W        W11633  11.012   6.193   0.915                        
 4418W        W11634  11.985   3.093   0.133                        
 4419W        W11635  10.925   1.458   1.203                        
 4420W        W11636  13.667   5.952   9.469                        
 4421W        W11637   1.713  10.925  11.804                        
 4422W        W11638   2.756   6.946   2.744                        
 4423W        W11639   4.616  12.549   0.193                        
 4424W        W11640  11.237   4.884   3.543                        
 4425W        W11641  11.161  10.213   2.589                        
 4426W        W11642   5.691   8.002   3.598                        
 4427W        W11643   8.638  12.218  11.390                        
 4428W        W11644  10.201   6.451   2.849                        
 4429W        W11645   8.266   3.242   8.895                        
 4430W        W11646  13.290  10.704   8.164                        
 4431W        W11647   5.116   8.005  10.812                        
 4432W        W11648   5.150  11.441   1.140                        
 4433W        W11649   7.497   8.287   1.726                        
 4434W        W11650   7.820   3.552   1.175                        
 4435W        W11651   0.359   3.895   2.841                        
 4436W        W11652  11.463   1.404   3.641                        
 4437W        W11653   4.919  13.922   8.872                        
 4438W        W11654  11.552   0.987   4.145                        
 4439W        W11655  13.335  10.716   9.171                        
 4440W        W11656   9.875   9.588   8.386                        
 4441W        W11657   9.378  10.224  11.309                        
 4442W        W11658  12.858   7.057   0.388                        
 4443W        W11659  10.390  13.353   1.184                        
 4444W        W11660   9.102  10.982   8.970                        
 4445W        W11661   9.647  11.757   2.845                        
 4446W        W11662  10.232   4.875   0.368                        
 4447W        W11663  12.788   6.263   2.863                        
 4448W        W11664   3.020   7.282   3.557                        
 4449W        W11665   7.209   2.270   0.986                        
 4450W        W11666   5.107   5.215   1.797                        
 4451W        W11667   5.172   5.682   8.109                        
 4452W        W11668  10.176   5.723   2.580                        
 4453W        W11669   0.942   3.045   1.990                        
 4454W        W11670   1.418   3.269   8.730                        
 4455W        W11671   2.303   2.979   2.800                        
 4456W        W11672   0.928   6.734   8.453                        
 4457W        W11673   3.264   3.338   1.943                        
 4458W        W11674  10.988  12.324   3.340                        
 4459W        W11675  11.532  13.593   9.526                        
 4460W        W11676   1.247   5.653   8.983                        
 4461W        W11677  11.449   3.877   2.495                        
 4462W        W11678  10.126  10.490  10.202                        
 4463W        W11679  11.765   3.091  11.283                        
 4464W        W11680   3.591   6.489  11.892                        
 4465W        W11681   7.485   9.915  11.010                        
 4466W        W11682   0.898   9.385   8.725                        
 4467W        W11683   6.939  10.967  10.214                        
 4468W        W11684   4.097   6.735   1.189                        
 4469W        W11685   4.912   9.919  11.653                        
 4470W        W11686   3.855   6.463  10.782                        
 4471W        W11687  11.026   0.435   0.892                        
 4472W        W11688  13.891   4.414   7.891                        
 4473W        W11689  13.860   7.740  10.015                        
 4474W        W11690  11.468   2.467   0.640                        
 4475W        W11691  10.194   9.919   3.572                        
 4476W        W11692  12.803   5.458  11.613                        
 4477W        W11693   2.754   0.917   1.948                        
 4478W        W11694  11.810   2.184   0.384                        
 4479W        W11695   9.907  11.504   2.853                        
 4480W        W11696   2.748   9.698   3.567                        
 4481W        W11697  11.542   9.371   2.492                        
 4482W        W11698   2.229   9.418   2.018                        
 4483W        W11699   7.242  11.010   7.839                        
 4484W        W11700   4.136   9.664   0.730                        
 4485W        W11701   9.663   9.358  11.647                        
 4486W        W11702   2.217   5.188  10.789                        
 4487W        W11703   9.695  12.016   9.461                        
 4488W        W11704  11.548   6.995   3.374                        
 4489W        W11705   7.300   6.798   3.661                        
 4490W        W11706   5.370   9.071  11.029                        
 4491W        W11707  12.019   7.795   8.107                        
 4492W        W11708  11.524  10.428   8.917                        
 4493W        W11709   8.271   5.636   1.726                        
 4494W        W11710   7.528  10.430   1.166                        
 4495W        W11711  12.560  12.265   2.329                        
 4496W        W11712   8.797   6.413  11.911                        
 4497W        W11713   8.314  10.908   2.844                        
 4498W        W11714   4.629   0.129   1.234                        
 4499W        W11715   9.126   2.180   8.653                        
 4500W        W11716   7.485   6.213   2.306                        
 4501W        W11717   4.640  10.647   0.441                        
 4502W        W11718   7.329   9.372  10.585                        
 4503W        W11719   0.189   0.692   8.434                        
 4504W        W11720   4.644   1.937  10.014                        
 4505W        W11721   4.327   9.588   1.223                        
 4506W        W11722  12.248   7.576   9.183                        
 4507W        W11723  12.557   2.545   1.719                        
 4508W        W11724   1.247   3.817  10.751                        
 4509W        W11725   2.752   4.059   1.789                        
 4510W        W11726  10.689   0.160   4.087                        
 4511W        W11727  13.655   8.570  10.263                        
 4512W        W11728   1.172   1.431   8.980                        
 4513W        W11729  12.257   4.860   2.037                        
 4514W        W11730  11.703   3.088   0.106                        
 4515W        W11731   8.604   2.476   8.671                        
 4516W        W11732   0.617   3.098   1.246                        
 4517W        W11733  12.514   1.497   2.531                        
 4518W        W11734  13.617  13.274   8.400                        
 4519W        W11735  13.092  13.277   0.350                        
 4520W        W11736   8.828   5.743   1.720                        
 4521W        W11737   9.335  12.335   0.621                        
 4522W        W11738   9.136   1.510   1.477                        
 4523W        W11739   0.367  12.758  10.225                        
 4524W        W11740   9.695   2.192   3.039                        
 4525W        W11741   7.518   9.433  10.044                        
 4526W        W11742  10.979   7.591   2.476                        
 4527W        W11743  13.616   6.470  11.876                        
 4528W        W11744   3.520  13.632  11.106                        
 4529W        W11745   7.241  11.441   3.911                        
 4530W        W11746   0.713   9.852   0.089                        
 4531W        W11747   1.151  10.105   2.739                        
 4532W        W11748   0.435   9.685   9.213                        
 4533W        W11749  12.306  11.018   0.077                        
 4534W        W11750   1.162   9.882   8.337                        
 4535W        W11751   2.220  10.996   3.348                        
 4536W        W11752   1.471  13.017  11.285                        
 4537W        W11753   2.815   9.880  10.781                        
 4538W        W11754   7.542  13.046   2.278                        
 4539W        W11755   6.446   5.419   0.438                        
 4540W        W11756   0.691   3.855  11.365                        
 4541W        W11757   0.341   0.911  11.091                        
 4542W        W11758   0.150  12.769  10.523                        
 4543W        W11759   7.035   2.817   9.777                        
 4544W        W11760   7.583  11.547  10.827                        
 4545W        W11761   8.913   9.127   2.797                        
 4546W        W11762   6.472   6.190  11.009                        
 4547W        W11763   5.981   6.790   2.295                        
 4548W        W11764  11.957   8.036   9.796                        
 4549W        W11765   8.071  13.035   1.203                        
 4550W        W11766  12.040   0.114   3.395                        
 4551W        W11767  12.046  11.966  11.930                        
 4552W        W11768   9.608  10.718   8.370                        
 4553W        W11769  12.345   8.265   3.905                        
 4554W        W11770   4.614   7.551   2.018                        
 4555W        W11771   0.356   6.719   8.651                        
 4556W        W11772  10.927   5.459   2.023                        
 4557W        W11773   5.972   7.496   3.627                        
 4558W        W11774   1.505  13.861   1.762                        
 4559W        W11775   9.939   7.226   3.034                        
 4560W        W11776   4.048   6.684   9.162                        
 4561W        W11777   6.980  11.476   9.249                        
 4562W        W11778   3.765   7.487  10.564                        
 4563W        W11779   8.853   6.473   9.697                        
 4564W        W11780   5.934  13.893   2.818                        
 4565W        W11781  12.565  11.445   2.595                        
 4566W        W11782   7.283   9.051  11.388                        
 4567W        W11783   3.245   3.623  10.765                        
 4568W        W11784  12.579  13.128   2.502                        
 4569W        W11785   2.533  12.833   1.186                        
 4570W        W11786  10.709   8.281   2.207                        
 4571W        W11787   9.437   5.449   3.872                        
 4572W        W11788   6.497   8.025   3.045                        
 4573W        W11789   4.076   8.877   0.926                        
 4574W        W11790  13.639   9.171   4.162                        
 4575W        W11791  10.418   0.084   1.754                        
 4576W        W11792   7.026   0.694  11.281                        
 4577W        W11793  10.156   2.224   0.151                        
 4578W        W11794   4.948  13.354  11.387                        
 4579W        W11795   4.893  12.250   7.834                        
 4580W        W11796  12.848   5.683   8.422                        
 4581W        W11797  10.923   7.514   8.674                        
 4582W        W11798   6.490  11.245   0.405                        
 4583W        W11799   1.724   0.961   0.926                        
 4584W        W11800   4.310   7.061   9.140                        
 4585W        W11801  10.396   5.184   3.021                        
 4586W        W11802   9.958   8.030  10.508                        
 4587W        W11803   7.532  11.702  11.542                        
 4588W        W11804   3.769   1.404  10.821                        
 4589W        W11805   0.364   8.005   3.107                        
 4590W        W11806   7.836   0.162   3.377                        
 4591W        W11807  13.922   7.503  10.004                        
 4592W        W11808   3.815   9.927   3.290                        
 4593W        W11809   7.012   8.800   0.902                        
 4594W        W11810   4.083  10.471   3.620                        
 4595W        W11811  13.397   8.583   3.303                        
 4596W        W11812   4.323   3.033  11.657                        
 4597W        W11813   7.218   3.793  10.797                        
 4598W        W11814   7.575  12.336   9.415                        
 4599W        W11815   0.079   4.607   4.131                        
 4600W        W11816   5.217  11.707  11.802                        
 4601W        W11817  11.239   2.833   2.588                        
 4602W        W11818   9.326  10.954  10.578                        
 4603W        W11819   4.385   1.425  10.053                        
 4604W        W11820   8.607   3.601   3.002                        
 4605W        W11821   1.768  10.370  11.904                        
 4606W        W11822   9.420  13.606   4.085                        
 4607W        W11823  12.013   5.647   1.707                        
 4608W        W11824   7.470  10.733   0.917                        
 4609W        W11825   2.839   3.794   8.915                        
 4610W        W11826   5.730  10.496   0.691                        
 4611W        W11827  10.944   4.572   8.956                        
 4612W        W11828   8.268   0.332   9.773                        
 4613W        W11829   4.143  11.773   9.513                        
 4614W        W11830   9.964   4.315  11.602                        
 4615W        W11831  10.646  10.729   0.991                        
 4616W        W11832   9.055   3.843   0.083                        
 4617W        W11833  10.941   9.382   1.711                        
 4618W        W11834   7.858   7.521  11.923                        
 4619W        W11835  13.281   0.966   1.137                        
 4620W        W11836   9.434   2.773  10.256                        
 4621W        W11837   4.909   5.455   9.971                        
 4622W        W11838   2.239   2.198   9.693                        
 4623W        W11839  11.002   0.368  10.747                        
 4624W        W11840   9.078  12.309  11.602                        
 4625W        W11841   7.589   0.074   9.775                        
 4626W        W11842  13.335   6.739   0.455                        
 4627W        W11843   5.663   7.571  10.738                        
 4628W        W11844   1.454   5.092  11.089                        
 4629W        W11845   9.878   5.169  10.296                        
 4630W        W11846  13.819   7.522   8.690                        
 4631W        W11847   5.977  13.042   1.152                        
 4632W        W11848   9.155   9.399   9.748                        
 4633W        W11849  11.483   1.252  10.321                        
 4634W        W11850   0.968   1.249   2.225                        
 4635W        W11851  13.038   4.066   2.210                        
 4636W        W11852   8.607   6.996   1.509                        
 4637W        W11853   1.471   2.286   9.405                        
 4638W        W11854   5.375   4.880   9.676                        
 4639W        W11855   4.125   3.305   9.514                        
 4640W        W11856   1.979   4.572   0.622                        
 4641W        W11857   3.507  13.855   1.211                        
 4642W        W11858   5.162  10.688   3.554                        
 4643W        W11859   3.316   1.219   1.139                        
 4644W        W11860  10.399   3.092   8.067                        
 4645W        W11861  12.516   7.517   4.436                        
 4646W        W11862   0.711  13.890  11.321                        
 4647W        W11863   9.608  12.602  10.303                        
 4648W        W11864  11.025  11.965   0.873                        
 4649W        W11865  12.598   5.409   8.133                        
 4650W        W11866   8.069  11.454   0.991                        
 4651W        W11867   2.494   0.915   9.224                        
 4652W        W11868  10.495   3.859   9.747                        
 4653W        W11869  12.231   0.198   2.799                        
 4654W        W11870   8.047   5.368   1.711                        
 4655W        W11871  10.975  13.903   1.722                        
 4656W        W11872   2.478   5.113  11.603                        
 4657W        W11873   6.006   6.227  11.354                        
 4658W        W11874   1.231   8.579  10.270                        
 4659W        W11875   0.959   6.670   8.639                        
 4660W        W11876   1.964   6.528   9.771                        
 4661W        W11877   0.372   2.836   0.400                        
 4662W        W11878   3.067   9.359   1.265                        
 4663W        W11879   3.333  13.319  10.755                        
 4664W        W11880  13.017   5.407   3.552                        
 4665W        W11881   3.354   7.262  11.342                        
 4666W        W11882  12.563   0.120   8.688                        
 4667W        W11883   7.766   4.597   3.340                        
 4668W        W11884   6.681   0.071   4.465                        
 4669W        W11885   8.623   3.558  10.236                        
 4670W        W11886  11.005   7.035   3.005                        
 4671W        W11887   1.201   3.297   9.253                        
 4672W        W11888   2.013   5.683   9.418                        
 4673W        W11889   0.334   7.506   1.964                        
 4674W        W11890   6.224  13.857   7.877                        
 4675W        W11891   9.869   4.140   2.478                        
 4676W        W11892   3.886   6.766   0.415                        
 4677W        W11893   3.889  12.538   2.497                        
 4678W        W11894   9.907   4.293   3.283                        
 4679W        W11895  10.484  10.172   9.447                        
 4680W        W11896   3.830   4.619   0.094                        
 4681W        W11897   4.152   5.718   9.144                        
 4682W        W11898  13.280   6.211   3.308                        
 4683W        W11899  11.731   4.107   1.505                        
 4684W        W11900   0.904   3.523   8.381                        
 4685W        W11901   4.309   3.624  10.525                        
 4686W        W11902   9.341   1.709  11.350                        
 4687W        W11903   7.055  12.550   0.069                        
 4688W        W11904  10.761  13.647   2.326                        
 4689W        W11905   5.186   3.585   8.380                        
 4690W        W11906   2.181  13.829   8.418                        
 4691W        W11907   5.112   1.240  11.390                        
 4692W        W11908   0.374   3.325  11.062                        
 4693W        W11909   5.192   1.933   1.968                        
 4694W        W11910   1.485   6.749   2.751                        
 4695W        W11911   1.923   2.558   3.094                        
 4696W        W11912   2.789   1.211   7.585                        
 4697W        W11913   5.385   4.326   2.523                        
 4698W        W11914   0.944   4.138   0.456                        
 4699W        W11915   4.300   1.934  11.810                        
 4700W        W11916   4.107   0.378   1.523                        
 4701W        W11917  13.376   4.859  11.360                        
 4702W        W11918  10.403  12.531   0.103                        
 4703W        W11919  13.378   0.621   2.275                        
 4704W        W11920   8.579   4.903   8.705                        
 4705W        W11921   2.183   4.931   1.483                        
 4706W        W11922   6.965   4.673  10.007                        
 4707W        W11923   5.640   6.478   0.725                        
 4708W        W11924  11.786   3.823   3.598                        
 4709W        W11925   1.768   2.035  10.284                        
 4710W        W11926  10.731   9.442   2.273                        
 4711W        W11927   0.135   0.366  10.215                        
 4712W        W11928   5.893   8.791   1.479                        
 4713W        W11929  12.247   3.510   8.883                        
 4714W        W11930  11.983  12.044   8.731                        
 4715W        W11931   6.423   4.908  10.042                        
 4716W        W11932   8.113   1.420   1.956                        
 4717W        W11933   4.658  13.551   1.738                        
 4718W        W11934   9.436   2.232   3.329                        
 4719W        W11935   5.674   7.060  11.922                        
 4720W        W11936  11.971   4.627   9.957                        
 4721W        W11937   8.601  13.926   1.481                        
 4722W        W11938  13.077  11.739   0.669                        
 4723W        W11939  11.957   1.213   4.461                        
 4724W        W11940   5.715   2.500   0.681                        
 4725W        W11941  10.214   4.054   8.892                        
 4726W        W11942   2.541   7.540   0.442                        
 4727W        W11943   1.686   3.050   8.950                        
 4728W        W11944  13.590   0.714  10.532                        
 4729W        W11945  10.729  12.016   3.536                        
 4730W        W11946  13.326  12.602   0.643                        
 4731W        W11947   1.195  10.908  11.609                        
 4732W        W11948   7.330  13.329  10.771                        
 4733W        W11949   4.918   3.068  10.816                        
 4734W        W11950  13.304   8.278   2.761                        
 4735W        W11951   4.295   1.774   9.520                        
 4736W        W11952   3.774   0.366   0.153                        
 4737W        W11953  12.563  13.041   9.789                        
 4738W        W11954   5.195   0.619  10.229                        
 4739W        W11955   9.365   9.368  11.292                        
 4740W        W11956  12.245  11.488   2.817                        
 4741W        W11957   0.964  10.991   0.706                        
 4742W        W11958   2.527   7.058  10.551                        
 4743W        W11959   4.845   5.620  10.564                        
 4744W        W11960  11.197   0.948   3.314                        
 4745W        W11961   2.292   5.970   4.113                        
 4746W        W11962   0.409   4.148   8.150                        
 4747W        W11963   6.694   4.684  10.036                        
 4748W        W11964  12.342   9.356  11.070                        
 4749W        W11965  10.755  13.863   2.221                        
 4750W        W11966  11.546   2.525   0.110                        
 4751W        W11967   8.114  13.873   3.274                        
 4752W        W11968   4.344  10.929   0.888                        
 4753W        W11969   8.847   2.821   0.180                        
 4754W        W11970   0.720   7.473   1.261                        
 4755W        W11971  10.484   5.421  11.563                        
 4756W        W11972  13.305   7.997   3.655                        
 4757W        W11973  12.864  12.598   7.902                        
 4758W        W11974   1.423   8.900  11.080                        
 4759W        W11975   9.971   0.708  11.925                        
 4760W        W11976   5.644   7.261   8.356                        
 4761W        W11977  12.817  10.944   1.179                        
 4762W        W11978   5.721   9.115   3.649                        
 4763W        W11979   0.149   9.971   0.953                        
 4764W        W11980   7.555  13.903   9.199                        
 4765W        W11981   0.608   9.707   8.960                        
 4766W        W11982   9.592   6.535   0.678                        
 4767W        W11983   2.310   7.021   1.501                        
 4768W        W11984   9.336  13.299   9.205                        
 4769W        W11985   7.787  13.140  10.287                        
 4770W        W11986   2.549  10.431   0.658                        
 4771W        W11987   3.272   3.342   0.114                        
 4772W        W11988   5.725  10.971   0.149                        
 4773W        W11989   9.594   0.453   3.319                        
 4774W        W11990  11.799   0.111   3.305                        
 4775W        W11991  11.253  13.405  10.202                        
 4776W        W11992   6.272   6.742   0.353                        
 4777W        W11993   8.274   0.426   1.720                        
 4778W        W11994  12.027   2.553  10.266                        
 4779W        W11995   1.669   0.969   0.381                        
 4780W        W11996  12.335  13.304   0.136                        
 4781W        W11997  11.785   1.420  10.249                        
 4782W        W11998   3.287  11.506   8.651                        
 4783W        W11999   3.878   6.259   0.378                        
 4784W        W12000   0.983   0.980  11.080                        
 4785W        W12001   8.308   6.194   8.653                        
 4786W        W12002   8.851   3.078   2.272                        
 4787W        W12003   1.677  13.550  10.480                        
 4788W        W12004   1.690   9.129   3.031                        
 4789W        W12005   9.935   2.826   8.440                        
 4790W        W12006   5.677  12.481   9.978                        
 4791W        W12007   5.950   1.726   3.014                        
 4792W        W12008   9.374   0.353   0.608                        
 4793W        W12009   9.359   9.867   9.263                        
 4794W        W12010   5.474  10.422   1.460                        
 4795W        W12011  11.978  10.640   2.579                        
 4796W        W12012   2.486  11.555   8.986                        
 4797W        W12013   8.619  13.082   3.535                        
 4798W        W12014   2.182   0.185   9.518                        
 4799W        W12015   9.409   8.306   3.331                        
 4800W        W12016  12.048   4.390   2.042                        
 4801W        W12017   3.098   0.080   0.342                        
 4802W        W12018  10.656  11.484  10.839                        
 4803W        W12019   8.269  13.858   0.621                        
 4804W        W12020   2.283   9.366  11.610                        
 4805W        W12021   9.424   4.062  11.640                        
 4806W        W12022   9.958   5.922   1.679                        
 4807W        W12023   8.028   4.079   1.419                        
 4808W        W12024   1.687   5.156   1.774                        
 4809W        W12025   7.582   9.938   3.065                        
 4810W        W12026  10.994   2.045  10.275                        
 4811W        W12027   6.703   0.443   1.686                        
 4812W        W12028   9.384   4.873   2.781                        
 4813W        W12029   9.898   8.119   2.489                        
 4814W        W12030  12.868   8.018  11.643                        
 4815W        W12031   8.842   6.463   2.252                        
 4816W        W12032  11.187   2.732   9.213                        
 4817W        W12033   8.043   6.955   1.261                        
 4818W        W12034   5.621  10.945  11.876                        
 4819W        W12035   8.073   8.839   8.993                        
 4820W        W12036   3.767   3.308   0.461                        
 4821W        W12037   1.691   3.344   0.896                        
 4822W        W12038   1.161  13.062   7.834                        
 4823W        W12039   3.834  10.455  10.541                        
 4824W        W12040   1.654   5.394   0.426                        
 4825W        W12041   6.752  10.745  10.237                        
 4826W        W12042  10.409   3.816   8.443                        
 4827W        W12043  11.984   3.778   2.065                        
 4828W        W12044   1.401   4.634   3.540                        
 4829W        W12045   6.183  12.585   2.264                        
 4830W        W12046   8.009   5.956   1.711                        
 4831W        W12047   0.168  12.766   3.540                        
 4832W        W12048   4.376   5.097   1.420                        
 4833W        W12049   0.447   2.734   9.152                        
 4834W        W12050   4.832   4.397  11.608                        
 4835W        W12051   8.272   2.733  11.538                        
 4836W        W12052  10.123   3.312   1.442                        
 4837W        W12053   7.498   4.676   0.181                        
 4838W        W12054   6.682   7.249   8.919                        
 4839W        W12055  11.790  11.275   8.716                        
 4840W        W12056  13.040   6.441  11.002                        
 4841W        W12057  12.872   0.441   8.095                        
 4842W        W12058  10.475  12.304   1.449                        
 4843W        W12059   0.333   2.305   9.179                        
 4844W        W12060  11.184   7.219   3.540                        
 4845W        W12061   8.003   4.052   8.369                        
 4846W        W12062  10.922  12.846  11.372                        
 4847W        W12063   2.561   4.938   1.169                        
 4848W        W12064  13.863   3.509   8.440                        
 4849W        W12065   1.178   6.731   9.689                        
 4850W        W12066  12.224  13.012   8.464                        
 4851W        W12067  13.351   1.932   0.404                        
 4852W        W12068   7.998   5.404   0.901                        
 4853W        W12069   2.455  13.599   2.048                        
 4854W        W12070   5.620   1.708   1.141                        
 4855W        W12071   3.789  11.026   0.200                        
 4856W        W12072  12.751   4.852   9.171                        
 4857W        W12073   7.536   3.083   9.475                        
 4858W        W12074   1.491   6.418   1.717                        
 4859W        W12075   8.093   0.177   8.620                        
 4860W        W12076  12.768  10.413   3.056                        
 4861W        W12077  11.017   1.193   3.008                        
 4862W        W12078   6.410   0.428   8.615                        
 4863W        W12079   6.177   4.424   4.143                        
 4864W        W12080   4.593   5.100   2.567                        
 4865W        W12081   9.907   6.168   1.434                        
 4866W        W12082   4.406   1.987   9.146                        
 4867W        W12083   1.652   5.358   8.638                        
 4868W        W12084   1.922   0.117   9.685                        
 4869W        W12085   9.423   0.368   3.103                        
 4870W        W12086   7.791   3.518   2.741                        
 4871W        W12087   3.515   0.419  11.014                        
 4872W        W12088   2.028   1.937   4.097                        
 4873W        W12089  12.591   0.093  11.815                        
 4874W        W12090   7.781   3.831   1.476                        
 4875W        W12091   9.663   3.086   8.628                        
 4876W        W12092   3.541   2.488   9.198                        
 4877W        W12093   6.950   4.677  11.585                        
 4878W        W12094   1.155   4.386   9.672                        
 4879W        W12095  12.809   3.244   1.677                        
 4880W        W12096  13.289   9.966   2.248                        
 4881W        W12097  10.481  11.248   9.686                        
 4882W        W12098   5.693   4.329   3.882                        
 4883W        W12099   0.163   3.508   1.216                        
 4884W        W12100   6.502   6.975  11.293                        
 4885W        W12101   6.469   1.993   1.489                        
 4886W        W12102   7.563   1.134   8.188                        
 4887W        W12103   1.152   0.156  10.234                        
 4888W        W12104   3.815   2.039   9.205                        
 4889W        W12105  13.633   5.121   9.153                        
 4890W        W12106  11.290   9.631   3.305                        
 4891W        W12107   6.183   0.686   9.511                        
 4892W        W12108   1.133   6.456   0.877                        
 4893W        W12109   8.367   6.714  10.471                        
 4894W        W12110   7.853   7.034   3.605                        
 4895W        W12111   2.185   2.023   0.463                        
 4896W        W12112  12.803   3.775  10.244                        
 4897W        W12113   4.907   2.023  11.850                        
 4898W        W12114  11.976   4.915  10.780                        
 4899W        W12115   9.949  10.673  10.559                        
 4900W        W12116   1.465   4.623  10.323                        
 4901W        W12117  12.537   9.584   3.368                        
 4902W        W12118  11.803   6.682  10.587                        
 4903W        W12119   3.094   2.807   8.721                        
 4904W        W12120   2.981   9.610  11.888                        
 4905W        W12121  11.461   8.005   0.720                        
 4906W        W12122   5.650   7.031   2.066                        
 4907W        W12123   2.810   7.328   0.933                        
 4908W        W12124   1.397   2.266   2.304                        
 4909W        W12125   6.209  11.485   1.720                        
 4910W        W12126   3.312  11.820   8.962                        
 4911W        W12127   0.927  12.873   1.438                        
 4912W        W12128   4.365  11.470  11.580                        
 4913W        W12129   2.529  12.797   9.675                        
 4914W        W12130  10.435   6.522  11.350                        
 4915W        W12131   4.865   7.005   0.120                        
 4916W        W12132   9.631   3.579   9.145                        
 4917W        W12133  10.936  11.287   0.965                        
 4918W        W12134  13.074   5.423   3.294                        
 4919W        W12135   0.376  11.820   1.974                        
 4920W        W12136   4.598   8.900   9.438                        
 4921W        W12137   6.758   0.099   8.149                        
 4922W        W12138   5.153  13.032   0.070                        
 4923W        W12139  12.061   5.944   3.094                        
 4924W        W12140   7.775  10.710   0.919                        
 4925W        W12141  10.943   8.267   9.718                        
 4926W        W12142   6.496  13.820  10.220                        
 4927W        W12143   7.564   4.847  11.664                        
 4928W        W12144  10.442   1.730   3.020                        
 4929W        W12145  10.716   7.519   0.613                        
 4930W        W12146   9.865   2.239   0.640                        
 4931W        W12147   0.147   8.273   2.027                        
 4932W        W12148   7.739   5.940   8.730                        
 4933W        W12149   8.315   6.438   9.771                        
 4934W        W12150   7.729  11.814   3.633                        
 4935W        W12151   6.490  10.987   3.399                        
 4936W        W12152   4.828   9.351   1.422                        
 4937W        W12153   5.978   0.936   0.178                        
 4938W        W12154   4.599   7.057   0.396                        
 4939W        W12155   2.520   4.572  10.542                        
 4940W        W12156   2.279   6.514   2.569                        
 4941W        W12157   7.204   8.105  11.623                        
 4942W        W12158   3.863  11.205   0.156                        
 4943W        W12159  10.664   1.962   8.681                        
 4944W        W12160   0.703   2.820  11.596                        
 4945W        W12161   9.965   2.294  10.300                        
 4946W        W12162   2.748   8.102   3.850                        
 4947W        W12163   0.356   4.572   1.701                        
 4948W        W12164   2.292   8.068   3.626                        
 4949W        W12165   9.396  13.902  11.557                        
 4950W        W12166  10.171  13.909   0.074                        
 4951W        W12167  11.227   2.817  11.852                        
 4952W        W12168   2.235   1.653   8.896                        
 4953W        W12169   7.768  12.849   8.441                        
 4954W        W12170  13.046   4.364   2.541                        
 4955W        W12171  12.582   7.730   2.565                        
 4956W        W12172   3.076   8.119   8.354                        
 4957W        W12173   6.008  13.308   9.667                        
 4958W        W12174   0.419   3.265   0.870                        
 4959W        W12175   5.930   2.523   1.161                        
 4960W        W12176   7.837   0.431   8.377                        
 4961W        W12177   6.472   4.841   3.641                        
 4962W        W12178   4.126  10.649   2.055                        
 4963W        W12179   5.658   1.660   2.483                        
 4964W        W12180   1.223  10.959   0.351                        
 4965W        W12181  11.232   4.867   3.016                        
 4966W        W12182  13.385   7.237   0.121                        
 4967W        W12183  10.447   5.652   9.761                        
 4968W        W12184   4.391   2.762   1.698                        
 4969W        W12185   9.639  11.755   3.838                        
 4970W        W12186   9.692  10.746   7.854                        
 4971W        W12187  13.867   5.622  11.801                        
 4972W        W12188   2.540   7.002  10.275                        
 4973W        W12189   0.691   6.751   3.556                        
 4974W        W12190  11.225  10.909   9.181                        
 4975W        W12191   7.728   0.109   9.171                        
 4976W        W12192   6.700   5.984   4.162                        
 4977W        W12193   6.507   2.787   1.967                        
 4978W        W12194  13.554   5.361  11.326                        
 4979W        W12195   7.218  13.384  10.503                        
 4980W        W12196   4.383  10.710   0.118                        
 4981W        W12197   4.582   4.675   3.356                        
 4982W        W12198   4.415   0.190   9.969                        
 4983W        W12199   4.379   3.096   3.274                        
 4984W        W12200  13.065   2.784   2.477                        
 4985W        W12201  12.484   2.830   1.750                        
 4986W        W12202   9.640  10.668  10.258                        
 4987W        W12203   8.913   2.528  11.095                        
 4988W        W12204   2.021   1.436   7.660                        
 4989W        W12205   2.832   7.832   3.369                        
 4990W        W12206   7.521  10.233   3.032                        
 4991W        W12207   0.427   9.340  11.922                        
 4992W        W12208   0.632  10.379   2.562                        
 4993W        W12209   8.619   6.781   3.394                        
 4994W        W12210   2.723  13.580   2.246                        
 4995W        W12211  11.694  12.546   8.885                        
 4996W        W12212   5.655  13.020   0.604                        
 4997W        W12213  12.232   6.526   2.262                        
 4998W        W12214   6.213   0.660   0.095                        
 4999W        W12215   7.279   0.459  11.014                        
 5000W        W12216   3.623  12.493   8.944                        
 5001W        W12217   8.062   1.951   2.270                        
 5002W        W12218   1.173   9.362   8.637                        
 5003W        W12219   8.007   2.831   2.218                        
 5004W        W12220   1.707   1.926  11.280                        
 5005W        W12221   8.105   9.895   8.672                        
 5006W        W12222  10.385  12.554   8.877                        
 5007W        W12223  12.232   1.682   8.650                        
 5008W        W12224   7.227   5.646   0.719                        
 5009W        W12225  13.854   9.618   3.293                        
 5010W        W12226   9.087   9.912   4.127                        
 5011W        W12227   9.052   6.183   9.442                        
 5012W        W12228  13.847   2.228   9.995                        
 5013W        W12229  13.831   1.430   3.657                        
 5014W        W12230   8.855  10.932  11.659                        
 5015W        W12231   6.990   2.515   9.527                        
 5016W        W12232  12.057  10.730  10.260                        
 5017W        W12233   6.166   4.904   3.585                        
 5018W        W12234   6.935   7.519   1.981                        
 5019W        W12235   1.684   5.364   0.614                        
 5020W        W12236   4.926   3.784   9.951                        
 5021W        W12237   7.734  12.830   1.706                        
 5022W        W12238  10.160   8.039  11.337                        
 5023W        W12239   2.010  10.962   2.487                        
 5024W        W12240   3.808   8.601   7.877                        
 5025W        W12241   3.869   4.137  10.771                        
 5026W        W12242   5.889   3.531  11.058                        
 5027W        W12243   6.939   7.266   9.227                        
 5028W        W12244   6.739   2.569  10.006                        
 5029W        W12245  12.853  13.401   2.285                        
 5030W        W12246   8.869   3.536   4.132                        
 5031W        W12247  11.236  11.468   2.203                        
 5032W        W12248  13.140   8.099   9.137                        
 5033W        W12249   0.153  10.475   0.623                        
 5034W        W12250   7.846  13.856   9.740                        
 5035W        W12251  11.206  12.502   1.949                        
 5036W        W12252   1.163   7.201   2.524                        
 5037W        W12253   7.729  10.916   9.261                        
 5038W        W12254   6.204  10.471  11.899                        
 5039W        W12255  13.293   9.173   1.956                        
 5040W        W12256  12.848   3.794   1.995                        
 5041W        W12257   4.654   2.789  10.221                        
 5042W        W12258   9.888   1.398   3.103                        
 5043W        W12259   9.953  10.655  11.299                        
 5044W        W12260   6.002  11.475   1.457                        
 5045W        W12261   9.430   4.155  11.279                        
 5046W        W12262   0.398  12.532   0.090                        
 5047W        W12263   0.595  12.827   8.957                        
 5048W        W12264   7.760  11.710   1.681                        
 5049W        W12265   2.020  10.387   8.918                        
 5050W        W12266   7.218   5.479   8.963                        
 5051W        W12267  13.562   2.262   2.256                        
 5052W        W12268   6.964  12.296  11.623                        
 5053W        W12269   0.187  10.385   8.135                        
 5054W        W12270  12.496   6.985   3.094                        
 5055W        W12271   1.457   0.676   8.632                        
 5056W        W12272  11.751   1.468   2.056                        
 5057W        W12273  13.599   2.772   1.503                        
 5058W        W12274  11.446   2.027   0.431                        
 5059W        W12275  10.477   9.935   3.118                        
 5060W        W12276   2.211  13.627   3.537                        
 5061W        W12277   5.720   1.410   1.710                        
 5062W        W12278   0.704   0.398   3.915                        
 5063W        W12279   8.025  13.088   8.622                        
 5064W        W12280   6.480  12.549   8.334                        
 5065W        W12281   4.387   6.678  10.484                        
 5066W        W12282  10.382   5.908   2.582                        
 5067W        W12283   3.333   8.891   8.412                        
 5068W        W12284   1.472   6.961   3.348                        
 5069W        W12285   7.591   3.280   3.064                        
 5070W        W12286   2.303   8.853  11.117                        
 5071W        W12287   8.561  13.354  11.854                        
 5072W        W12288  11.706  10.459  11.059                        
 5073W        W12289   4.887   0.603   1.228                        
 5074W        W12290   1.918  13.128   1.743                        
 5075W        W12291  12.062   6.533  10.845                        
 5076W        W12292   5.202  12.234   2.327                        
 5077W        W12293   2.783   0.190   2.025                        
 5078W        W12294  10.937   8.816   8.462                        
 5079W        W12295  11.443  13.880   1.139                        
 5080W        W12296   3.857  11.731   9.495                        
 5081W        W12297   1.757  10.179  10.232                        
 5082W        W12298  11.437   1.431   1.143                        
 5083W        W12299  12.224  12.496  11.904                        
 5084W        W12300   1.439  12.803  11.566                        
 5085W        W12301   9.678   6.257   0.629                        
 5086W        W12302   8.317   9.921   2.500                        
 5087W        W12303   4.124   7.782  10.274                        
 5088W        W12304   3.859   7.317   8.458                        
 5089W        W12305  12.872   9.336   8.899                        
 5090W        W12306   4.104  12.831  10.491                        
 5091W        W12307  12.344  13.042   8.965                        
 5092W        W12308   2.507   5.896   2.214                        
 5093W        W12309   6.779   5.940   1.530                        
 5094W        W12310  13.048   6.504   2.812                        
 5095W        W12311  13.378   5.453  11.872                        
 5096W        W12312   3.859  13.043   2.316                        
 5097W        W12313   5.180   6.212   1.167                        
 5098W        W12314   3.586  11.436   3.370                        
 5099W        W12315   5.150   7.509   4.375                        
 5100W        W12316   3.027  13.136   9.409                        
 5101W        W12317   5.129   8.597   1.703                        
 5102W        W12318   3.628  10.924   3.549                        
 5103W        W12319   8.635  11.757  11.054                        
 5104W        W12320   4.322  11.233   2.805                        
 5105W        W12321   6.150   2.749   2.753                        
 5106W        W12322   1.983  12.082   3.358                        
 5107W        W12323   3.840   1.402   1.978                        
 5108W        W12324   0.355  10.377   1.467                        
 5109W        W12325   5.920   7.234   2.252                        
 5110W        W12326   3.774   7.288   9.782                        
 5111W        W12327  12.016   4.591   9.223                        
 5112W        W12328  12.830   4.094   9.471                        
 5113W        W12329   3.019   7.811   1.953                        
 5114W        W12330   7.827   9.353   8.446                        
 5115W        W12331   1.244   1.716   3.342                        
 5116W        W12332   4.871   5.887   1.494                        
 5117W        W12333   7.800   2.978   0.958                        
 5118W        W12334  13.843   9.605   9.991                        
 5119W        W12335   8.018   0.458   2.036                        
 5120W        W12336   8.532   2.221   3.925                        
 5121W        W12337   8.904   5.156   1.460                        
 5122W        W12338   3.557   4.356   9.733                        
 5123W        W12339  12.760   3.096   9.430                        
 5124W        W12340  13.141  12.772  11.830                        
 5125W        W12341   6.704   8.375   0.128                        
 5126W        W12342   5.900  11.256  10.792                        
 5127W        W12343   1.193  11.426  11.858                        
 5128W        W12344   2.711   0.104   1.148                        
 5129W        W12345  13.543  11.287  11.645                        
 5130W        W12346   1.163  11.497  11.027                        
 5131W        W12347  13.129  13.304   4.150                        
 5132W        W12348   9.064  10.728  10.847                        
 5133W        W12349   2.284   1.677   9.200                        
 5134W        W12350  10.485   2.019   0.153                        
 5135W        W12351  12.582   9.598   0.677                        
 5136W        W12352  11.553   2.459   8.456                        
 5137W        W12353   5.637   3.315   0.163                        
 5138W        W12354   6.741   6.966  11.104                        
 5139W        W12355   4.668   9.056   9.232                        
 5140W        W12356   8.359   4.076   8.429                        
 5141W        W12357   8.898   2.788   3.584                        
 5142W        W12358  11.810   0.397  11.124                        
 5143W        W12359   4.950   8.648   2.288                        
 5144W        W12360   1.682  12.028   2.067                        
 5145W        W12361   8.019   8.115   8.397                        
 5146W        W12362   9.940   5.989   3.594                        
 5147W        W12363   0.709  12.825   2.513                        
 5148W        W12364   9.411   9.108  10.859                        
 5149W        W12365  11.501   9.064   0.727                        
 5150W        W12366  12.303  11.812   3.561                        
 5151W        W12367   6.674   0.445  10.800                        
 5152W        W12368  13.639   1.740   2.514                        
 5153W        W12369   5.936   8.898   8.390                        
 5154W        W12370  10.922   3.303   2.005                        
 5155W        W12371   8.044  12.825   3.118                        
 5156W        W12372   9.869  12.344   9.761                        
 5157W        W12373   6.460  13.396  11.870                        
 5158W        W12374  11.788  13.117  10.807                        
 5159W        W12375   6.175   2.834  10.803                        
 5160W        W12376  13.018   2.194   8.969                        
 5161W        W12377   0.186   8.832  11.279                        
 5162W        W12378   8.907   6.762   3.302                        
 5163W        W12379   3.276   3.314   8.868                        
 5164W        W12380   1.413   5.627  11.606                        
 5165W        W12381   4.134   0.135   8.947                        
 5166W        W12382   1.981  10.162   1.402                        
 5167W        W12383   2.469   1.685  10.029                        
 5168W        W12384   3.817   3.014   9.151                        
 5169W        W12385   5.355  10.231   8.363                        
 5170W        W12386   2.008  13.309   3.535                        
 5171W        W12387   4.601   5.983   3.385                        
 5172W        W12388  11.474   9.095   2.051                        
 5173W        W12389   6.493   0.112   0.180                        
 5174W        W12390  11.770  13.803   9.745                        
 5175W        W12391  11.983   5.467   0.629                        
 5176W        W12392   0.119   6.678   8.411                        
 5177W        W12393   2.454   6.734  10.850                        
 5178W        W12394  13.117  11.255   2.029                        
 5179W        W12395   4.680   6.446   1.963                        
 5180W        W12396   3.857   1.915   2.225                        
 5181W        W12397   5.677   6.995   9.149                        
 5182W        W12398   3.815   0.937  11.393                        
 5183W        W12399   9.638  10.641   8.158                        
 5184W        W12400  13.319   0.981   3.398                        
 5185W        W12401   7.028   8.283  10.239                        
 5186W        W12402   4.565   9.955   8.434                        
 5187W        W12403   5.884   5.743   3.106                        
 5188W        W12404   1.139  10.922   4.449                        
 5189W        W12405   8.295   2.451   3.370                        
 5190W        W12406  12.517   2.982   1.992                        
 5191W        W12407   6.711   9.384  11.583                        
 5192W        W12408   9.323   6.496   8.365                        
 5193W        W12409  12.011   6.691   3.082                        
 5194W        W12410   5.411   6.985   3.126                        
 5195W        W12411  10.186   0.965   2.224                        
 5196W        W12412   2.828  13.803   1.754                        
 5197W        W12413  13.396   0.186   9.747                        
 5198W        W12414   1.759   2.460  10.519                        
 5199W        W12415   2.261  13.064   9.154                        
 5200W        W12416  11.220   6.467   3.546                        
 5201W        W12417   1.163   4.630   9.964                        
 5202W        W12418  10.407   0.424   0.185                        
 5203W        W12419   2.251  13.628   2.813                        
 5204W        W12420   4.938  12.486   3.292                        
 5205W        W12421   9.640  10.643  11.643                        
 5206W        W12422  13.138   4.355   9.425                        
 5207W        W12423  10.689   0.658   1.766                        
 5208W        W12424  11.183  11.502   3.316                        
 5209W        W12425   9.929  13.060   9.764                        
 5210W        W12426   8.911   1.235  10.268                        
 5211W        W12427  13.653   3.082   8.459                        
 5212W        W12428  11.430   7.852   3.119                        
 5213W        W12429   0.633  12.287   3.563                        
 5214W        W12430   3.768   5.918   3.126                        
 5215W        W12431  12.254  13.404   1.986                        
 5216W        W12432   9.588   8.384   9.981                        
 5217W        W12433   0.955   8.882  11.021                        
 5218W        W12434   7.286   0.701  11.042                        
 5219W        W12435   2.773  10.213   4.405                        
 5220W        W12436   0.910   7.284  11.543                        
 5221W        W12437   3.064   0.192   9.487                        
 5222W        W12438   1.999   4.062  11.272                        
 5223W        W12439   9.598   5.897   9.479                        
 5224W        W12440   4.147   6.174   9.470                        
 5225W        W12441  10.392   4.332   8.692                        
 5226W        W12442  10.121   5.413   1.984                        
 5227W        W12443  10.973   8.292   0.436                        
 5228W        W12444   1.953  12.233  11.900                        
 5229W        W12445   3.509   3.855   9.680                        
 5230W        W12446   7.258   6.419   9.138                        
 5231W        W12447  10.467  12.777   8.953                        
 5232W        W12448   9.932   7.524   1.446                        
 5233W        W12449   4.146   7.999  11.125                        
 5234W        W12450   3.036   5.909   9.415                        
 5235W        W12451  11.165   5.659   8.382                        
 5236W        W12452   5.144   2.721   9.201                        
 5237W        W12453   8.347   7.262   8.891                        
 5238W        W12454   5.389   9.579   1.137                        
 5239W        W12455   2.521   2.729  10.784                        
 5240W        W12456   5.429   3.836  11.273                        
 5241W        W12457   0.864  13.876  11.584                        
 5242W        W12458   3.578  12.542   1.485                        
 5243W        W12459   8.115  10.906  11.285                        
 5244W        W12460   6.463   4.354   3.027                        
 5245W        W12461   5.729   4.344   3.602                        
 5246W        W12462  12.267  13.904   2.785                        
 5247W        W12463  12.256   4.057   0.651                        
 5248W        W12464   8.788   3.344   8.631                        
 5249W        W12465   6.757   1.454   0.984                        
 5250W        W12466  10.947  11.271  11.374                        
 5251W        W12467  13.085   1.496   3.371                        
 5252W        W12468  12.529   3.329  11.619                        
 5253W        W12469  11.453  13.075  11.606                        
 5254W        W12470   9.689  10.909   9.448                        
 5255W        W12471   0.188   3.869   0.899                        
 5256W        W12472   9.880   5.208   3.538                        
 5257W        W12473   6.963   1.460   3.045                        
 5258W        W12474   4.656   3.245   2.300                        
 5259W        W12475   7.580   6.704   9.478                        
 5260W        W12476   4.045   9.873   3.595                        
 5261W        W12477   0.195   6.161   3.055                        
 5262W        W12478  10.170   6.724  10.322                        
 5263W        W12479   8.085  11.189   0.447                        
 5264W        W12480   5.430  10.140   0.427                        
 5265W        W12481  10.487   2.452   9.402                        
 5266W        W12482   9.586   5.193   8.353                        
 5267W        W12483   7.271   2.242   2.590                        
 5268W        W12484   0.440  13.385   2.244                        
 5269W        W12485   8.328   5.887  11.928                        
 5270W        W12486  10.139  11.530   2.477                        
 5271W        W12487  11.788   1.186   7.846                        
 5272W        W12488  13.875  12.762   9.149                        
 5273W        W12489   8.859   2.758   1.146                        
 5274W        W12490   9.895   9.850   9.776                        
 5275W        W12491  12.229   6.150   3.272                        
 5276W        W12492   4.873  12.603   9.174                        
 5277W        W12493   7.261   4.686   8.644                        
 5278W        W12494  10.919   2.730   3.636                        
 5279W        W12495   9.953   8.620  10.478                        
 5280W        W12496   8.288   4.144   1.262                        
 5281W        W12497   1.940   6.712   9.428                        
 5282W        W12498  10.201  11.760   2.830                        
 5283W        W12499   0.623  10.454   3.583                        
 5284W        W12500  10.214   9.335   8.196                        
 5285W        W12501   3.527   2.199   3.013                        
 5286W        W12502  12.503   1.199   8.171                        
 5287W        W12503   9.618  13.049   9.490                        
 5288W        W12504  13.394   2.991   0.911                        
 5289W        W12505  11.016   0.675  11.632                        
 5290W        W12506   9.685   7.842   3.557                        
 5291W        W12507   2.227   9.650   4.155                        
 5292W        W12508   0.149   5.183  11.853                        
 5293W        W12509  12.009   5.641  10.581                        
 5294W        W12510  12.786   3.068  11.632                        
 5295W        W12511  13.011   2.979   2.501                        
 5296W        W12512  13.019   7.734   8.418                        
 5297W        W12513   7.298   7.569   9.233                        
 5298W        W12514   1.971   8.309   8.640                        
 5299W        W12515   6.706   9.891   2.302                        
 5300W        W12516  10.439  12.789   9.754                        
 5301W        W12517  12.551   1.201  10.286                        
 5302W        W12518   9.605  11.429  11.127                        
 5303W        W12519   3.260  13.893   0.628                        
 5304W        W12520  10.466   3.829   3.538                        
 5305W        W12521   3.821   8.519   0.432                        
 5306W        W12522   4.296  11.996   3.059                        
 5307W        W12523   5.949  13.902   3.394                        
 5308W        W12524   6.270   7.810   0.733                        
 5309W        W12525   4.912   4.569   3.100                        
 5310W        W12526   3.033   0.704   7.832                        
 5311W        W12527   9.132   0.880  10.039                        
 5312W        W12528   8.888   3.785   7.621                        
 5313W        W12529   5.431   6.486   8.921                        
 5314W        W12530   8.354   7.014  11.002                        
 5315W        W12531   5.449   4.688   9.205                        
 5316W        W12532  12.267   9.145  10.219                        
 5317W        W12533  13.809   0.635   9.192                        
 5318W        W12534   1.778   0.864   9.981                        
 5319W        W12535   3.843   9.140   2.027                        
 5320W        W12536   9.675   3.311   2.798                        
 5321W        W12537   1.658   1.940  11.052                        
 5322W        W12538   7.463  11.484   2.258                        
 5323W        W12539   9.966   0.387   2.268                        
 5324W        W12540   7.559   3.864  10.582                        
 5325W        W12541  10.225  13.093   3.555                        
 5326W        W12542  10.458   2.214   2.303                        
 5327W        W12543   6.971   8.633  11.293                        
 5328W        W12544   6.418   9.376   7.913                        
 5329W        W12545  12.031   9.634   1.410                        
 5330W        W12546   9.668   8.900   8.913                        
 5331W        W12547   3.508   6.685   1.411                        
 5332W        W12548   9.954  13.038   4.110                        
 5333W        W12549  13.638   2.497  10.242                        
 5334W        W12550  13.392   1.404  10.503                        
 5335W        W12551   9.918   8.110   2.330                        
 5336W        W12552   6.961   5.456   3.033                        
 5337W        W12553   0.187   3.868   1.967                        
 5338W        W12554   7.831   0.438  11.342                        
 5339W        W12555   0.882  13.867   9.998                        
 5340W        W12556   8.012   8.786  11.595                        
 5341W        W12557   0.392  13.119   1.182                        
 5342W        W12558   0.885   1.185   3.658                        
 5343W        W12559   5.635  12.020   1.977                        
 5344W        W12560   8.620   2.184   4.184                        
 5345W        W12561   2.256   3.852   9.506                        
 5346W        W12562  13.561   8.821   9.761                        
 5347W        W12563   2.986   1.474   2.807                        
 5348W        W12564   1.779   7.216   2.588                        
 5349W        W12565  13.011   0.628   7.862                        
 5350W        W12566   1.431   3.895  11.811                        
 5351W        W12567   8.061   9.383  10.807                        
 5352W        W12568   8.877   3.071   7.851                        
 5353W        W12569   8.579   2.213   3.378                        
 5354W        W12570  10.233   9.433   2.510                        
 5355W        W12571   4.685   6.219   0.071                        
 5356W        W12572  13.931   5.202  10.245                        
 5357W        W12573   9.151   1.126  11.622                        
 5358W        W12574  11.205   7.317  11.849                        
 5359W        W12575   3.280   1.765   0.909                        
 5360W        W12576   1.772  10.168   0.637                        
 5361W        W12577   8.829   3.010   3.643                        
 5362W        W12578   0.430   7.227  11.006                        
 5363W        W12579   3.829   4.673   1.721                        
 5364W        W12580  11.265   5.128  11.606                        
 5365W        W12581  13.366   1.484   9.511                        
 5366W        W12582  13.631   6.205   8.717                        
 5367W        W12583   7.304   7.264   9.937                        
 5368W        W12584  11.759   1.764   0.625                        
 5369W        W12585   6.180   4.668   8.698                        
 5370W        W12586   3.000   3.843   3.852                        
 5371W        W12587  13.920   4.361   7.603                        
 5372W        W12588  10.928   1.204   8.983                        
 5373W        W12589   0.441   3.528   1.754                        
 5374W        W12590  11.768   8.519   8.413                        
 5375W        W12591   1.919  10.431   3.578                        
 5376W        W12592   4.061   4.887   0.434                        
 5377W        W12593   6.789   8.310   8.626                        
 5378W        W12594   0.193   9.587   2.852                        
 5379W        W12595  12.221   2.282   1.514                        
 5380W        W12596   6.520  11.714   2.204                        
 5381W        W12597   8.358  13.337   0.934                        
 5382W        W12598   2.985  11.804   0.183                        
 5383W        W12599   3.601   5.174   1.171                        
 5384W        W12600   8.624   5.698   9.430                        
 5385W        W12601  13.374   0.610   0.147                        
 5386W        W12602   9.361   2.255  11.064                        
 5387W        W12603   4.113   0.680   8.946                        
 5388W        W12604   9.442  13.635   3.316                        
 5389W        W12605   9.102   0.421   9.250                        
 5390W        W12606   2.573  13.324   2.771                        
 5391W        W12607  10.698  13.581   8.714                        
 5392W        W12608   7.320   1.735   1.140                        
 5393W        W12609  12.749   8.088   3.546                        
 5394W        W12610   4.074   3.550   0.727                        
 5395W        W12611  11.265   2.751   8.441                        
 5396W        W12612   7.046  10.418   0.997                        
 5397W        W12613   4.922   9.053   9.223                        
 5398W        W12614  13.400   6.993   0.723                        
 5399W        W12615  10.156   1.254   1.671                        
 5400W        W12616   3.510   2.982   2.752                        
 5401W        W12617   3.566   3.272   2.850                        
 5402W        W12618   6.482   5.990   8.356                        
 5403W        W12619  10.753  11.430   0.180                        
 5404W        W12620  10.741  11.255   2.853                        
 5405W        W12621  10.417   9.096   9.241                        
 5406W        W12622  11.433   7.781   9.145                        
 5407W        W12623   6.801   2.547   8.602                        
 5408W        W12624  10.500   1.454  10.860                        
 5409W        W12625   5.915  10.215  11.118                        
 5410W        W12626   0.657   8.365   2.310                        
 5411W        W12627  11.716   1.250  11.085                        
 5412W        W12628   4.364   5.915  10.598                        
 5413W        W12629   5.893   6.749   3.546                        
 5414W        W12630   1.951   5.619  10.513                        
 5415W        W12631   1.153  13.295   8.713                        
 5416W        W12632   4.837   1.928   0.412                        
 5417W        W12633   8.894   9.856   9.529                        
 5418W        W12634  13.661   9.661   0.175                        
 5419W        W12635   0.895  12.590   9.173                        
 5420W        W12636  10.176   8.860   9.779                        
 5421W        W12637   0.865   0.190   4.085                        
 5422W        W12638   8.853  13.894   8.723                        
 5423W        W12639   1.173   4.600   1.521                        
 5424W        W12640   8.786   1.203   3.295                        
 5425W        W12641   2.187  13.317   0.397                        
 5426W        W12642   5.403  11.017  11.559                        
 5427W        W12643   3.019   5.962  10.828                        
 5428W        W12644   0.088   4.591   8.348                        
 5429W        W12645  11.461   2.835   3.565                        
 5430W        W12646   4.067   6.186   0.339                        
 5431W        W12647   1.421  11.696   0.941                        
 5432W        W12648   3.877   5.668   9.203                        
 5433W        W12649   0.925   3.840   2.259                        
 5434W        W12650  13.077  12.033   9.994                        
 5435W        W12651   5.460   3.599   2.289                        
 5436W        W12652  11.165   0.092   3.613                        
 5437W        W12653  11.525  11.700   8.458                        
 5438W        W12654   1.479  11.184   7.887                        
 5439W        W12655   8.022  10.936  10.753                        
 5440W        W12656   7.576  13.286   9.739                        
 5441W        W12657   9.597   0.070   1.516                        
 5442W        W12658   7.851   8.876   1.187                        
 5443W        W12659   9.841   9.842   0.103                        
 5444W        W12660   4.890   3.604   4.165                        
 5445W        W12661   1.183  11.554  10.031                        
 5446W        W12662  13.088   6.962   1.230                        
 5447W        W12663   1.247   1.179  11.346                        
 5448W        W12664   5.393  13.113  10.330                        
 5449W        W12665  11.228   4.337   3.306                        
 5450W        W12666  12.834   9.616  11.841                        
 5451W        W12667   2.786  10.401   9.216                        
 5452W        W12668  13.802   6.190   3.306                        
 5453W        W12669  10.430  13.348   2.017                        
 5454W        W12670   7.282  10.943   8.981                        
 5455W        W12671   4.389   5.481   2.567                        
 5456W        W12672  13.901   8.861   4.349                        
 5457W        W12673   4.828  12.341   3.617                        
 5458W        W12674   5.188   1.994   1.786                        
 5459W        W12675  13.879   8.314   4.139                        
 5460W        W12676   5.119   4.917   8.080                        
 5461W        W12677   9.116   8.258   1.404                        
 5462W        W12678   2.224   9.387   0.915                        
 5463W        W12679   3.338   3.796  10.533                        
 5464W        W12680   0.363  12.495   2.210                        
 5465W        W12681   3.343   8.374   8.718                        
 5466W        W12682  13.354   6.158  11.904                        
 5467W        W12683   5.476  12.495   3.111                        
 5468W        W12684  12.345   6.684   2.205                        
 5469W        W12685   5.890   0.697   0.437                        
 5470W        W12686  11.698  11.241  10.061                        
 5471W        W12687   0.109  11.820  11.569                        
 5472W        W12688   3.053   9.106  11.319                        
 5473W        W12689   8.337   5.904   0.431                        
 5474W        W12690   2.733   0.680   8.726                        
 5475W        W12691   4.942   5.724  10.818                        
 5476W        W12692   9.670  10.921   0.418                        
 5477W        W12693   3.273  11.737   1.440                        
 5478W        W12694   4.885  12.765  11.112                        
 5479W        W12695   1.950   9.606   9.422                        
 5480W        W12696   3.868   1.148   8.646                        
 5481W        W12697   5.461  11.211   3.066                        
 5482W        W12698  13.582   4.846   7.824                        
 5483W        W12699  13.102  12.482   0.155                        
 5484W        W12700   8.858  11.476  11.352                        
 5485W        W12701   8.806   3.618   3.621                        
 5486W        W12702  10.989  10.191   2.798                        
 5487W        W12703  13.335   8.589   1.998                        
 5488W        W12704   7.507   3.033   2.823                        
 5489W        W12705   0.177  11.958  11.269                        
 5490W        W12706   5.462   8.532  10.046                        
 5491W        W12707   5.442   0.347  11.319                        
 5492W        W12708   7.264  12.266  10.234                        
 5493W        W12709  13.014  13.805  10.805                        
 5494W        W12710  10.484   8.103   0.676                        
 5495W        W12711   0.907   3.766   2.513                        
 5496W        W12712   5.648  10.764   3.073                        
 5497W        W12713   1.753   1.752  10.781                        
 5498W        W12714   1.135   5.743  10.487                        
 5499W        W12715  12.593   3.836   0.163                        
 5500W        W12716   0.622   0.189   8.946                        
 5501W        W12717   2.735   2.797   0.939                        
 5502W        W12718   1.708   8.631   1.956                        
 5503W        W12719   4.933   9.706   8.400                        
 5504W        W12720   0.095   0.187   9.482                        
 5505W        W12721   5.370  13.643   8.705                        
 5506W        W12722   3.012   8.334   1.675                        
 5507W        W12723   8.823  12.803   3.637                        
 5508W        W12724   0.176   8.618   8.414                        
 5509W        W12725   0.924  13.653   0.698                        
 5510W        W12726   4.662   2.827  10.771                        
 5511W        W12727   0.698  13.081   8.629                        
 5512W        W12728  11.200  13.899  10.560                        
 5513W        W12729   2.261   6.739  11.347                        
 5514W        W12730  13.283   7.559   1.145                        
 5515W        W12731   5.171   0.704   2.759                        
 5516W        W12732   2.021  12.826   3.109                        
 5517W        W12733  10.407   7.210   9.227                        
 5518W        W12734   4.102  13.059   1.235                        
 5519W        W12735   2.467   5.400  11.820                        
 5520W        W12736   3.103   3.071  11.317                        
 5521W        W12737  10.961  11.171   9.525                        
 5522W        W12738   5.211   1.440   9.134                        
 5523W        W12739   6.197   8.874   3.010                        
 5524W        W12740   0.343   4.883   7.914                        
 5525W        W12741  10.470   5.956   8.953                        
 5526W        W12742  13.549   1.160   1.424                        
 5527W        W12743  10.392   5.392  10.268                        
 5528W        W12744   3.044   3.043   2.789                        
 5529W        W12745  13.122  11.015  10.028                        
 5530W        W12746   7.047   2.493   9.200                        
 5531W        W12747  11.494  10.206   1.170                        
 5532W        W12748   1.741   4.610   3.581                        
 5533W        W12749   4.135   4.383   0.376                        
 5534W        W12750  11.504   0.902  11.921                        
 5535W        W12751   9.869  12.846   2.771                        
 5536W        W12752   9.099   5.101   2.747                        
 5537W        W12753  11.777   8.357   8.902                        
 5538W        W12754   3.619   7.582   9.944                        
 5539W        W12755   7.327   1.458   2.279                        
 5540W        W12756   3.316   2.297   8.970                        
 5541W        W12757   8.053   1.916   3.062                        
 5542W        W12758   1.489   5.450   3.133                        
 5543W        W12759  13.546  12.289  11.308                        
 5544W        W12760   0.461  12.313   4.077                        
 5545W        W12761   4.061   6.184  11.848                        
 5546W        W12762   2.470   0.438  11.112                        
 5547W        W12763   6.711   1.230   8.119                        
 5548W        W12764   6.477   9.312   0.186                        
 5549W        W12765  11.794   0.883  11.652                        
 5550W        W12766   1.765   5.663   7.614                        
 5551W        W12767  10.459   5.151  10.752                        
 5552W        W12768   8.303  12.045   8.966                        
 5553W        W12769   2.275   0.134  10.513                        
 5554W        W12770  10.634  11.227   0.463                        
 5555W        W12771  12.807  12.495   8.405                        
 5556W        W12772   5.656  12.590   0.458                        
 5557W        W12773  10.981   0.966   2.789                        
 5558W        W12774   9.851   5.665   1.739                        
 5559W        W12775   7.295  12.014   0.096                        
 5560W        W12776   4.103   7.759   8.930                        
 5561W        W12777   2.810  11.494   1.760                        
 5562W        W12778   6.173   8.539  11.001                        
 5563W        W12779   4.619  13.881   3.132                        
 5564W        W12780  13.385   4.095   0.970                        
 5565W        W12781   4.575  13.641  10.223                        
 5566W        W12782  10.977   2.184   9.220                        
 5567W        W12783   9.618   5.477  10.501                        
 5568W        W12784   5.932  10.898   2.776                        
 5569W        W12785   5.947  11.262   1.210                        
 5570W        W12786  12.762   9.647  10.561                        
 5571W        W12787   6.507   7.771   9.133                        
 5572W        W12788   9.397  12.258   0.448                        
 5573W        W12789  11.185   4.642   9.229                        
 5574W        W12790  10.180   0.141  11.855                        
 5575W        W12791   9.175   4.826   0.885                        
 5576W        W12792   0.656   7.201   1.488                        
 5577W        W12793   0.613   0.172   1.471                        
 5578W        W12794   0.410   1.162   2.317                        
 5579W        W12795   4.659   3.067  11.300                        
 5580W        W12796  11.750  13.094   3.591                        
 5581W        W12797   5.642  11.484   1.479                        
 5582W        W12798  13.588   9.843   0.134                        
 5583W        W12799   1.234   4.363   3.666                        
 5584W        W12800  10.465  13.600   0.946                        
 5585W        W12801   1.404   5.373   1.506                        
 5586W        W12802   7.029   8.309  11.801                        
 5587W        W12803  13.335   5.182   2.832                        
 5588W        W12804   0.093  10.745   1.145                        
 5589W        W12805   6.702  11.788  10.751                        
 5590W        W12806  12.812   4.365   3.271                        
 5591W        W12807  13.544  12.570  11.869                        
 5592W        W12808   3.613   3.588   9.172                        
 5593W        W12809   0.409   4.608   1.220                        
 5594W        W12810   5.723   3.606  11.831                        
 5595W        W12811   1.197   2.292   2.208                        
 5596W        W12812   3.813  13.870  10.865                        
 5597W        W12813   8.302   1.152  11.314                        
 5598W        W12814  11.212  13.133  10.831                        
 5599W        W12815  13.326   1.708   8.965                        
 5600W        W12816   0.960  11.170   1.753                        
 5601W        W12817   3.795   1.705   9.244                        
 5602W        W12818   6.979  10.986   1.461                        
 5603W        W12819  12.242  10.936   3.307                        
 5604W        W12820   1.947   9.939  10.557                        
 5605W        W12821  11.006   0.672   8.946                        
 5606W        W12822  11.170   1.962  10.799                        
 5607W        W12823   5.684   6.962  11.098                        
 5608W        W12824   5.744   1.738   1.406                        
 5609W        W12825   4.860  12.529   1.483                        
 5610W        W12826   6.238   4.137   1.951                        
 5611W        W12827   1.929   2.460  11.816                        
 5612W        W12828   3.844   1.497   2.854                        
 5613W        W12829   1.709  13.307   1.253                        
 5614W        W12830   0.091  12.826   8.426                        
 5615W        W12831   9.656  10.440   2.566                        
 5616W        W12832   7.554   2.033   8.142                        
 5617W        W12833   3.102   6.945  11.109                        
 5618W        W12834   1.721   4.634  11.086                        
 5619W        W12835  10.184  13.592   3.281                        
 5620W        W12836  11.219   3.623   0.687                        
 5621W        W12837   8.372   8.902   3.644                        
 5622W        W12838   1.495   8.103  11.017                        
 5623W        W12839   2.507   8.627   1.488                        
 5624W        W12840   9.373  13.353   0.142                        
 5625W        W12841  13.814  13.016  11.564                        
 5626W        W12842   3.575   5.434   4.425                        
 5627W        W12843   1.999   1.518   0.974                        
 5628W        W12844  13.873   2.211   9.223                        
 5629W        W12845  12.587   9.081  11.395                        
 5630W        W12846   2.568   3.043   8.621                        
 5631W        W12847   8.645   2.469   9.697                        
 5632W        W12848   3.071   6.222   9.951                        
 5633W        W12849  13.064   8.347   1.789                        
 5634W        W12850   8.788  13.929   0.132                        
 5635W        W12851   5.887  12.270   8.722                        
 5636W        W12852  11.504  12.543   2.560                        
 5637W        W12853   0.386   7.062   1.940                        
 5638W        W12854   0.148  13.810   8.994                        
 5639W        W12855   5.204  12.006   9.187                        
 5640W        W12856   5.947   7.219   2.530                        
 5641W        W12857   3.592   7.801   0.716                        
 5642W        W12858   2.502   5.138   1.729                        
 5643W        W12859   8.011   7.011   9.669                        
 5644W        W12860   4.086   7.785  10.586                        
 5645W        W12861   3.501   4.905   2.489                        
 5646W        W12862   0.361   3.873   0.169                        
 5647W        W12863   7.257   6.177   9.794                        
 5648W        W12864   6.767  10.417  10.282                        
 5649W        W12865   7.030   1.146   0.146                        
 5650W        W12866   9.107   2.747   1.952                        
 5651W        W12867   2.030  13.805  11.800                        
 5652W        W12868  11.523   2.530   2.333                        
 5653W        W12869   5.155   9.583   0.966                        
 5654W        W12870   2.280   5.686   0.130                        
 5655W        W12871   1.772   9.860   8.965                        
 5656W        W12872   0.642   4.652   2.315                        
 5657W        W12873   6.005  10.117   9.519                        
 5658W        W12874  12.219   7.807  10.765                        
 5659W        W12875   3.070   9.338   9.992                        
 5660W        W12876   1.410   2.486   0.888                        
 5661W        W12877   7.563  10.978   3.629                        
 5662W        W12878   7.294   0.860   3.901                        
 5663W        W12879   3.828  13.596  10.575                        
 5664W        W12880   9.384   2.465   2.836                        
 5665W        W12881   0.374  10.213   9.994                        
 5666W        W12882   9.092   5.438   2.241                        
 5667W        W12883   1.763  13.018   8.611                        
 5668W        W12884  12.259   3.353   9.487                        
 5669W        W12885   9.880   3.560   9.985                        
 5670W        W12886   6.699   8.580   2.771                        
 5671W        W12887   6.699   5.364  11.808                        
 5672W        W12888   7.230  13.029   3.298                        
 5673W        W12889   2.251   7.287  10.260                        
 5674W        W12890   3.508   4.339  11.827                        
 5675W        W12891   2.283   0.624  11.545                        
 5676W        W12892   5.471   1.981   9.775                        
 5677W        W12893   4.299   1.215  10.055                        
 5678W        W12894   3.625  11.770   8.428                        
 5679W        W12895   1.156  13.667   0.908                        
 5680W        W12896  11.486  10.456   9.530                        
 5681W        W12897   7.306  10.430   4.157                        
 5682W        W12898   0.383  11.205   1.483                        
 5683W        W12899   7.224   1.933   1.463                        
 5684W        W12900   3.238  11.770   1.201                        
 5685W        W12901   7.058   5.445   9.477                        
 5686W        W12902   2.997   1.659  10.482                        
 5687W        W12903   7.585   1.409   3.312                        
 5688W        W12904   0.086   7.558   8.679                        
 5689W        W12905   2.572   1.469   8.078                        
 5690W        W12906   3.046   5.114  11.394                        
 5691W        W12907  12.586   5.087   7.864                        
 5692W        W12908   5.736   8.634   3.022                        
 5693W        W12909   4.688  13.111   2.485                        
 5694W        W12910   1.209   1.151   3.835                        
 5695W        W12911   1.986   9.395  10.584                        
 5696W        W12912   6.414   5.396   8.956                        
 5697W        W12913  13.053  10.129   0.134                        
 5698W        W12914   1.414   7.259   1.976                        
 5699W        W12915   4.365   0.354  10.243                        
 5700W        W12916   0.446  12.498   8.424                        
 5701W        W12917  12.530   8.079   2.057                        
 5702W        W12918   2.984   9.134   3.305                        
 5703W        W12919   2.491   0.688  11.347                        
 5704W        W12920   4.872   6.725  10.226                        
 5705W        W12921   4.309   9.698   3.575                        
 5706W        W12922   6.445  11.516   2.232                        
 5707W        W12923  11.277   5.358   1.231                        
 5708W        W12924   2.034  12.534   3.899                        
 5709W        W12925  11.736   0.930   3.843                        
 5710W        W12926   0.170   2.453   7.899                        
 5711W        W12927   0.114   3.247   3.348                        
 5712W        W12928   9.331   0.383  10.039                        
 5713W        W12929   2.485  11.960  11.881                        
 5714W        W12930   1.689   3.856  10.591                        
 5715W        W12931   0.664   1.699  10.804                        
 5716W        W12932   6.538   7.327  11.610                        
 5717W        W12933   0.333   5.120  10.298                        
 5718W        W12934   5.714  13.859  11.090                        
 5719W        W12935  10.372  13.611  10.480                        
 5720W        W12936   9.866  10.163  11.342                        
 5721W        W12937  13.105   7.031   0.689                        
 5722W        W12938  10.403   7.820   9.219                        
 5723W        W12939   5.450   0.449   2.048                        
 5724W        W12940  13.924   5.156   8.875                        
 5725W        W12941   0.952   3.283   1.757                        
 5726W        W12942  10.127   9.589   1.190                        
 5727W        W12943   0.913   5.987   3.319                        
 5728W        W12944   1.964   6.528   2.768                        
 5729W        W12945   6.253   6.003   7.910                        
 5730W        W12946   1.744   5.727  10.836                        
 5731W        W12947   8.318   6.466   0.464                        
 5732W        W12948  13.629  11.018   0.932                        
 5733W        W12949   3.030   1.976  10.292                        
 5734W        W12950  10.194   7.329   9.798                        
 5735W        W12951   8.887   1.749  10.589                        
 5736W        W12952  12.295   0.700   9.400                        
 5737W        W12953   5.719   2.448   0.084                        
 5738W        W12954   1.982   0.133   3.125                        
 5739W        W12955   0.077  11.007   0.090                        
 5740W        W12956   9.661  12.821  10.309                        
 5741W        W12957   4.600   6.986   8.630                        
 5742W        W12958  10.178   4.100   0.450                        
 5743W        W12959  13.611  11.172   8.944                        
 5744W        W12960   9.897  10.435  11.545                        
 5745W        W12961   5.474   8.792   8.194                        
 5746W        W12962   5.945   2.212   1.425                        
 5747W        W12963   4.662   4.093   1.997                        
 5748W        W12964   0.943  10.640   3.549                        
 5749W        W12965   8.804  10.931   2.811                        
 5750W        W12966  10.704   6.498   2.238                        
 5751W        W12967   9.867   0.190   2.532                        
 5752W        W12968   5.479   4.155  10.041                        
 5753W        W12969   8.117   2.490   1.681                        
 5754W        W12970   0.875  10.722   2.551                        
 5755W        W12971   5.894   8.338   2.228                        
 5756W        W12972   7.295   5.478  10.478                        
 5757W        W12973   6.208   2.188  10.307                        
 5758W        W12974   6.246   1.458   1.177                        
 5759W        W12975   2.821   2.279   9.164                        
 5760W        W12976  13.134   0.092   0.350                        
 5761W        W12977  11.998   6.154  11.322                        
 5762W        W12978   1.957   0.938  11.350                        
 5763W        W12979  13.365  12.587  10.581                        
 5764W        W12980   6.257   0.611   9.175                        
 5765W        W12981   3.590   6.486   0.393                        
 5766W        W12982   2.741   0.114   9.416                        
 5767W        W12983   1.414   5.446   2.773                        
 5768W        W12984  13.913   5.975  11.328                        
 5769W        W12985   6.690  12.232  10.235                        
 5770W        W12986   9.939   9.406   2.031                        
 5771W        W12987   2.822   8.827   3.036                        
 5772W        W12988   8.289   1.186  11.069                        
 5773W        W12989  11.782  13.856  10.523                        
 5774W        W12990  10.437   9.906  11.565                        
 5775W        W12991   3.081   4.352   2.300                        
 5776W        W12992   1.198  10.645   3.339                        
 5777W        W12993   4.857   5.202   1.428                        
 5778W        W12994   6.198   5.627  11.014                        
 5779W        W12995   5.991   3.621   2.768                        
 5780W        W12996   8.825   6.264   8.665                        
 5781W        W12997   3.839   3.790   2.481                        
 5782W        W12998   9.351   0.646  11.800                        
 5783W        W12999   2.234   0.646   3.277                        
 5784W        W13000   2.029   0.445   3.619                        
 5785W        W13001   5.466   0.957   0.707                        
 5786W        W13002   3.577  10.466   8.882                        
 5787W        W13003   8.524   1.989   1.166                        
 5788W        W13004   1.405   4.826   7.589                        
 5789W        W13005   2.725  12.071   1.463                        
 5790W        W13006   7.218   0.127  11.318                        
 5791W        W13007   4.366  13.124   0.613                        
 5792W        W13008   0.610   7.233   8.419                        
 5793W        W13009   7.514  11.735   8.643                        
 5794W        W13010   3.589   5.941   1.501                        
 5795W        W13011   9.386   2.567   3.627                        
 5796W        W13012   7.993   3.833   1.698                        
 5797W        W13013  13.932   6.454   8.106                        
 5798W        W13014   8.840   9.891   9.679                        
 5799W        W13015   5.087  12.038   1.752                        
 5800W        W13016   5.466  11.434   0.720                        
 5801W        W13017   9.385  13.102   3.865                        
 5802W        W13018  13.911   0.990   9.200                        
 5803W        W13019   6.157   1.768   2.805                        
 5804W        W13020   8.379   2.978   8.394                        
 5805W        W13021  13.619   9.610   7.567                        
 5806W        W13022   5.616   7.478  11.121                        
 5807W        W13023   9.369   7.805  10.278                        
 5808W        W13024  13.904   0.978  10.266                        
 5809W        W13025   5.672   9.651  11.873                        
 5810W        W13026  11.268   3.825  11.380                        
 5811W        W13027   5.646   8.326  11.899                        
 5812W        W13028   4.836   4.919   3.650                        
 5813W        W13029   9.577   5.155   8.942                        
 5814W        W13030   6.185  10.970   2.777                        
 5815W        W13031   4.050   9.651   0.142                        
 5816W        W13032   5.921   8.586   0.648                        
 5817W        W13033  12.589   5.201   2.765                        
 5818W        W13034   5.707   9.131  11.576                        
 5819W        W13035  11.507   7.243   1.740                        
 5820W        W13036   3.338   5.201   0.445                        
 5821W        W13037   5.366   3.299  11.354                        
 5822W        W13038   3.007   3.792   2.041                        
 5823W        W13039   6.705   2.036   2.807                        
 5824W        W13040   1.730   5.907   2.551                        
 5825W        W13041   0.331   2.496   0.908                        
 5826W        W13042   0.990   4.360   0.985                        
 5827W        W13043  10.133   4.334   0.340                        
 5828W        W13044   5.403   3.777  10.325                        
 5829W        W13045  11.435   9.179   8.651                        
 5830W        W13046  10.212   6.467   0.341                        
 5831W        W13047   3.576  10.143   1.991                        
 5832W        W13048   2.194   5.466  10.504                        
 5833W        W13049   5.196   4.086   0.876                        
 5834W        W13050  11.252   0.118  11.123                        
 5835W        W13051   0.982   8.809   2.737                        
 5836W        W13052   0.414   5.133  11.038                        
 5837W        W13053   4.904   2.013   8.940                        
 5838W        W13054  11.236   2.232   9.685                        
 5839W        W13055   2.264   3.246   1.952                        
 5840W        W13056  10.178  10.675   9.243                        
 5841W        W13057   0.176   9.692   0.908                        
 5842W        W13058  13.662  12.845   9.141                        
 5843W        W13059   0.719  12.780   9.506                        
 5844W        W13060  13.645   4.862   0.969                        
 5845W        W13061   4.576  10.491   9.137                        
 5846W        W13062  13.561  13.662   9.951                        
 5847W        W13063   8.074  10.173   8.716                        
 5848W        W13064   0.192   6.421   8.633                        
 5849W        W13065   4.608   4.937   2.057                        
 5850W        W13066   5.364  10.705   3.620                        
 5851W        W13067   4.582   7.555   2.230                        
 5852W        W13068   7.733   2.183   3.030                        
 5853W        W13069   0.123   9.622   8.137                        
 5854W        W13070  13.600  10.670  10.766                        
 5855W        W13071   8.532   0.670   9.414                        
 5856W        W13072   9.401   8.116   8.712                        
 5857W        W13073  11.694   3.072   0.726                        
 5858W        W13074   7.804   4.329   0.950                        
 5859W        W13075   9.080   5.407   8.336                        
 5860W        W13076   8.057   5.114   0.908                        
 5861W        W13077  12.245   7.251  10.473                        
 5862W        W13078  11.276  11.018  11.587                        
 5863W        W13079   6.798   7.790   3.652                        
 5864W        W13080   2.207   0.367   9.166                        
 5865W        W13081   0.953   2.522   0.158                        
 5866W        W13082  12.046  13.915   1.229                        
 5867W        W13083   9.856  12.481   8.427                        
 5868W        W13084   7.305   0.141  11.001                        
 5869W        W13085  10.114  13.622   0.154                        
 5870W        W13086  10.382  10.377   1.190                        
 5871W        W13087  10.369  11.797   1.681                        
 5872W        W13088   0.863   9.623   9.259                        
 5873W        W13089   0.680   1.763   8.140                        
 5874W        W13090  11.715   7.579  10.775                        
 5875W        W13091   8.261  12.608   0.694                        
 5876W        W13092   1.690   5.674   9.165                        
 5877W        W13093   6.208   8.299   8.358                        
 5878W        W13094  12.596   8.344   1.406                        
 5879W        W13095   1.783   5.890  11.379                        
 5880W        W13096  11.229   5.721  11.893                        
 5881W        W13097  11.457   1.698   2.831                        
 5882W        W13098  12.263  10.411   8.429                        
 5883W        W13099   3.527   7.576   1.478                        
 5884W        W13100   5.716   8.605   9.418                        
 5885W        W13101   8.647   3.526   0.642                        
 5886W        W13102  10.966   5.994   0.146                        
 5887W        W13103   4.641   9.670   3.606                        
 5888W        W13104   0.950   4.656   9.417                        
 5889W        W13105   3.081  10.695   0.408                        
 5890W        W13106   2.998   9.175   2.531                        
 5891W        W13107   8.884   1.424   3.030                        
 5892W        W13108   9.956   4.849   0.069                        
 5893W        W13109  10.385   2.263   0.454                        
 5894W        W13110   7.039   0.433   4.438                        
 5895W        W13111   0.597   3.311   2.828                        
 5896W        W13112   0.883   5.903   0.362                        
 5897W        W13113  13.049   7.199   8.439                        
 5898W        W13114  11.428   0.126   3.330                        
 5899W        W13115  12.334   1.135   0.110                        
 5900W        W13116  10.172   7.567   0.433                        
 5901W        W13117  11.469   7.847   3.580                        
 5902W        W13118   1.216   2.973   3.086                        
 5903W        W13119   9.922  12.545   9.789                        
 5904W        W13120   6.670   8.067   1.960                        
 5905W        W13121   2.982   6.748   0.978                        
 5906W        W13122   2.304  11.271   0.449                        
 5907W        W13123   1.179   6.689  10.577                        
 5908W        W13124   1.988   0.174   9.466                        
 5909W        W13125  12.751   4.868   7.877                        
 5910W        W13126   5.641   3.244  11.316                        
 5911W        W13127   0.944   2.240   1.984                        
 5912W        W13128  13.661   6.704   1.749                        
 5913W        W13129   3.255  11.232   9.221                        
 5914W        W13130   9.321   3.356   3.581                        
 5915W        W13131   0.651   2.229  11.576                        
 5916W        W13132   0.619  13.914   9.676                        
 5917W        W13133   4.410   7.731   0.434                        
 5918W        W13134   5.180   1.920  11.377                        
 5919W        W13135  13.302   5.158  11.038                        
 5920W        W13136   8.864   4.413   8.448                        
 5921W        W13137   4.068   8.799   2.212                        
 5922W        W13138   2.252   1.759   3.663                        
 5923W        W13139  10.900   1.763   0.661                        
 5924W        W13140   1.978  12.543   3.572                        
 5925W        W13141  12.534   4.344   0.397                        
 5926W        W13142   2.039  12.585   2.315                        
 5927W        W13143  11.767   6.700   1.711                        
 5928W        W13144   0.374   3.560  11.329                        
 5929W        W13145  13.842  13.863   8.673                        
 5930W        W13146  13.084   5.445   0.369                        
 5931W        W13147   1.775   0.913   4.367                        
 5932W        W13148   9.684  11.722   4.153                        
 5933W        W13149   2.524  11.168   1.767                        
 5934W        W13150   4.138   7.317   8.708                        
 5935W        W13151  11.501  11.701   3.632                        
 5936W        W13152   3.615   1.740   1.206                        
 5937W        W13153   7.556   6.972   1.795                        
 5938W        W13154   6.741   6.204   8.896                        
 5939W        W13155  11.811  12.841   2.516                        
 5940W        W13156   2.298   2.504  10.203                        
 5941W        W13157   5.437   3.252   3.386                        
 5942W        W13158  12.830   4.406   9.411                        
 5943W        W13159  13.606   7.739  11.020                        
 5944W        W13160   0.126   2.001   4.337                        
 5945W        W13161   6.764  13.041  11.044                        
 5946W        W13162   7.574   9.140  10.855                        
 5947W        W13163   4.618   9.441   8.910                        
 5948W        W13164   9.058   5.878   0.134                        
 5949W        W13165  13.388   2.181   2.332                        
 5950W        W13166   3.883   0.977  10.580                        
 5951W        W13167   5.450  10.426   0.892                        
 5952W        W13168   0.108   4.032   8.436                        
 5953W        W13169   2.017   3.338   0.664                        
 5954W        W13170   4.646   7.228   0.427                        
 5955W        W13171   0.933   2.777   9.443                        
 5956W        W13172   5.894  10.953   4.166                        
 5957W        W13173   6.725   5.457   0.723                        
 5958W        W13174   2.494   8.117   8.716                        
 5959W        W13175  10.384   4.131   2.831                        
 5960W        W13176   4.031  11.202   8.681                        
 5961W        W13177  10.734   4.567   3.081                        
 5962W        W13178   9.106   4.340  11.919                        
 5963W        W13179  10.198   3.087   0.914                        
 5964W        W13180   5.886   9.912   3.270                        
 5965W        W13181   8.835   9.068   0.430                        
 5966W        W13182   9.360   8.073  10.298                        
 5967W        W13183  10.166  12.550   8.962                        
 5968W        W13184   0.086   8.585   9.482                        
 5969W        W13185  11.501   6.427   9.698                        
 5970W        W13186  11.788  11.241   2.285                        
 5971W        W13187  13.299   1.457  11.866                        
 5972W        W13188  11.201   5.707   9.770                        
 5973W        W13189   6.256   1.389   3.880                        
 5974W        W13190  10.447   7.509   1.201                        
 5975W        W13191   8.644   9.603  10.259                        
 5976W        W13192   4.380  11.808   8.338                        
 5977W        W13193   2.540   8.530   1.236                        
 5978W        W13194   2.834   7.556   9.409                        
 5979W        W13195   0.660   2.192   0.633                        
 5980W        W13196   7.770  12.591  10.273                        
 5981W        W13197   6.730   0.340   8.657                        
 5982W        W13198  13.337   0.640  11.811                        
 5983W        W13199   0.423   0.926   8.653                        
 5984W        W13200   3.838  10.400   9.794                        
 5985W        W13201  11.696   9.069   9.682                        
 5986W        W13202   8.818  10.416   2.557                        
 5987W        W13203   3.798  13.648   0.464                        
 5988W        W13204  10.454   3.011  10.499                        
 5989W        W13205   9.942   3.238   0.630                        
 5990W        W13206  11.524   1.165   3.869                        
 5991W        W13207   8.823   9.614  11.061                        
 5992W        W13208  13.833   6.995   0.642                        
 5993W        W13209   7.590   3.620  10.514                        
 5994W        W13210   1.978   9.884   2.524                        
 5995W        W13211   8.899   0.428   1.137                        
 5996W        W13212   3.888   6.742  11.057                        
 5997W        W13213   9.622   3.889   1.206                        
 5998W        W13214  11.474   2.219   0.141                        
 5999W        W13215   5.099  11.724   1.470                        
 6000W        W13216  10.676   6.220   3.387                        
 6001W        W13217   0.352  13.627   9.727                        
 6002W        W13218   9.971   8.523   8.678                        
 6003W        W13219   3.843   2.250   1.741                        
 6004W        W13220   7.496   1.929   8.902                        
 6005W        W13221   5.378   0.695   2.584                        
 6006W        W13222  10.744   5.664   2.520                        
 6007W        W13223   5.984   5.643   1.498                        
 6008W        W13224   5.107   8.338  11.662                        
 6009W        W13225   0.094   2.202   9.473                        
 6010W        W13226  12.539   2.562  10.273                        
 6011W        W13227   9.072  13.380  11.580                        
 6012W        W13228  10.965  10.378  10.213                        
 6013W        W13229  11.465   0.119   8.432                        
 6014W        W13230   0.623   9.900   9.421                        
 6015W        W13231  10.669   0.344  11.919                        
 6016W        W13232   2.478   8.346   1.740                        
 6017W        W13233   1.712  12.043   9.181                        
 6018W        W13234   1.754   2.014   0.073                        
 6019W        W13235   9.328   8.784   8.458                        
 6020W        W13236   8.052  11.963   4.155                        
 6021W        W13237  10.656   2.282   2.487                        
 6022W        W13238   4.355   0.394   3.609                        
 6023W        W13239   7.479   3.784   9.669                        
 6024W        W13240   5.458   8.816   3.274                        
 6025W        W13241   9.962   2.191   9.425                        
 6026W        W13242   7.579   4.857   1.484                        
 6027W        W13243  10.194   0.649   3.290                        
 6028W        W13244  12.310  13.654   9.767                        
 6029W        W13245  11.160   3.894   0.875                        
 6030W        W13246  13.324   1.723   7.840                        
 6031W        W13247   6.955   2.180   9.502                        
 6032W        W13248   5.627  13.276   8.953                        
 6033W        W13249   1.713   6.143   9.136                        
 6034W        W13250  11.242  13.824   3.085                        
 6035W        W13251   9.919  11.695   0.903                        
 6036W        W13252  12.516  12.334  11.282                        
 6037W        W13253   5.092   7.575   9.719                        
 6038W        W13254   3.294   7.491   9.728                        
 6039W        W13255  13.333  11.977   1.994                        
 6040W        W13256   9.899   6.708   9.774                        
 6041W        W13257   0.441  10.423   1.210                        
 6042W        W13258   0.717   8.581   0.649                        
 6043W        W13259   5.389  11.967   0.137                        
 6044W        W13260   6.725   4.884   3.387                        
 6045W        W13261  13.059   1.667   0.662                        
 6046W        W13262   1.929   0.899   2.769                        
 6047W        W13263  10.634   7.756   1.738                        
 6048W        W13264   1.203   0.612   8.640                        
 6049W        W13265   4.654   5.931  10.587                        
 6050W        W13266   0.914  10.674   9.409                        
 6051W        W13267   8.286   3.627   1.670                        
 6052W        W13268  13.619   7.546   0.602                        
 6053W        W13269   6.162   3.312   9.165                        
 6054W        W13270  13.617   1.467   9.424                        
 6055W        W13271   1.167  10.180   1.989                        
 6056W        W13272   5.474   5.213   2.507                        
 6057W        W13273   0.714   9.112   1.527                        
 6058W        W13274  13.088   1.456   2.784                        
 6059W        W13275   2.797   2.781   9.789                        
 6060W        W13276  11.772  12.547   4.108                        
 6061W        W13277   0.447   4.907   3.640                        
 6062W        W13278   0.870  10.691   8.868                        
 6063W        W13279   6.273   8.030   2.327                        
 6064W        W13280  13.820   5.703   9.173                        
 6065W        W13281  10.638   8.313   0.193                        
 6066W        W13282   6.158   0.142   9.732                        
 6067W        W13283   0.986   3.858   1.704                        
 6068W        W13284   8.317  12.819   0.342                        
 6069W        W13285  10.950  10.428   2.304                        
 6070W        W13286  12.553  11.518   3.651                        
 6071W        W13287   1.676  13.387   1.786                        
 6072W        W13288   9.440   6.935   1.419                        
 6073W        W13289   7.592   8.098   3.015                        
 6074W        W13290   3.879   4.902   1.239                        
 6075W        W13291   6.735   0.680  10.283                        
 6076W        W13292  13.836   0.929   0.953                        
 6077W        W13293   5.998   2.201   2.787                        
 6078W        W13294   9.068  10.467   1.154                        
 6079W        W13295  13.346   8.057  11.597                        
 6080W        W13296  10.696   1.946  11.925                        
 6081W        W13297  10.410   0.098  11.267                        
 6082W        W13298   4.041   9.316   1.718                        
 6083W        W13299  13.074   9.403   9.449                        
 6084W        W13300  10.972   8.078  10.496                        
 6085W        W13301  12.240   4.114   8.334                        
 6086W        W13302   5.985  12.575   8.626                        
 6087W        W13303   2.799   0.067   7.548                        
 6088W        W13304   4.868   9.410   2.031                        
 6089W        W13305   5.653   6.703   1.669                        
 6090W        W13306  12.019  11.245  11.807                        
 6091W        W13307  12.024  13.024   0.157                        
 6092W        W13308   9.895   8.592   8.416                        
 6093W        W13309   0.333   7.846   8.448                        
 6094W        W13310   6.731   9.405  10.553                        
 6095W        W13311  12.263   2.496   9.143                        
 6096W        W13312  11.767   6.780   8.654                        
 6097W        W13313  13.849  11.476   8.146                        
 6098W        W13314  12.030   0.449   8.644                        
 6099W        W13315  11.248  12.809   3.072                        
 6100W        W13316   5.711   6.796   3.122                        
 6101W        W13317   7.311   8.532   1.965                        
 6102W        W13318   6.672   0.708   8.197                        
 6103W        W13319  13.350  13.929   2.030                        
 6104W        W13320   6.224  12.335   2.266                        
 6105W        W13321  10.739   5.666   3.626                        
 6106W        W13322   6.773  13.327   9.490                        
 6107W        W13323   4.951   4.947   2.585                        
 6108W        W13324  13.919   0.443   2.259                        
 6109W        W13325   5.408   1.452   9.204                        
 6110W        W13326  10.457  13.803   9.491                        
 6111W        W13327   4.376  11.790   8.995                        
 6112W        W13328   7.800   0.622   9.419                        
 6113W        W13329   4.924   0.702   3.054                        
 6114W        W13330   5.687   0.436   0.699                        
 6115W        W13331   3.506   1.173   1.687                        
 6116W        W13332  11.500   7.290   0.387                        
 6117W        W13333   0.170   9.178  11.025                        
 6118W        W13334  10.374  13.374   0.151                        
 6119W        W13335   0.981  11.436   3.360                        
 6120W        W13336   6.757   3.045   3.571                        
 6121W        W13337  13.629  11.228   8.692                        
 6122W        W13338   7.483   8.820   9.421                        
 6123W        W13339   2.265   0.412   9.444                        
 6124W        W13340   8.588   0.940  11.624                        
 6125W        W13341  13.863   3.046  10.036                        
 6126W        W13342  12.516  10.456   9.444                        
 6127W        W13343   8.620   2.721  10.224                        
 6128W        W13344   0.657   0.659   2.741                        
 6129W        W13345   7.730  12.544   3.318                        
 6130W        W13346  13.276   1.977   1.403                        
 6131W        W13347  10.378  12.017   9.499                        
 6132W        W13348   9.336   5.963   9.750                        
 6133W        W13349   0.162   3.781   2.321                        
 6134W        W13350   8.280   8.004   3.372                        
 6135W        W13351   7.746   4.664   0.730                        
 6136W        W13352  13.099  12.746   9.976                        
 6137W        W13353   9.697  13.310  11.847                        
 6138W        W13354   9.595  13.812   8.346                        
 6139W        W13355   1.134   6.150  11.369                        
 6140W        W13356   2.275   6.759  10.552                        
 6141W        W13357  12.311   8.800   0.443                        
 6142W        W13358   4.639   1.427   8.389                        
 6143W        W13359   5.368   7.286   2.476                        
 6144W        W13360   3.068   5.998   1.479                        
 6145W        W13361   8.026  11.692   8.903                        
 6146W        W13362   6.167   8.255   3.584                        
 6147W        W13363   1.654   3.500  10.022                        
 6148W        W13364  11.992   8.360  11.546                        
 6149W        W13365   5.171  10.171   1.746                        
 6150W        W13366   4.560   5.424   3.835                        
 6151W        W13367   1.721   3.333   9.767                        
 6152W        W13368   6.247   0.392   8.914                        
 6153W        W13369  13.021  12.871   0.985                        
 6154W        W13370  11.816   7.302   3.545                        
 6155W        W13371   8.040   1.734  11.280                        
 6156W        W13372  13.627   8.785  10.589                        
 6157W        W13373  11.735  10.495   0.400                        
 6158W        W13374   0.406  13.883   8.424                        
 6159W        W13375   9.849  10.412   1.979                        
 6160W        W13376   8.363  13.582   3.103                        
 6161W        W13377   2.498   9.882  11.026                        
 6162W        W13378   8.540   2.743  11.874                        
 6163W        W13379   7.534   9.371   3.010                        
 6164W        W13380   0.416   7.306   0.448                        
 6165W        W13381  13.809  11.185   1.982                        
 6166W        W13382   1.154   2.724   9.466                        
 6167W        W13383   8.324  11.961   9.471                        
 6168W        W13384   2.515  10.205   2.273                        
 6169W        W13385   2.725   0.377   9.428                        
 6170W        W13386  11.226   6.411   0.974                        
 6171W        W13387  11.549  12.746   9.430                        
 6172W        W13388  11.817  10.129  11.655                        
 6173W        W13389   4.356   6.176  11.617                        
 6174W        W13390  13.111   8.276  10.499                        
 6175W        W13391   7.233   9.069  10.529                        
 6176W        W13392  12.010  12.056   0.681                        
 6177W        W13393  13.877  12.488   2.280                        
 6178W        W13394  11.734  12.768   0.182                        
 6179W        W13395   2.547  13.891  10.570                        
 6180W        W13396  13.624  10.494   3.029                        
 6181W        W13397   9.333   9.361   8.883                        
 6182W        W13398   1.722  10.654  10.588                        
 6183W        W13399   7.589   2.244   1.487                        
 6184W        W13400   7.542   9.615  10.534                        
 6185W        W13401   5.670   0.073   8.875                        
 6186W        W13402   3.551   8.600   7.874                        
 6187W        W13403   2.449   2.297  11.109                        
 6188W        W13404  10.737   0.685   2.798                        
 6189W        W13405   2.760   0.720   1.175                        
 6190W        W13406   7.547   8.596   0.952                        
 6191W        W13407  13.024   9.879   1.444                        
 6192W        W13408  11.184   7.007   0.185                        
 6193W        W13409   3.238  12.015   3.292                        
 6194W        W13410   2.270  10.753   8.347                        
 6195W        W13411  10.137   5.648  11.563                        
 6196W        W13412   9.059   3.055   3.372                        
 6197W        W13413   2.575   7.846   9.426                        
 6198W        W13414   0.716  12.579   8.638                        
 6199W        W13415   4.061   9.148  11.376                        
 6200W        W13416   3.510   5.970   9.993                        
 6201W        W13417   3.055   4.917   7.822                        
 6202W        W13418   7.763  11.452   1.941                        
 6203W        W13419  10.674  10.758   8.895                        
 6204W        W13420  11.467   7.831  10.025                        
 6205W        W13421   6.974   6.432   9.162                        
 6206W        W13422   8.605   1.479   2.745                        
 6207W        W13423  10.451   0.931  11.351                        
 6208W        W13424  13.110   8.074   9.793                        
 6209W        W13425   0.975   0.168   9.484                        
 6210W        W13426   0.714   8.541   3.618                        
 6211W        W13427   4.314   3.049  10.268                        
 6212W        W13428   5.363   0.446   1.777                        
 6213W        W13429   7.832   4.931  10.563                        
 6214W        W13430  12.610   8.535   8.345                        
 6215W        W13431   1.968   5.658  10.288                        
 6216W        W13432   9.090   4.296   8.445                        
 6217W        W13433   8.384  11.787   3.008                        
 6218W        W13434   0.895   8.080   2.236                        
 6219W        W13435  11.490   1.489  10.562                        
 6220W        W13436   5.138   1.156   3.595                        
 6221W        W13437  13.313  11.790   9.140                        
 6222W        W13438   3.568   9.931   1.405                        
 6223W        W13439   7.835  13.928  10.507                        
 6224W        W13440   8.583   7.522   8.901                        
 6225W        W13441   1.926  13.307  10.473                        
 6226W        W13442  10.991   2.253   3.583                        
 6227W        W13443   8.528   6.980   2.214                        
 6228W        W13444   1.778   3.605  11.388                        
 6229W        W13445  12.758   5.089   4.075                        
 6230W        W13446  10.230   2.736   0.969                        
 6231W        W13447   1.223   1.733   0.097                        
 6232W        W13448   5.928   5.964   0.878                        
 6233W        W13449  12.305  10.481  11.046                        
 6234W        W13450   3.258   0.672  11.389                        
 6235W        W13451   0.394   5.711   8.680                        
 6236W        W13452  10.900  11.441   0.069                        
 6237W        W13453   6.727   6.978  11.557                        
 6238W        W13454  13.643  10.381   2.799                        
 6239W        W13455   6.188   9.419   9.187                        
 6240W        W13456   1.471   2.208   9.990                        
 6241W        W13457   2.775   8.594   3.555                        
 6242W        W13458  12.044  13.664   1.771                        
 6243W        W13459   2.487   0.612   0.672                        
 6244W        W13460   9.949   3.593   0.352                        
 6245W        W13461   6.981   3.255   1.724                        
 6246W        W13462   6.937   9.438  10.207                        
 6247W        W13463   1.220  13.838   0.409                        
 6248W        W13464  10.654   0.439   0.890                        
 6249W        W13465   8.897   0.937   3.637                        
 6250W        W13466   2.731   0.968   0.143                        
 6251W        W13467   0.597   9.912  10.278                        
 6252W        W13468   8.272   7.208  10.298                        
 6253W        W13469   4.351   9.420  10.582                        
 6254W        W13470   9.657  13.910   8.933                        
 6255W        W13471   8.582  13.647   1.493                        
 6256W        W13472  13.650   9.850   2.045                        
 6257W        W13473  12.869   3.866  10.511                        
 6258W        W13474   7.562   1.679   8.621                        
 6259W        W13475   0.648  13.371   0.731                        
 6260W        W13476  13.652   6.730   9.680                        
 6261W        W13477   2.530  13.599  11.918                        
 6262W        W13478   3.270   3.818   0.144                        
 6263W        W13479   4.385   3.596   3.813                        
 6264W        W13480   7.004   4.315   1.173                        
 6265W        W13481   8.051   0.604  11.272                        
 6266W        W13482   4.331   6.792   2.499                        
 6267W        W13483  12.825   2.199   8.924                        
 6268W        W13484   5.354   4.896   2.048                        
 6269W        W13485   9.120  12.289   3.652                        
 6270W        W13486   0.352   7.255   9.945                        
 6271W        W13487   2.727   7.309   8.453                        
 6272W        W13488   2.835   6.754   3.399                        
 6273W        W13489  10.431   5.714   9.159                        
 6274W        W13490   7.819   9.941   3.295                        
 6275W        W13491   6.463   4.929   8.409                        
 6276W        W13492   1.168   5.665   0.350                        
 6277W        W13493  12.778  13.091   2.586                        
 6278W        W13494   4.057   3.839   9.725                        
 6279W        W13495   0.651   0.123   0.098                        
 6280W        W13496  11.789   8.846  11.363                        
 6281W        W13497   4.952   3.773  11.891                        
 6282W        W13498  13.077  12.300   8.679                        
 6283W        W13499  11.165   4.088   1.143                        
 6284W        W13500   4.303   9.373  11.640                        
 6285W        W13501   3.328  13.123  10.251                        
 6286W        W13502   2.779   3.572  10.262                        
 6287W        W13503  11.524   5.740   2.819                        
 6288W        W13504   3.845   3.502   9.441                        
 6289W        W13505   0.602   5.141  10.586                        
 6290W        W13506  10.493   4.938   3.332                        
 6291W        W13507   5.996   5.661   4.082                        
 6292W        W13508   9.324   0.604   3.041                        
 6293W        W13509   1.189   4.379   8.717                        
 6294W        W13510   0.191  11.523  10.830                        
 6295W        W13511  12.242  10.190   1.979                        
 6296W        W13512   2.554  13.061   2.292                        
 6297W        W13513   3.834   6.486  11.897                        
 6298W        W13514  12.608  11.000   3.078                        
 6299W        W13515  10.115   0.596   0.091                        
 6300W        W13516  10.940   0.653   9.445                        
 6301W        W13517   1.921   5.428   1.482                        
 6302W        W13518   8.273   9.315   1.437                        
 6303W        W13519   9.681  12.786  10.818                        
 6304W        W13520   4.605  13.138   3.594                        
 6305W        W13521   6.473   3.585  11.085                        
 6306W        W13522  11.277   6.163   0.985                        
 6307W        W13523   2.284   4.647   9.178                        
 6308W        W13524  11.463   9.921   1.783                        
 6309W        W13525  11.793   8.876   3.331                        
 6310W        W13526   8.890   4.840   2.545                        
 6311W        W13527   6.985  12.865  11.362                        
 6312W        W13528   7.787   6.506   7.887                        
 6313W        W13529  11.511   7.275  10.597                        
 6314W        W13530   0.932   9.316   2.572                        
 6315W        W13531   9.414   8.827   9.430                        
 6316W        W13532   8.832   0.675   0.386                        
 6317W        W13533   3.797   5.916   8.967                        
 6318W        W13534   6.409   8.116  11.804                        
 6319W        W13535  12.245  11.230   8.680                        
 6320W        W13536   6.946   8.069  10.864                        
 6321W        W13537   5.926   3.576   9.673                        
 6322W        W13538  10.113   4.393   8.619                        
 6323W        W13539   8.535   6.144   9.418                        
 6324W        W13540   8.546  10.149   1.983                        
 6325W        W13541   9.654   4.607  11.130                        
 6326W        W13542  13.881  13.076   2.262                        
 6327W        W13543   9.371  10.912   0.176                        
 6328W        W13544   4.044  12.273   0.100                        
 6329W        W13545   8.879   4.137   8.890                        
 6330W        W13546  13.826  11.538   2.054                        
 6331W        W13547   5.455   1.414  10.788                        
 6332W        W13548   8.043  11.959   2.332                        
 6333W        W13549   9.147   2.781   0.077                        
 6334W        W13550   6.508   1.404  11.892                        
 6335W        W13551   4.602  12.302  11.390                        
 6336W        W13552   4.094  10.990   8.966                        
 6337W        W13553   8.847   1.758   9.953                        
 6338W        W13554   7.857  13.282   2.249                        
 6339W        W13555   1.685   7.288  11.602                        
 6340W        W13556   5.922   0.875  10.478                        
 6341W        W13557   1.969  13.081  11.088                        
 6342W        W13558   9.382   0.610   9.260                        
 6343W        W13559   7.509   9.691   1.936                        
 6344W        W13560   5.365  10.114   9.743                        
 6345W        W13561   1.128   8.560   0.689                        
 6346W        W13562   3.085   7.270   9.950                        
 6347W        W13563  13.300   1.762   8.713                        
 6348W        W13564  10.452   2.257  10.020                        
 6349W        W13565  13.135   9.155   9.488                        
 6350W        W13566  13.597  11.513  11.578                        
 6351W        W13567   0.341   8.592   8.424                        
 6352W        W13568   5.980   8.364  10.215                        
 6353W        W13569   6.189  13.933  11.106                        
 6354W        W13570  13.286  12.768   2.477                        
 6355W        W13571   9.431  11.721   9.244                        
 6356W        W13572   4.660   7.475   0.667                        
 6357W        W13573   8.598   2.199   9.509                        
 6358W        W13574  10.937  12.612   9.518                        
 6359W        W13575  13.549   7.473  11.279                        
 6360W        W13576   0.626  11.015   1.694                        
 6361W        W13577  10.756   1.767   3.030                        
 6362W        W13578  11.995  10.954   9.487                        
 6363W        W13579   7.012  11.240   9.960                        
 6364W        W13580   7.211   3.587   2.494                        
 6365W        W13581   2.202  12.341  10.755                        
 6366W        W13582   9.683  12.818   7.806                        
 6367W        W13583  13.403  13.839   9.972                        
 6368W        W13584   1.931   3.881  11.629                        
 6369W        W13585   8.109  10.989   9.205                        
 6370W        W13586  12.573   1.675  11.024                        
 6371W        W13587  11.540   9.395   2.751                        
 6372W        W13588   4.670   8.621   1.188                        
 6373W        W13589  10.949   3.333   8.975                        
 6374W        W13590  13.827   3.101   0.709                        
 6375W        W13591   6.961   0.434   3.399                        
 6376W        W13592   8.083   9.580   2.513                        
 6377W        W13593   1.193   8.588   2.791                        
 6378W        W13594   6.712   5.639   3.644                        
 6379W        W13595   3.099  11.690   9.237                        
 6380W        W13596   1.688  10.955   9.238                        
 6381W        W13597   8.519  10.669   3.313                        
 6382W        W13598  11.699   7.581   1.671                        
 6383W        W13599  13.549   1.977   1.461                        
 6384W        W13600   0.121   9.111   8.359                        
 6385W        W13601   1.227  13.811   0.720                        
 6386W        W13602  10.477   5.643   8.082                        
 6387W        W13603   2.802  12.816  10.327                        
 6388W        W13604  13.602  13.830  10.296                        
 6389W        W13605   1.748  10.640   0.383                        
 6390W        W13606   0.722   9.139   3.624                        
 6391W        W13607   1.961   2.801   3.336                        
 6392W        W13608   8.874  13.549  11.351                        
 6393W        W13609  13.609   9.345   8.720                        
 6394W        W13610   5.373   5.879   1.776                        
 6395W        W13611   2.492  12.506   1.240                        
 6396W        W13612   7.540   1.453   1.165                        
 6397W        W13613   7.043  12.869   9.684                        
 6398W        W13614   4.110   5.157   3.313                        
 6399W        W13615  13.090   6.522   9.419                        
 6400W        W13616   1.744  12.008  11.817                        
 6401W        W13617  13.852   4.103   8.422                        
 6402W        W13618   2.782   3.502   2.813                        
 6403W        W13619  12.040   3.848   0.621                        
 6404W        W13620   1.448   3.777   8.633                        
 6405W        W13621   7.586   1.689   1.669                        
 6406W        W13622   3.510   5.091   0.692                        
 6407W        W13623  10.732   9.392  10.774                        
 6408W        W13624  13.079  11.001   8.958                        
 6409W        W13625   2.297   4.079  10.475                        
 6410W        W13626   0.189   2.289  11.015                        
 6411W        W13627  13.632   6.233  10.255                        
 6412W        W13628  11.540   4.626   1.719                        
 6413W        W13629   0.094   2.710   9.407                        
 6414W        W13630   1.743   2.295   2.756                        
 6415W        W13631   3.320   5.159  10.467                        
 6416W        W13632  13.035   1.727   7.898                        
 6417W        W13633   4.121  13.375   0.407                        
 6418W        W13634  13.879   0.912  11.638                        
 6419W        W13635   7.017  12.318   1.794                        
 6420W        W13636  13.301  11.440   3.056                        
 6421W        W13637   8.367  12.585   2.261                        
 6422W        W13638  10.733   8.088   0.451                        
 6423W        W13639   3.019   6.796   9.453                        
 6424W        W13640   3.267   0.384   8.895                        
 6425W        W13641   4.594   9.876   8.124                        
 6426W        W13642   0.455   9.587   3.116                        
 6427W        W13643  13.316  13.380  11.884                        
 6428W        W13644   3.553   2.452  10.845                        
 6429W        W13645   7.319   2.215   2.260                        
 6430W        W13646   0.638  10.709   2.566                        
 6431W        W13647   3.074  13.896   1.460                        
 6432W        W13648  12.050   0.105   9.513                        
 6433W        W13649   8.265   1.168  10.245                        
 6434W        W13650  11.010  11.279  11.905                        
 6435W        W13651  11.978  13.289   1.153                        
 6436W        W13652   7.848  13.288  11.860                        
 6437W        W13653   1.972   5.461   9.141                        
 6438W        W13654  10.922   4.878   2.540                        
 6439W        W13655  12.858  13.802  11.316                        
 6440W        W13656   4.643   0.185   0.338                        
 6441W        W13657   4.588   8.865   3.559                        
 6442W        W13658   9.655   8.339   0.462                        
 6443W        W13659   0.684  10.200   0.162                        
 6444W        W13660   9.698   2.753   8.936                        
 6445W        W13661   9.865   5.972   1.486                        
 6446W        W13662   7.561  10.980   2.774                        
 6447W        W13663   7.291  13.547   0.703                        
 6448W        W13664   0.167   7.023   9.948                        
 6449W        W13665  13.658  12.306   9.506                        
 6450W        W13666   0.864   1.988   9.420                        
 6451W        W13667   8.344  13.083   3.863                        
 6452W        W13668   1.748  10.661   2.814                        
 6453W        W13669   4.303   0.111   2.325                        
 6454W        W13670   8.335   8.895   2.846                        
 6455W        W13671   2.764   3.018   1.423                        
 6456W        W13672   5.463   0.866   0.090                        
 6457W        W13673   7.271  11.807  11.028                        
 6458W        W13674  11.202  12.764  11.279                        
 6459W        W13675  10.150   7.992   2.330                        
 6460W        W13676   4.914   0.866   1.490                        
 6461W        W13677  13.116   0.953   3.345                        
 6462W        W13678   5.180  11.208  10.057                        
 6463W        W13679   5.681  11.492   0.973                        
 6464W        W13680   3.068   3.311   2.836                        
 6465W        W13681   6.223   1.390   0.988                        
 6466W        W13682   4.371  11.726  11.284                        
 6467W        W13683   9.871  11.532   1.158                        
 6468W        W13684   5.722  13.914   8.357                        
 6469W        W13685  12.581  10.758   9.498                        
 6470W        W13686   6.415   4.393  10.533                        
 6471W        W13687   4.379   2.271   0.912                        
 6472W        W13688  10.111   3.528   0.153                        
 6473W        W13689   8.838   8.057   9.197                        
 6474W        W13690   1.734   7.231   8.688                        
 6475W        W13691   1.919   6.269   3.296                        
 6476W        W13692   6.773   7.826   4.166                        
 6477W        W13693   5.092   5.210   1.239                        
 6478W        W13694   5.966   0.344   8.446                        
 6479W        W13695  11.986  12.817   0.366                        
 6480W        W13696   7.256   8.097   3.028                        
 6481W        W13697   9.364   3.239   8.355                        
 6482W        W13698   0.916   0.944   8.887                        
 6483W        W13699   4.057  13.871   2.803                        
 6484W        W13700  13.363  11.284   1.466                        
 6485W        W13701   1.482   5.981   3.119                        
 6486W        W13702   9.861   4.842   0.449                        
 6487W        W13703  13.565   6.480   7.895                        
 6488W        W13704   0.898   4.575   0.423                        
 6489W        W13705   6.143   6.489  10.483                        
 6490W        W13706   4.417   4.415  11.845                        
 6491W        W13707   2.801   9.358   1.721                        
 6492W        W13708   7.215  13.382  11.621                        
 6493W        W13709   4.567  13.573  10.481                        
 6494W        W13710   2.245   8.266   4.402                        
 6495W        W13711  12.044   4.363   0.426                        
 6496W        W13712   3.318   8.858  11.048                        
 6497W        W13713   3.011  10.406   2.787                        
 6498W        W13714  12.504   9.848   3.905                        
 6499W        W13715   5.722   3.091  10.508                        
 6500W        W13716   2.228   1.949   0.119                        
 6501W        W13717   3.010   9.643   0.428                        
 6502W        W13718   8.544  13.111   8.951                        
 6503W        W13719   9.857   9.118   2.296                        
 6504W        W13720   2.753   5.392   4.109                        
 6505W        W13721  13.580   9.703   3.630                        
 6506W        W13722   4.857   7.569   2.050                        
 6507W        W13723  13.650   0.669   3.614                        
 6508W        W13724   1.728  13.021   7.914                        
 6509W        W13725  11.198   7.065   2.325                        
 6510W        W13726   6.199   7.744   4.422                        
 6511W        W13727   5.645   2.181   1.249                        
 6512W        W13728  13.854   4.668   7.564                        
 6513W        W13729   7.224   5.435   2.202                        
 6514W        W13730   9.851   7.261   1.971                        
 6515W        W13731  13.641  13.121   2.821                        
 6516W        W13732  13.037   5.188   0.874                        
 6517W        W13733   0.343   3.617   1.256                        
 6518W        W13734   5.124   6.698   9.485                        
 6519W        W13735  11.235   1.450   2.230                        
 6520W        W13736   3.287   4.599   9.937                        
 6521W        W13737   5.100   8.803   8.949                        
 6522W        W13738  13.330   5.974   3.089                        
 6523W        W13739  13.301   6.188   0.705                        
 6524W        W13740   5.653   5.987   0.919                        
 6525W        W13741   5.451   2.821   8.454                        
 6526W        W13742   9.600   5.960  10.856                        
 6527W        W13743   3.309  12.859   1.672                        
 6528W        W13744   2.047   1.508   8.699                        
 6529W        W13745   0.723  13.284   9.161                        
 6530W        W13746  12.036   2.263   0.083                        
 6531W        W13747   1.663   8.304   2.541                        
 6532W        W13748   1.723  10.208   3.005                        
 6533W        W13749   3.517   1.746   0.466                        
 6534W        W13750   4.367   0.331   3.820                        
 6535W        W13751   6.801   0.451   8.125                        
 6536W        W13752   8.277   9.618   9.164                        
 6537W        W13753   9.699   0.671   8.132                        
 6538W        W13754   7.506   5.087  11.918                        
 6539W        W13755   2.007  11.759   3.371                        
 6540W        W13756  13.615   5.685   9.753                        
 6541W        W13757   6.453  10.191   0.447                        
 6542W        W13758   7.767  12.267   0.882                        
 6543W        W13759   0.627   6.254   3.318                        
 6544W        W13760   7.248  12.874   9.206                        
 6545W        W13761   6.797  10.926   4.192                        
 6546W        W13762   7.501  10.747  11.372                        
 6547W        W13763   4.036   5.664   7.607                        
 6548W        W13764  12.220   3.021   8.706                        
 6549W        W13765   6.222   9.853   9.680                        
 6550W        W13766   9.315   1.204   1.470                        
 6551W        W13767   0.876  13.657   8.368                        
 6552W        W13768   8.315   0.139  10.476                        
 6553W        W13769  13.372   1.177   1.196                        
 6554W        W13770   0.406  12.566   1.451                        
 6555W        W13771   0.605  12.795  10.862                        
 6556W        W13772   9.677   8.379   2.772                        
 6557W        W13773   8.889   5.638   0.183                        
 6558W        W13774   1.988   3.059   1.792                        
 6559W        W13775  11.168   2.527   1.683                        
 6560W        W13776   3.236   5.684   3.012                        
 6561W        W13777   5.164   3.266   1.681                        
 6562W        W13778   2.207   4.378  10.284                        
 6563W        W13779  12.572  10.648   0.916                        
 6564W        W13780   6.715  11.787   1.748                        
 6565W        W13781  13.304  11.982   1.140                        
 6566W        W13782   4.897  10.939  10.775                        
 6567W        W13783   8.898   6.797   2.582                        
 6568W        W13784   8.886   3.268   2.275                        
 6569W        W13785   1.722   5.935   1.954                        
 6570W        W13786  13.047   1.656   1.184                        
 6571W        W13787  10.677   7.016   8.451                        
 6572W        W13788   1.751   6.720  10.835                        
 6573W        W13789   8.569   8.854   0.138                        
 6574W        W13790  12.224  11.433   8.686                        
 6575W        W13791  12.306   9.892   9.400                        
 6576W        W13792  13.810   4.953  10.565                        
 6577W        W13793   8.057  12.261   2.594                        
 6578W        W13794   9.391  13.083   0.724                        
 6579W        W13795   9.131   3.818   2.520                        
 6580W        W13796   7.052  13.659   8.957                        
 6581W        W13797  13.071   4.828   0.730                        
 6582W        W13798   4.871  11.708   0.878                        
 6583W        W13799  10.167   6.683   8.704                        
 6584W        W13800   9.426   8.870   8.699                        
 6585W        W13801  10.406  13.620   9.191                        
 6586W        W13802  12.764   5.097   8.667                        
 6587W        W13803   2.268  13.542  10.008                        
 6588W        W13804   8.280   7.997   8.113                        
 6589W        W13805   4.126  13.321   1.452                        
 6590W        W13806   9.313  12.827  10.225                        
 6591W        W13807  13.632   8.309   3.091                        
 6592W        W13808   0.620  13.639   1.188                        
 6593W        W13809   6.985   9.141  11.030                        
 6594W        W13810   8.563   9.903   8.423                        
 6595W        W13811   7.791  12.811   4.173                        
 6596W        W13812   5.088  10.715   8.898                        
 6597W        W13813   1.708   8.067  11.097                        
 6598W        W13814   9.312   0.454   2.554                        
 6599W        W13815   5.652  10.398  10.768                        
 6600W        W13816  11.009   3.045   8.984                        
 6601W        W13817  12.011   8.264   3.378                        
 6602W        W13818  10.955  10.369   0.071                        
 6603W        W13819   5.121   7.556   0.339                        
 6604W        W13820  11.745   2.548   2.029                        
 6605W        W13821  10.450   9.144   2.215                        
 6606W        W13822  13.668   1.460  10.026                        
 6607W        W13823   8.031   9.161  10.308                        
 6608W        W13824   4.068   2.463   0.898                        
 6609W        W13825   1.772   9.145   0.407                        
 6610W        W13826   0.100  12.063   2.489                        
 6611W        W13827   2.563   3.629  11.896                        
 6612W        W13828   6.263  10.386   9.726                        
 6613W        W13829   5.644  11.809   3.603                        
 6614W        W13830   8.586  10.395  10.230                        
 6615W        W13831   8.048   6.761  10.243                        
 6616W        W13832   4.640  11.985   8.388                        
 6617W        W13833  13.599   8.586   2.253                        
 6618W        W13834   4.030   8.264  10.598                        
 6619W        W13835   5.087  10.928  10.564                        
 6620W        W13836   5.885   1.975   3.556                        
 6621W        W13837   1.236   9.325   9.706                        
 6622W        W13838   0.372   8.541  11.345                        
 6623W        W13839   6.505   4.619   3.111                        
 6624W        W13840   8.834  13.378   7.803                        
 6625W        W13841  12.598   2.525   1.533                        
 6626W        W13842   7.232   5.628   9.987                        
 6627W        W13843   2.826   8.913   9.174                        
 6628W        W13844  10.221  12.823   3.870                        
 6629W        W13845   5.976  12.860  11.852                        
 6630W        W13846   9.847   4.132   3.312                        
 6631W        W13847   1.503   6.178  11.271                        
 6632W        W13848   2.198   4.043   9.673                        
 6633W        W13849   0.693   7.728  11.877                        
 6634W        W13850   8.848   9.928   3.274                        
 6635W        W13851   2.444   8.849   0.880                        
 6636W        W13852   0.929   0.351   3.316                        
 6637W        W13853   2.008  13.075   1.958                        
 6638W        W13854   4.609   8.831   1.692                        
 6639W        W13855  13.846   9.319   9.401                        
 6640W        W13856   1.176  13.326   9.530                        
 6641W        W13857   0.972  10.443   3.621                        
 6642W        W13858   3.583   8.107  11.861                        
 6643W        W13859   3.869   0.947   0.080                        
 6644W        W13860   6.178   4.574   9.145                        
 6645W        W13861   3.091  12.303   2.768                        
 6646W        W13862  11.555  10.221  10.478                        
 6647W        W13863   6.701   7.762  11.129                        
 6648W        W13864   3.558   5.449   8.875                        
 6649W        W13865  12.239  12.056   2.821                        
 6650W        W13866   5.618  13.320  11.534                        
 6651W        W13867   8.002  11.481   8.684                        
 6652W        W13868   7.319   3.039   9.441                        
 6653W        W13869   8.905  11.255   1.245                        
 6654W        W13870   2.198   9.058   1.488                        
 6655W        W13871   8.002  13.039   3.316                        
 6656W        W13872   7.733   9.580  11.807                        
 6657W        W13873   7.815  10.472   0.072                        
 6658W        W13874   3.303  11.459   7.864                        
 6659W        W13875   5.456   0.973  10.292                        
 6660W        W13876   7.303  12.243   0.189                        
 6661W        W13877   2.565  10.413   8.919                        
 6662W        W13878   2.302   4.089   8.890                        
 6663W        W13879   7.047   5.957   9.248                        
 6664W        W13880   6.242  11.737  11.558                        
 6665W        W13881   8.074   1.164   0.411                        
 6666W        W13882  10.642  13.567   2.060                        
 6667W        W13883   3.019  10.967   0.662                        
 6668W        W13884   3.599   5.101   2.255                        
 6669W        W13885  12.025   5.916   0.638                        
 6670W        W13886   3.507   7.236  10.591                        
 6671W        W13887   4.905   8.819  11.804                        
 6672W        W13888   4.951   2.570  11.873                        
 6673W        W13889   8.055   8.901   1.158                        
 6674W        W13890  12.565   9.589   3.880                        
 6675W        W13891   2.484  12.821  11.317                        
 6676W        W13892  10.645   2.562   0.937                        
 6677W        W13893   3.632   3.556   1.266                        
 6678W        W13894  11.969  10.723   9.706                        
 6679W        W13895   0.905   7.497   9.753                        
 6680W        W13896   7.735   3.894   8.678                        
 6681W        W13897  10.434   7.473  11.915                        
 6682W        W13898  13.341  10.968   3.391                        
 6683W        W13899   3.027   3.054   1.760                        
 6684W        W13900   4.938   8.351  11.355                        
 6685W        W13901   6.691   4.364  10.527                        
 6686W        W13902   4.594   4.040   7.881                        
 6687W        W13903   4.387   0.695   8.686                        
 6688W        W13904  13.567   6.797  10.246                        
 6689W        W13905   1.435  13.137   0.672                        
 6690W        W13906   3.881   2.201   0.459                        
 6691W        W13907   2.452  11.971   3.639                        
 6692W        W13908   0.700  13.038   8.999                        
 6693W        W13909   0.129   6.270   0.385                        
 6694W        W13910  13.132  10.718   0.970                        
 6695W        W13911   7.746   3.857  11.580                        
 6696W        W13912   5.187   6.731   1.743                        
 6697W        W13913  12.079   1.424   4.429                        
 6698W        W13914   3.359   4.120  11.900                        
 6699W        W13915   4.672   9.100   2.584                        
 6700W        W13916  11.475   0.699   3.630                        
 6701W        W13917   7.203   1.441   2.556                        
 6702W        W13918   6.677   5.983   0.923                        
 6703W        W13919  13.642  11.802   8.925                        
 6704W        W13920  10.739   6.955  10.202                        
 6705W        W13921   1.219   8.009  11.563                        
 6706W        W13922  13.138  13.841   0.075                        
 6707W        W13923  13.616   8.800   0.380                        
 6708W        W13924   9.868   1.712   2.558                        
 6709W        W13925   1.736   3.363   1.699                        
 6710W        W13926  11.517   8.895   0.364                        
 6711W        W13927   8.282  11.497   9.987                        
 6712W        W13928   7.009   4.335   2.496                        
 6713W        W13929   9.438   2.031   9.225                        
 6714W        W13930   8.028   4.882   0.964                        
 6715W        W13931  10.449   6.156   0.110                        
 6716W        W13932   4.404   9.856   3.620                        
 6717W        W13933   8.538   0.403  11.571                        
 6718W        W13934   8.065  11.548   1.248                        
 6719W        W13935  12.777   7.592   8.340                        
 6720W        W13936  11.253   8.381  11.379                        
 6721W        W13937   9.437   3.536   9.414                        
 6722W        W13938  10.731   4.110  10.293                        
 6723W        W13939   6.437   9.633   1.977                        
 6724W        W13940   0.881   6.781  10.556                        
 6725W        W13941   1.505  11.496   2.849                        
 6726W        W13942   5.960  10.183   4.189                        
 6727W        W13943   5.382  11.429   9.449                        
 6728W        W13944   0.394  12.580   3.575                        
 6729W        W13945   9.398   0.628   0.878                        
 6730W        W13946   8.104   7.772  11.540                        
 6731W        W13947   5.434   6.756   3.013                        
 6732W        W13948  12.491   2.757   9.137                        
 6733W        W13949   0.970   0.906   2.476                        
 6734W        W13950   4.625   3.600   9.463                        
 6735W        W13951  11.215   5.374   2.829                        
 6736W        W13952  10.461   1.237   4.117                        
 6737W        W13953   8.825  12.332   8.979                        
 6738W        W13954  11.526  13.275  11.309                        
 6739W        W13955  12.060  13.388   8.940                        
 6740W        W13956   4.944   9.646  10.572                        
 6741W        W13957   4.130   5.118   9.668                        
 6742W        W13958   6.191   3.348  10.745                        
 6743W        W13959   8.548   7.565  11.606                        
 6744W        W13960  13.279   0.423  10.514                        
 6745W        W13961  13.361   6.441   3.345                        
 6746W        W13962   8.086   6.972   3.383                        
 6747W        W13963  13.086  11.545  11.033                        
 6748W        W13964  10.388   3.775   1.482                        
 6749W        W13965  13.330   0.404   8.701                        
 6750W        W13966   1.145   6.514   0.155                        
 6751W        W13967   2.764   8.265   1.411                        
 6752W        W13968   9.588   5.449   8.663                        
 6753W        W13969   3.624   5.100   8.926                        
 6754W        W13970   8.356   3.776  11.111                        
 6755W        W13971   9.893   3.337   3.663                        
 6756W        W13972  10.422   1.687   2.269                        
 6757W        W13973   3.834   9.368   3.576                        
 6758W        W13974   4.875  13.384   3.302                        
 6759W        W13975   0.396   8.284   8.429                        
 6760W        W13976  10.646  10.966  10.286                        
 6761W        W13977   4.934   3.892  10.226                        
 6762W        W13978   8.911   5.456   2.057                        
 6763W        W13979   9.853   7.574   1.683                        
 6764W        W13980   1.129  11.288  11.545                        
 6765W        W13981  11.702   4.624  11.396                        
 6766W        W13982   0.142   8.324  11.886                        
 6767W        W13983   4.348  10.381  10.560                        
 6768W        W13984   8.314   4.056   2.791                        
 6769W        W13985   2.833  10.980   9.786                        
 6770W        W13986   2.460   7.838   1.438                        
 6771W        W13987   9.666   9.437   2.782                        
 6772W        W13988   9.872  13.349  10.479                        
 6773W        W13989   5.641   3.850   8.969                        
 6774W        W13990   6.500   4.041   8.626                        
 6775W        W13991   5.421   9.391   9.943                        
 6776W        W13992   4.944   9.069   9.438                        
 6777W        W13993   8.603   2.560  11.601                        
 6778W        W13994   4.577   5.122   0.710                        
 6779W        W13995   8.102   9.632   0.987                        
 6780W        W13996   4.839  13.883   8.335                        
 6781W        W13997  13.564   3.507   9.985                        
 6782W        W13998  12.228  13.114   0.349                        
 6783W        W13999   7.559  10.491   8.995                        
 6784W        W14000   8.012   2.725   0.357                        
 6785W        W14001   8.795   7.826   8.462                        
 6786W        W14002   2.500   4.401   0.909                        
 6787W        W14003   4.612  11.728  11.537                        
 6788W        W14004  10.647   0.898   2.332                        
 6789W        W14005   7.032   5.962   3.351                        
 6790W        W14006   3.010  10.108  11.868                        
 6791W        W14007   5.639   1.397  11.889                        
 6792W        W14008   8.567  13.543   3.023                        
 6793W        W14009   5.152  10.710   9.151                        
 6794W        W14010  10.120  13.852   1.676                        
 6795W        W14011   2.729  12.556   2.839                        
 6796W        W14012   3.595   1.479   8.344                        
 6797W        W14013  10.208   5.163   0.349                        
 6798W        W14014   8.378  12.846  10.856                        
 6799W        W14015   4.919   0.639   0.622                        
 6800W        W14016   1.429  12.870   9.783                        
 6801W        W14017  10.752   3.546  11.911                        
 6802W        W14018   6.493   9.602   3.049                        
 6803W        W14019   8.548  11.752   2.478                        
 6804W        W14020   0.333  11.452   0.103                        
 6805W        W14021   4.411   1.658   3.594                        
 6806W        W14022  12.007   3.882   1.497                        
 6807W        W14023   9.942   3.836   0.398                        
 6808W        W14024   6.414   5.664   1.739                        
 6809W        W14025   4.856   3.621   1.237                        
 6810W        W14026  10.492  12.025  11.875                        
 6811W        W14027   1.695   8.037   8.994                        
 6812W        W14028   5.644   9.364   2.009                        
 6813W        W14029   7.242   5.879   9.976                        
 6814W        W14030  11.696   2.978  11.536                        
 6815W        W14031   7.505  12.239   0.637                        
 6816W        W14032   4.340  13.856  11.000                        
 6817W        W14033   8.810   2.751  11.014                        
 6818W        W14034   3.850   1.410   7.837                        
 6819W        W14035  12.349   5.363   1.214                        
 6820W        W14036   7.324   5.396   3.379                        
 6821W        W14037  13.859   5.114  11.658                        
 6822W        W14038   5.096  12.060   2.284                        
 6823W        W14039  11.253   5.415   2.548                        
 6824W        W14040   3.610   8.085   2.003                        
 6825W        W14041   9.845  10.479   0.661                        
 6826W        W14042   2.544   1.922   9.955                        
 6827W        W14043  13.019   9.431  10.470                        
 6828W        W14044  10.120  13.401   3.821                        
 6829W        W14045   6.771   9.898   9.759                        
 6830W        W14046  10.434   3.603   2.593                        
 6831W        W14047   4.923   9.849   0.683                        
 6832W        W14048   4.043   8.601   2.853                        
 6833W        W14049   6.955  10.707  10.047                        
 6834W        W14050   8.576   9.642   2.054                        
 6835W        W14051   2.496   9.168   0.939                        
 6836W        W14052   9.138   8.913  11.824                        
 6837W        W14053   1.237   6.964   3.106                        
 6838W        W14054   7.772   0.966   9.724                        
 6839W        W14055   6.002   2.811   3.618                        
 6840W        W14056  10.227   1.135  10.480                        
 6841W        W14057   7.276   0.871   8.916                        
 6842W        W14058   7.303  13.063   2.052                        
 6843W        W14059   4.937   5.905   9.205                        
 6844W        W14060   4.340  13.816   8.900                        
 6845W        W14061  10.733  12.482   3.110                        
 6846W        W14062   5.192   2.027   2.246                        
 6847W        W14063  11.699   2.492   2.848                        
 6848W        W14064  11.511   0.334   8.612                        
 6849W        W14065   9.602   4.355   0.995                        
 6850W        W14066   3.834  10.713   1.234                        
 6851W        W14067   2.542   2.571   4.139                        
 6852W        W14068   1.686   8.903   3.585                        
 6853W        W14069  11.970  13.592   8.148                        
 6854W        W14070   0.948   1.443   1.203                        
 6855W        W14071  13.115  10.963  11.633                        
 6856W        W14072   9.929   8.872   0.986                        
 6857W        W14073   3.329   9.368   4.119                        
 6858W        W14074   5.430  10.715   3.009                        
 6859W        W14075  12.551  11.766   4.112                        
 6860W        W14076  12.792   6.726  10.747                        
 6861W        W14077  12.284   7.528   8.401                        
 6862W        W14078   2.219  13.075  10.518                        
 6863W        W14079   1.966   5.942  10.812                        
 6864W        W14080   7.804  10.436   3.039                        
 6865W        W14081   1.507   6.244   2.281                        
 6866W        W14082   6.177  11.735  11.864                        
 6867W        W14083   2.238   1.231   4.144                        
 6868W        W14084   9.618   0.412   1.253                        
 6869W        W14085   6.798   1.764  11.028                        
 6870W        W14086  12.502   4.425   1.240                        
 6871W        W14087   7.544   1.685   8.964                        
 6872W        W14088  13.314   4.663  10.806                        
 6873W        W14089   6.793  10.497   8.626                        
 6874W        W14090  13.303   6.434   9.204                        
 6875W        W14091   7.551   3.885  11.308                        
 6876W        W14092   7.046  13.641   3.595                        
 6877W        W14093  11.971   9.336  10.202                        
 6878W        W14094  13.113   6.000   9.226                        
 6879W        W14095   4.376   4.845   8.161                        
 6880W        W14096   5.896   0.688   2.783                        
 6881W        W14097   5.105   2.249   8.362                        
 6882W        W14098   9.936  12.518  10.816                        
 6883W        W14099   3.504   7.293   2.579                        
 6884W        W14100   2.265  13.816   3.055                        
 6885W        W14101   8.864   9.860   3.064                        
 6886W        W14102   8.527   8.538  10.301                        
 6887W        W14103   7.206   5.916   0.706                        
 6888W        W14104   0.169   1.662   4.454                        
 6889W        W14105   5.932   4.913   3.330                        
 6890W        W14106   7.541   8.893  11.922                        
 6891W        W14107   5.203   5.913   9.435                        
 6892W        W14108   5.430   1.146   8.391                        
 6893W        W14109   3.796  13.647   3.071                        
 6894W        W14110   4.878   4.145   3.115                        
 6895W        W14111   2.202   0.125   2.568                        
 6896W        W14112   6.193   1.662  11.340                        
 6897W        W14113   7.203   7.016   8.903                        
 6898W        W14114   2.224   8.554   3.829                        
 6899W        W14115   0.597   4.882   3.925                        
 6900W        W14116   7.259   5.090   4.407                        
 6901W        W14117   2.228   6.774   2.031                        
 6902W        W14118   0.424   5.684  11.071                        
 6903W        W14119  11.434   0.143   2.561                        
 6904W        W14120   7.217  13.645   2.561                        
 6905W        W14121   0.703   4.638   8.357                        
 6906W        W14122   5.622  12.018   9.458                        
 6907W        W14123   1.690  12.069   9.672                        
 6908W        W14124  11.259   0.650   8.445                        
 6909W        W14125   4.652   3.550   2.815                        
 6910W        W14126   1.204   0.722   4.345                        
 6911W        W14127   3.791   3.850  10.047                        
 6912W        W14128   3.027  11.519  10.474                        
 6913W        W14129  11.260  13.903   0.181                        
 6914W        W14130   5.132  11.194   0.149                        
 6915W        W14131   9.884  12.289   3.289                        
 6916W        W14132   5.933   3.575   9.171                        
 6917W        W14133  11.978   1.205   4.113                        
 6918W        W14134  11.739   4.062   2.218                        
 6919W        W14135  11.220  11.720   0.383                        
 6920W        W14136  13.363   8.110   0.659                        
 6921W        W14137   9.870   7.240   0.706                        
 6922W        W14138  13.842   6.262   3.597                        
 6923W        W14139   3.050  10.208   2.275                        
 6924W        W14140  10.948  13.130   3.390                        
 6925W        W14141   5.929  10.217  11.887                        
 6926W        W14142  11.019  10.478  10.828                        
 6927W        W14143   3.570   7.998  11.121                        
 6928W        W14144  12.011   7.785   9.714                        
 6929W        W14145   5.956   0.427   9.463                        
 6930W        W14146  11.731   7.579   9.217                        
 6931W        W14147   8.548   3.896  11.121                        
 6932W        W14148  11.702   9.689   3.808                        
 6933W        W14149   1.954   0.091  10.039                        
 6934W        W14150   0.895   0.140  11.388                        
 6935W        W14151   9.109   6.160   1.257                        
 6936W        W14152   5.428   1.736  11.872                        
 6937W        W14153   6.233   0.860   8.709                        
 6938W        W14154   2.282   6.007   3.333                        
 6939W        W14155   2.761   2.719   3.040                        
 6940W        W14156   5.107   7.056  11.852                        
 6941W        W14157   0.631   0.395   3.283                        
 6942W        W14158  10.432  10.653   9.739                        
 6943W        W14159   8.293   3.242   1.947                        
 6944W        W14160   0.605   6.168   8.997                        
 6945W        W14161   1.655  12.517  10.212                        
 6946W        W14162  12.601   7.007   3.350                        
 6947W        W14163  12.563   5.713  10.853                        
 6948W        W14164   1.714   9.878   3.601                        
 6949W        W14165   3.559  11.528   1.738                        
 6950W        W14166   1.137   6.258   8.924                        
 6951W        W14167   2.041   3.556  11.394                        
 6952W        W14168   9.657  11.523   3.564                        
 6953W        W14169   1.685  10.930   9.482                        
 6954W        W14170   1.766   3.827   1.186                        
 6955W        W14171   8.621  10.678   0.370                        
 6956W        W14172   1.747   6.769   9.783                        
 6957W        W14173   6.228   6.176   2.498                        
 6958W        W14174   3.306   9.651   3.573                        
 6959W        W14175   5.200   9.152   1.190                        
 6960W        W14176  13.322   6.184   3.894                        
 6961W        W14177   6.954   6.430   3.374                        
 6962W        W14178  12.798  10.971   2.822                        
 6963W        W14179  13.370   7.759   3.290                        
 6964W        W14180  10.378  13.874  11.819                        
 6965W        W14181   4.922  10.482   9.789                        
 6966W        W14182   7.822   7.749   8.962                        
 6967W        W14183  10.209   8.080  11.622                        
 6968W        W14184   2.487   9.434   2.494                        
 6969W        W14185   0.598  13.601   3.357                        
 6970W        W14186   4.037  12.223  11.076                        
 6971W        W14187   6.509  12.009  10.514                        
 6972W        W14188   6.267   4.615   0.684                        
 6973W        W14189   1.164   2.543  11.628                        
 6974W        W14190   4.668   3.572   0.937                        
 6975W        W14191   4.115   7.207   1.450                        
 6976W        W14192  10.383   5.710  10.570                        
 6977W        W14193   3.302   4.925   0.343                        
 6978W        W14194   0.374  11.281   9.492                        
 6979W        W14195  11.258   6.491   0.135                        
 6980W        W14196   0.195  12.492   7.889                        
 6981W        W14197   9.861   4.102   9.244                        
 6982W        W14198   7.550  11.518   1.970                        
 6983W        W14199   1.679   2.775   3.294                        
 6984W        W14200   2.013   8.338   8.414                        
 6985W        W14201   5.669  10.955   3.045                        
 6986W        W14202   1.437   2.311  11.907                        
 6987W        W14203   2.992   1.922   1.692                        
 6988W        W14204   8.524   8.270   0.620                        
 6989W        W14205   2.254   0.612   8.731                        
 6990W        W14206  10.500  11.245   1.695                        
 6991W        W14207   6.768   1.651   8.666                        
 6992W        W14208   2.496   7.525   9.255                        
 6993W        W14209   9.931   8.281   1.254                        
 6994W        W14210   6.476   1.463   4.386                        
 6995W        W14211   8.833  11.537   1.509                        
 6996W        W14212  12.241   3.847   3.854                        
 6997W        W14213   7.219   1.394  11.553                        
 6998W        W14214  12.775   6.468   3.547                        
 6999W        W14215   4.349   8.355   2.035                        
 7000W        W14216  11.283   3.550   1.760                        
 7001W        W14217  11.808  10.753   9.692                        
 7002W        W14218   0.461  11.194   1.669                        
 7003W        W14219   3.341   8.880   9.447                        
 7004W        W14220  12.538   4.682  10.500                        
 7005W        W14221   3.780   9.147  10.002                        
 7006W        W14222  13.034   0.666  10.836                        
 7007W        W14223   5.687  12.854  10.238                        
 7008W        W14224   5.468   5.451   2.010                        
 7009W        W14225  12.488   1.491   3.398                        
 7010W        W14226  13.538   0.934   9.672                        
 7011W        W14227   7.555  10.231   3.814                        
 7012W        W14228   5.627   9.102   3.007                        
 7013W        W14229   7.493  10.177   2.818                        
 7014W        W14230   1.233   7.273   0.917                        
 7015W        W14231   1.971  10.456   0.458                        
 7016W        W14232  13.354   3.614   1.190                        
 7017W        W14233  11.163  13.105   0.684                        
 7018W        W14234   3.330  11.459  11.332                        
 7019W        W14235  13.628   5.895   8.907                        
 7020W        W14236   9.401  10.232  11.598                        
 7021W        W14237   8.271   3.291   0.159                        
 7022W        W14238   9.381  13.399  11.032                        
 7023W        W14239   3.550  11.491   2.502                        
 7024W        W14240  13.029   1.684   9.486                        
 7025W        W14241   3.061  11.192   8.455                        
 7026W        W14242   8.560   4.668   8.348                        
 7027W        W14243   9.071   0.647   9.460                        
 7028W        W14244  12.828   5.629   3.547                        
 7029W        W14245   1.250   0.960   3.646                        
 7030W        W14246  10.950  13.837  10.745                        
 7031W        W14247   4.115  12.025   1.785                        
 7032W        W14248  12.282   7.828   2.591                        
 7033W        W14249  12.597   9.349  11.629                        
 7034W        W14250  10.644   1.214   0.905                        
 7035W        W14251   3.553  13.593   9.982                        
 7036W        W14252   0.366   5.159   8.359                        
 7037W        W14253   9.402   4.677  10.851                        
 7038W        W14254   1.462   9.857   1.465                        
 7039W        W14255   7.471  13.603   0.140                        
 7040W        W14256   9.904  12.283  11.375                        
 7041W        W14257   2.723   6.448  10.022                        
 7042W        W14258   7.745   7.779   3.332                        
 7043W        W14259  13.381   1.495   8.653                        
 7044W        W14260   7.746  10.648   0.141                        
 7045W        W14261  10.482   0.882   8.715                        
 7046W        W14262  12.749  12.489   0.447                        
 7047W        W14263   5.913  11.477   1.973                        
 7048W        W14264   3.101   4.921  11.053                        
 7049W        W14265  11.546   2.457   8.960                        
 7050W        W14266   9.094   1.509   3.038                        
 7051W        W14267  13.027   4.659   1.955                        
 7052W        W14268   1.969  11.547   0.919                        
 7053W        W14269   0.689   2.769   0.941                        
 7054W        W14270   3.073  13.084   2.737                        
 7055W        W14271  10.205   1.176   3.829                        
 7056W        W14272   6.994   7.998  11.613                        
 7057W        W14273   9.955   2.253  11.644                        
 7058W        W14274  13.891   9.400   3.298                        
 7059W        W14275  13.568   0.650   9.264                        
 7060W        W14276   8.094   9.174   0.397                        
 7061W        W14277  10.682   1.172   9.703                        
 7062W        W14278   2.778   4.670   9.721                        
 7063W        W14279   7.311   8.048   0.727                        
 7064W        W14280   8.312   9.904   8.635                        
 7065W        W14281  11.546   0.888  11.551                        
 7066W        W14282  11.237  10.997  10.318                        
 7067W        W14283   5.478   6.426   0.650                        
 7068W        W14284   6.688   9.970   2.530                        
 7069W        W14285   8.265   5.419   3.883                        
 7070W        W14286   1.454   1.692   4.071                        
 7071W        W14287   4.087   6.264   8.144                        
 7072W        W14288   9.382   9.589   9.184                        
 7073W        W14289   6.792   7.281  11.654                        
 7074W        W14290   1.946   6.986  11.662                        
 7075W        W14291   3.570   3.854   0.687                        
 7076W        W14292  11.248  10.920   0.090                        
 7077W        W14293   7.588  10.668   3.273                        
 7078W        W14294   0.622   9.333   9.700                        
 7079W        W14295  13.274   7.580   2.221                        
 7080W        W14296   5.643   5.121  11.036                        
 7081W        W14297   3.588  11.216   0.385                        
 7082W        W14298   9.684   7.266   2.272                        
 7083W        W14299   0.969   8.100   3.591                        
 7084W        W14300   9.622   8.341   1.709                        
 7085W        W14301  12.226   6.738  11.612                        
 7086W        W14302   7.799  12.255   0.727                        
 7087W        W14303   1.918   2.474  10.764                        
 7088W        W14304   1.470  12.857   0.724                        
 7089W        W14305  11.267   4.137  11.537                        
 7090W        W14306   2.545  10.923   1.172                        
 7091W        W14307   2.832   4.572   2.202                        
 7092W        W14308   9.143   4.073  10.019                        
 7093W        W14309   3.793   0.947   3.399                        
 7094W        W14310   1.438   1.770   9.253                        
 7095W        W14311   0.441   5.164   3.653                        
 7096W        W14312  10.434   0.413   8.975                        
 7097W        W14313   1.147   6.725   2.501                        
 7098W        W14314  10.469   6.994  10.756                        
 7099W        W14315   1.391   9.144  10.757                        
 7100W        W14316  12.243  12.236   9.692                        
 7101W        W14317  12.267  11.468   9.741                        
 7102W        W14318   9.147   5.127   1.957                        
 7103W        W14319   1.125   9.428   8.915                        
 7104W        W14320   0.942   0.187   8.370                        
 7105W        W14321  12.050  13.139   0.717                        
 7106W        W14322   2.528   0.617   2.042                        
 7107W        W14323  13.323  13.846   1.254                        
 7108W        W14324   9.171   5.692   9.482                        
 7109W        W14325   6.750   1.426   0.125                        
 7110W        W14326  10.476   7.317   8.393                        
 7111W        W14327   5.938   5.475   1.157                        
 7112W        W14328  13.096   0.425  11.569                        
 7113W        W14329   2.792   5.920  11.088                        
 7114W        W14330   0.612  12.265   3.043                        
 7115W        W14331  13.640  11.723   3.087                        
 7116W        W14332  11.179   2.565   2.864                        
 7117W        W14333   2.292  12.037   1.701                        
 7118W        W14334   5.950   1.500   8.927                        
 7119W        W14335  11.176  10.167  10.050                        
 7120W        W14336   9.077  12.588   1.726                        
 7121W        W14337   0.369   5.696   2.513                        
 7122W        W14338   4.916   1.515  10.774                        
 7123W        W14339  11.480   5.363   3.565                        
 7124W        W14340   4.359   0.963   3.566                        
 7125W        W14341   9.057  13.297   9.679                        
 7126W        W14342   8.269  13.890   0.875                        
 7127W        W14343   8.887   0.666   2.517                        
 7128W        W14344   9.107  13.575   8.097                        
 7129W        W14345   1.679   8.032   0.911                        
 7130W        W14346   6.145   4.308   0.907                        
 7131W        W14347   0.452  13.572   3.378                        
 7132W        W14348   2.795   7.496   0.711                        
 7133W        W14349   1.680   2.520   3.287                        
 7134W        W14350   0.630   4.641   8.633                        
 7135W        W14351   8.083   2.192   3.666                        
 7136W        W14352   6.796   8.277  11.830                        
 7137W        W14353  10.898   4.109   9.524                        
 7138W        W14354   2.000  11.706  11.887                        
 7139W        W14355   4.848   6.003  10.270                        
 7140W        W14356   1.749   2.822   8.909                        
 7141W        W14357   1.967   8.852  10.274                        
 7142W        W14358   9.614  13.075   8.948                        
 7143W        W14359   0.602  12.599   2.528                        
 7144W        W14360   0.182   6.722   3.128                        
 7145W        W14361   5.880  12.512   0.992                        
 7146W        W14362   5.670  11.283   9.220                        
 7147W        W14363   4.856   3.767  11.627                        
 7148W        W14364   9.120  11.734  11.638                        
 7149W        W14365   1.251   2.541  10.751                        
 7150W        W14366  13.306   5.921  10.521                        
 7151W        W14367   3.336  10.919   1.264                        
 7152W        W14368   6.442   1.984   2.255                        
 7153W        W14369  13.560   8.284  10.581                        
 7154W        W14370   4.858   8.837   9.944                        
 7155W        W14371   4.887   4.294   8.600                        
 7156W        W14372   6.194   0.358  11.806                        
 7157W        W14373  11.795   2.762  10.249                        
 7158W        W14374  13.063   1.151   0.676                        
 7159W        W14375   1.179   2.261  11.867                        
 7160W        W14376   0.879   2.723  11.370                        
 7161W        W14377   5.410   9.598   2.788                        
 7162W        W14378   3.515  11.780  10.046                        
 7163W        W14379   3.055   0.609  11.319                        
 7164W        W14380   2.528   9.703  11.017                        
 7165W        W14381   4.952   7.327  11.130                        
 7166W        W14382   2.013   3.079   2.585                        
 7167W        W14383   2.762  11.276   1.793                        
 7168W        W14384  12.548   1.672   3.564                        
 7169W        W14385  13.890   4.089   2.287                        
 7170W        W14386   0.711  12.575  11.606                        
 7171W        W14387  13.919   6.171   0.686                        
 7172W        W14388  12.334  13.922   9.155                        
 7173W        W14389  12.507   7.576   3.308                        
 7174W        W14390   0.724   2.284   3.095                        
 7175W        W14391   2.212   0.631   1.262                        
 7176W        W14392   4.042   3.315   1.213                        
 7177W        W14393   0.368   5.135   2.512                        
 7178W        W14394  13.630   0.114   2.243                        
 7179W        W14395  11.164  12.523   2.504                        
 7180W        W14396   4.078   7.200   2.768                        
 7181W        W14397  13.807   9.149  11.360                        
 7182W        W14398   4.380  13.290   9.458                        
 7183W        W14399  10.495   2.547   0.372                        
 7184W        W14400  10.447   5.946   8.351                        
 7185W        W14401  11.498   5.426   2.848                        
 7186W        W14402   8.815   9.885  11.019                        
 7187W        W14403   1.718  12.610   3.832                        
 7188W        W14404   1.746   4.155   8.717                        
 7189W        W14405  12.488   6.477  11.568                        
 7190W        W14406   4.897   7.559   0.887                        
 7191W        W14407  13.051   7.224   0.654                        
 7192W        W14408   2.575   2.236   2.010                        
 7193W        W14409   6.175   2.732   8.387                        
 7194W        W14410   3.544   5.171   8.398                        
 7195W        W14411   4.622  10.914   2.844                        
 7196W        W14412   8.804   5.113   4.125                        
 7197W        W14413   6.530   4.823   2.852                        
 7198W        W14414   9.350  13.845   1.685                        
 7199W        W14415   5.638   8.892   0.382                        
 7200W        W14416   5.678   2.012   2.471                        
 7201W        W14417   4.057   4.116  10.573                        
 7202W        W14418   4.056   1.976   3.350                        
 7203W        W14419   2.774   6.672   0.608                        
 7204W        W14420  13.821   4.319   0.636                        
 7205W        W14421   0.636  12.067   8.654                        
 7206W        W14422   1.750   5.157   3.290                        
 7207W        W14423  13.866   3.557   9.490                        
 7208W        W14424   2.462   5.139  10.062                        
 7209W        W14425   0.118   1.483   0.396                        
 7210W        W14426   6.480   8.014   9.160                        
 7211W        W14427   4.100  13.659   1.255                        
 7212W        W14428   1.251   5.708   9.260                        
 7213W        W14429   0.403  13.027  10.595                        
 7214W        W14430   5.951   7.853   0.433                        
 7215W        W14431   1.484   8.311   1.225                        
 7216W        W14432   7.529   9.359   9.712                        
 7217W        W14433  11.967  11.745   3.611                        
 7218W        W14434   9.096   1.953  10.043                        
 7219W        W14435   4.893   7.062   8.910                        
 7220W        W14436   1.242   0.450  10.299                        
 7221W        W14437   0.915   6.758   1.403                        
 7222W        W14438  13.608   9.670   3.116                        
 7223W        W14439   9.069   1.704   9.707                        
 7224W        W14440   7.465  13.387  11.018                        
 7225W        W14441   5.147   3.027  10.300                        
 7226W        W14442   7.308   3.892   0.727                        
 7227W        W14443  10.638  12.565   2.287                        
 7228W        W14444   2.286   2.715   3.637                        
 7229W        W14445  10.174   4.570  11.004                        
 7230W        W14446  11.986   6.982  10.863                        
 7231W        W14447   3.313  13.370  10.220                        
 7232W        W14448   0.646   3.258   1.472                        
 7233W        W14449   9.096   6.783   8.650                        
 7234W        W14450   1.481  13.086  11.562                        
 7235W        W14451   3.560   7.308   3.115                        
 7236W        W14452  11.757   8.539  11.064                        
 7237W        W14453   3.881   3.018   9.518                        
 7238W        W14454   7.803   7.061   1.258                        
 7239W        W14455   8.830  10.136  10.502                        
 7240W        W14456   2.793   6.231   0.336                        
 7241W        W14457   4.417   2.837   8.968                        
 7242W        W14458  11.442   3.083   0.381                        
 7243W        W14459   1.501   6.739   9.254                        
 7244W        W14460   5.651   4.061   9.720                        
 7245W        W14461   3.889  10.474  10.776                        
 7246W        W14462  11.731   1.773   9.445                        
 7247W        W14463   2.756   3.244   9.985                        
 7248W        W14464   9.866  12.816  11.663                        
 7249W        W14465   0.595   9.358  11.586                        
 7250W        W14466  12.777  11.441  11.601                        
 7251W        W14467  13.660   2.536   2.523                        
 7252W        W14468   4.142  11.786   3.093                        
 7253W        W14469  11.975  10.671   8.978                        
 7254W        W14470   9.649   8.018   8.892                        
 7255W        W14471  10.154   1.164   0.102                        
 7256W        W14472  11.794   5.991   9.492                        
 7257W        W14473   3.061   3.829   3.092                        
 7258W        W14474  13.109   8.611   0.957                        
 7259W        W14475   3.852   1.232   3.652                        
 7260W        W14476   2.464   0.620   3.622                        
 7261W        W14477   4.367  11.252  11.110                        
 7262W        W14478   6.774   0.969   8.656                        
 7263W        W14479  13.382   6.146  10.781                        
 7264W        W14480   7.305  11.484   9.693                        
 7265W        W14481  12.611  13.112   9.437                        
 7266W        W14482   5.949   8.864   2.747                        
 7267W        W14483   8.266   1.778  11.362                        
 7268W        W14484   5.938   7.026   2.237                        
 7269W        W14485   4.109  10.670  10.008                        
 7270W        W14486  11.290   1.492  11.873                        
 7271W        W14487   0.144   5.202   0.144                        
 7272W        W14488   0.418  11.289   2.845                        
 7273W        W14489   6.802   5.630  10.543                        
 7274W        W14490  11.754  10.459  11.276                        
 7275W        W14491   4.118  10.692   9.723                        
 7276W        W14492   3.332   0.624   2.817                        
 7277W        W14493   4.564  13.843   0.190                        
 7278W        W14494   2.478   8.583  10.320                        
 7279W        W14495  13.618  10.756   9.427                        
 7280W        W14496   0.684  11.767  11.817                        
 7281W        W14497   5.918  13.670   3.615                        
 7282W        W14498   8.826   4.128   0.669                        
 7283W        W14499   8.524   1.768  11.655                        
 7284W        W14500   3.505   4.821  10.770                        
 7285W        W14501  11.994   5.703   9.220                        
 7286W        W14502   2.803   9.153   2.769                        
 7287W        W14503   2.028  11.528   2.842                        
 7288W        W14504   1.720   7.466   8.869                        
 7289W        W14505  12.243   8.100   0.367                        
 7290W        W14506   1.150   9.842   9.153                        
 7291W        W14507   8.355   1.248   8.612                        
 7292W        W14508   0.863   6.725   9.402                        
 7293W        W14509   7.323   5.475   9.472                        
 7294W        W14510  10.451   8.339  10.552                        
 7295W        W14511   7.590   5.134   2.328                        
 7296W        W14512   0.881   7.526   2.229                        
 7297W        W14513   2.510   0.628  11.084                        
 7298W        W14514   9.153  11.479   8.144                        
 7299W        W14515  10.912   8.913  11.076                        
 7300W        W14516  10.725   1.971   2.034                        
 7301W        W14517  11.478   0.120  10.794                        
 7302W        W14518   9.934   1.725   1.796                        
 7303W        W14519  10.447  10.712   3.570                        
 7304W        W14520   4.574   9.331   9.739                        
 7305W        W14521   1.691   5.100   2.835                        
 7306W        W14522   9.177   3.517   0.110                        
 7307W        W14523   2.021  12.248   8.953                        
 7308W        W14524  10.151  13.307   4.074                        
 7309W        W14525   0.389   0.395   3.049                        
 7310W        W14526   5.975   6.424   2.849                        
 7311W        W14527   3.045   8.027   7.898                        
 7312W        W14528   7.323  10.655  11.565                        
 7313W        W14529  10.718   9.061  10.531                        
 7314W        W14530   5.435   7.806   9.415                        
 7315W        W14531  13.350   9.362   2.306                        
 7316W        W14532  10.738   5.160   0.180                        
 7317W        W14533   2.510   8.341  10.527                        
 7318W        W14534   3.506   7.559  10.506                        
 7319W        W14535  11.978   6.996   1.520                        
 7320W        W14536   4.585   8.311  10.797                        
 7321W        W14537   3.540   4.307   9.263                        
 7322W        W14538  11.006   4.952   2.849                        
 7323W        W14539  12.262   9.648   1.958                        
 7324W        W14540  10.955  13.652   2.034                        
 7325W        W14541  13.592  10.187   2.031                        
 7326W        W14542  11.816   6.496  11.839                        
 7327W        W14543  13.644   3.605   1.789                        
 7328W        W14544   6.690   4.869   8.625                        
 7329W        W14545   0.968   3.330   2.210                        
 7330W        W14546  11.961   4.880  10.471                        
 7331W        W14547   9.334   0.195   1.444                        
 7332W        W14548   8.546   2.991   3.867                        
 7333W        W14549   9.396  11.717  11.067                        
 7334W        W14550   4.861   8.602  10.241                        
 7335W        W14551   9.650  10.447   3.321                        
 7336W        W14552   8.868  13.578  10.476                        
 7337W        W14553   9.323  11.498   0.619                        
 7338W        W14554  10.108   9.179   1.756                        
 7339W        W14555   8.605   4.064  10.031                        
 7340W        W14556   1.155   2.026   8.386                        
 7341W        W14557   2.790   4.421  11.623                        
 7342W        W14558  10.113   5.095   1.964                        
 7343W        W14559   5.650   8.381   8.652                        
 7344W        W14560   7.550  13.104   2.490                        
 7345W        W14561   8.813   1.429   1.404                        
 7346W        W14562  13.652  10.369   8.465                        
 7347W        W14563   1.980  13.024   8.435                        
 7348W        W14564   3.890   5.646   8.384                        
 7349W        W14565   4.870  11.554  11.650                        
 7350W        W14566   9.313   9.400   0.946                        
 7351W        W14567   7.023   6.452   9.963                        
 7352W        W14568  12.572   2.043   9.226                        
 7353W        W14569   4.123   8.338  11.835                        
 7354W        W14570   2.780   9.337   1.422                        
 7355W        W14571   4.887   0.173   8.380                        
 7356W        W14572  12.767   2.776   1.947                        
 7357W        W14573   6.672   4.306   0.157                        
 7358W        W14574  13.306  13.578   1.505                        
 7359W        W14575   5.216   0.890  10.818                        
 7360W        W14576  11.778   3.832   2.017                        
 7361W        W14577   8.280  12.764   7.872                        
 7362W        W14578   4.134   8.311   7.896                        
 7363W        W14579   7.499  11.998  10.819                        
 7364W        W14580   3.276  13.915   9.794                        
 7365W        W14581   4.098  10.653   8.647                        
 7366W        W14582  13.609  11.275   0.437                        
 7367W        W14583   2.979   6.255   9.692                        
 7368W        W14584   5.378   6.191   1.528                        
 7369W        W14585  11.986   7.528   9.213                        
 7370W        W14586   0.630  13.591  11.008                        
 7371W        W14587   6.459  13.110   1.683                        
 7372W        W14588  10.417   4.638   9.145                        
 7373W        W14589   7.017  13.578  11.353                        
 7374W        W14590   5.980  10.897   2.246                        
 7375W        W14591   5.134   1.669   1.490                        
 7376W        W14592   3.281   1.146  11.861                        
 7377W        W14593   5.698   5.458  10.585                        
 7378W        W14594   3.870   4.398   8.699                        
 7379W        W14595   5.427   1.663  11.055                        
 7380W        W14596  12.531  13.325   9.158                        
 7381W        W14597   4.574  13.277   9.993                        
 7382W        W14598   8.296   7.541   9.484                        
 7383W        W14599  11.506  10.692   0.413                        
 7384W        W14600   0.943   8.603  11.876                        
 7385W        W14601   6.974  13.901  10.546                        
 7386W        W14602   8.525  12.256   4.443                        
 7387W        W14603   4.089   0.672   1.747                        
 7388W        W14604   9.325  13.569   7.824                        
 7389W        W14605   7.542   4.086   1.745                        
 7390W        W14606  11.256   1.721   8.417                        
 7391W        W14607  12.293   0.890  10.467                        
 7392W        W14608   7.559   0.912   1.233                        
 7393W        W14609   5.383   0.446  10.744                        
 7394W        W14610   1.966  11.956   3.093                        
 7395W        W14611   2.037  11.757   8.973                        
 7396W        W14612  11.461  12.228   0.167                        
 7397W        W14613  12.491   4.123   9.730                        
 7398W        W14614   5.134   4.908   9.211                        
 7399W        W14615  10.157  13.837   2.025                        
 7400W        W14616   6.416  12.329   0.891                        
 7401W        W14617   5.210  10.152   8.647                        
 7402W        W14618  13.130   5.375   9.760                        
 7403W        W14619   0.358  13.541   2.009                        
 7404W        W14620   9.090   2.283   1.772                        
 7405W        W14621  12.326   9.932   0.652                        
 7406W        W14622   6.485   8.582   0.127                        
 7407W        W14623   9.329   9.405   0.179                        
 7408W        W14624  11.506   6.440   8.995                        
 7409W        W14625   6.468   9.129   1.763                        
 7410W        W14626   0.661   0.717   3.656                        
 7411W        W14627   9.332   1.196   0.440                        
 7412W        W14628   7.497   6.990  10.843                        
 7413W        W14629  13.920   1.158  10.510                        
 7414W        W14630  13.627   4.620   9.738                        
 7415W        W14631   6.791   6.424   2.756                        
 7416W        W14632   1.752   0.968   0.610                        
 7417W        W14633   6.682   5.956   4.338                        
 7418W        W14634   0.407   7.788  10.541                        
 7419W        W14635   4.662  12.067  11.601                        
 7420W        W14636   9.581   3.049   3.335                        
 7421W        W14637   3.574  13.642   2.038                        
 7422W        W14638   3.841   0.134  11.342                        
 7423W        W14639   6.221   3.522  10.588                        
 7424W        W14640  11.429  13.305   0.462                        
 7425W        W14641   0.861   4.628  10.001                        
 7426W        W14642  12.544   2.184   9.508                        
 7427W        W14643   1.211   0.088   1.230                        
 7428W        W14644  10.937   1.191   1.000                        
 7429W        W14645   8.000   1.216  11.107                        
 7430W        W14646   7.530   3.548  10.265                        
 7431W        W14647   2.780  11.495   9.746                        
 7432W        W14648   4.658   0.364  11.008                        
 7433W        W14649   0.412   4.330   9.421                        
 7434W        W14650   8.566   4.056   1.217                        
 7435W        W14651   2.520   6.185   1.987                        
 7436W        W14652  10.109   4.132   3.070                        
 7437W        W14653   4.879   8.303   8.956                        
 7438W        W14654   2.269   6.152   0.446                        
 7439W        W14655   7.280   1.778   2.772                        
 7440W        W14656  10.938   9.685   9.945                        
 7441W        W14657   9.589   5.943  11.630                        
 7442W        W14658   9.840   7.756   0.096                        
 7443W        W14659   1.139   0.644   3.850                        
 7444W        W14660  11.291   4.572  10.857                        
 7445W        W14661  12.229   6.752   2.577                        
 7446W        W14662   8.059   5.888   3.275                        
 7447W        W14663   1.749   7.245  11.385                        
 7448W        W14664   7.573   8.329   2.580                        
 7449W        W14665  10.125   2.493  10.287                        
 7450W        W14666  12.260   3.318   9.669                        
 7451W        W14667   6.742   3.039   8.927                        
 7452W        W14668   9.605  13.852   2.838                        
 7453W        W14669   0.410  11.182  10.510                        
 7454W        W14670  11.537  13.563   1.959                        
 7455W        W14671   2.447   3.292   9.168                        
 7456W        W14672   4.638   9.579  11.335                        
 7457W        W14673   4.865   9.367   8.695                        
 7458W        W14674   4.827   2.731   8.631                        
 7459W        W14675   1.407  13.384  11.609                        
 7460W        W14676   9.935   6.439  11.060                        
 7461W        W14677  10.992   8.621   7.622                        
 7462W        W14678   2.308   9.328   2.315                        
 7463W        W14679  13.851  11.236   7.921                        
 7464W        W14680   4.647  11.523  10.024                        
 7465W        W14681   8.348   6.006   8.423                        
 7466W        W14682  13.556  10.636   2.555                        
 7467W        W14683   9.936   0.980   2.844                        
 7468W        W14684   6.729   7.827  11.276                        
 7469W        W14685   7.065   7.470  11.886                        
 7470W        W14686   1.740  13.854   0.902                        
 7471W        W14687   5.378   1.437   9.418                        
 7472W        W14688   6.733   7.203   0.082                        
 7473W        W14689   2.994  13.826   3.030                        
 7474W        W14690   3.315  12.332  11.388                        
 7475W        W14691   2.798   9.870   3.285                        
 7476W        W14692   7.307  13.865  11.891                        
 7477W        W14693   6.677  10.649  11.301                        
 7478W        W14694  11.800  10.678   1.467                        
 7479W        W14695   3.359   3.297   3.329                        
 7480W        W14696  13.659  13.048   8.986                        
 7481W        W14697  12.596   3.332   2.045                        
 7482W        W14698   6.693   3.598   2.249                        
 7483W        W14699   1.142   1.672   8.436                        
 7484W        W14700   5.971   0.363   0.465                        
 7485W        W14701   3.590   2.516   8.970                        
 7486W        W14702   3.290   8.792  11.627                        
 7487W        W14703  10.192  13.664   9.508                        
 7488W        W14704   9.696   4.611   7.886                        
 7489W        W14705   5.941   8.290   2.008                        
 7490W        W14706   8.050   0.969  11.639                        
 7491W        W14707   5.662  11.691   0.711                        
 7492W        W14708   5.352  13.349   2.534                        
 7493W        W14709   0.392   7.062   2.753                        
 7494W        W14710  10.729   9.421  11.045                        
 7495W        W14711   0.365  12.047   1.449                        
 7496W        W14712   4.030  13.336   8.995                        
 7497W        W14713  11.239  10.218  11.068                        
 7498W        W14714   9.382   2.305   0.129                        
 7499W        W14715   5.170  13.609  11.830                        
 7500W        W14716   4.672  12.574   2.314                        
 7501W        W14717   2.011   0.697   1.800                        
 7502W        W14718   3.618   9.640   0.675                        
 7503W        W14719   3.849   4.042   2.039                        
 7504W        W14720   3.085   0.948   3.563                        
 7505W        W14721   3.631  10.409  10.789                        
 7506W        W14722  12.546  10.717  11.000                        
 7507W        W14723   1.710  12.758   2.308                        
 7508W        W14724   1.654   5.402  11.630                        
 7509W        W14725   8.011  11.746  11.613                        
 7510W        W14726   1.159   3.804   1.971                        
 7511W        W14727   8.041   2.216   2.828                        
 7512W        W14728   8.793  13.329  10.281                        
 7513W        W14729   1.491  10.202   3.329                        
 7514W        W14730   0.172   8.587  11.871                        
 7515W        W14731   4.626   8.074   0.891                        
 7516W        W14732   8.604   3.101   0.626                        
 7517W        W14733   7.822   4.603   1.199                        
 7518W        W14734   6.233   1.243  11.603                        
 7519W        W14735   4.131   2.209  11.077                        
 7520W        W14736   9.631   1.763   1.230                        
 7521W        W14737   4.302   0.675  10.856                        
 7522W        W14738   7.471  12.834  11.299                        
 7523W        W14739  13.335   7.501   0.966                        
 7524W        W14740   1.202   9.600  10.517                        
 7525W        W14741   5.399   1.401  11.640                        
 7526W        W14742   4.074   8.576  10.519                        
 7527W        W14743   0.914  12.027   8.901                        
 7528W        W14744   9.880   5.091   9.252                        
 7529W        W14745   0.659   1.199   8.638                        
 7530W        W14746   5.959   9.901   0.967                        
 7531W        W14747   1.981   0.126   8.709                        
 7532W        W14748   2.218   1.961   3.014                        
 7533W        W14749   5.739  12.291   1.761                        
 7534W        W14750  11.775  11.505   4.462                        
 7535W        W14751  10.369   9.676   1.486                        
 7536W        W14752   9.856   2.507   9.517                        
 7537W        W14753   3.256  11.282   3.644                        
 7538W        W14754   2.546   8.095  11.618                        
 7539W        W14755  12.291  10.159   0.635                        
 7540W        W14756  11.536  13.903   9.739                        
 7541W        W14757   9.958   9.703   0.891                        
 7542W        W14758   4.830   4.422  10.065                        
 7543W        W14759   5.937   5.910  11.860                        
 7544W        W14760   0.608   8.797   0.400                        
 7545W        W14761   6.711   1.924   3.878                        
 7546W        W14762   3.593   6.720   2.249                        
 7547W        W14763   1.705   0.648   2.001                        
 7548W        W14764   1.479   8.868   2.233                        
 7549W        W14765   4.383   0.942   0.624                        
 7550W        W14766  10.697  13.341   1.779                        
 7551W        W14767   2.984   4.591  11.035                        
 7552W        W14768   8.065   2.247   2.477                        
 7553W        W14769   1.719   3.254  11.846                        
 7554W        W14770   0.949   6.985   1.959                        
 7555W        W14771   4.357   1.422  10.829                        
 7556W        W14772   3.885   1.238  10.536                        
 7557W        W14773   6.531  11.958   0.077                        
 7558W        W14774   9.416   6.748   0.125                        
 7559W        W14775   3.079   6.982   0.101                        
 7560W        W14776  12.330   1.185  11.285                        
 7561W        W14777   9.049   8.308   1.957                        
 7562W        W14778   6.982   0.878   0.609                        
 7563W        W14779   9.148   9.316  10.009                        
 7564W        W14780   8.106   9.872   8.377                        
 7565W        W14781   7.782  11.737  11.922                        
 7566W        W14782   9.870   9.374   3.053                        
 7567W        W14783   8.553   6.508   8.376                        
 7568W        W14784   9.168   3.533  11.310                        
 7569W        W14785  11.488   5.638   8.405                        
 7570W        W14786   5.892   0.679   2.288                        
 7571W        W14787   6.150   1.451   3.002                        
 7572W        W14788   2.209   2.806   3.128                        
 7573W        W14789  13.558  12.041   9.427                        
 7574W        W14790   6.719  10.947   0.660                        
 7575W        W14791   4.060   3.509   0.944                        
 7576W        W14792   6.431   3.613   2.772                        
 7577W        W14793  13.556  12.794   2.301                        
 7578W        W14794   0.940   6.252  10.542                        
 7579W        W14795   5.156   5.622   9.253                        
 7580W        W14796   4.585  11.171  11.123                        
 7581W        W14797  13.604   6.706   9.222                        
 7582W        W14798  13.582  12.284   0.087                        
 7583W        W14799  13.888   8.354   0.186                        
 7584W        W14800  12.314   5.428  11.877                        
 7585W        W14801   3.564  13.065   3.293                        
 7586W        W14802  12.501   0.368  11.284                        
 7587W        W14803   3.768   5.357   2.286                        
 7588W        W14804   0.671   1.397   3.001                        
 7589W        W14805   6.159   4.827   0.103                        
 7590W        W14806   1.147  12.513   9.249                        
 7591W        W14807   0.941   7.212   9.156                        
 7592W        W14808   1.691   0.888  11.347                        
 7593W        W14809   0.619  10.477   0.873                        
 7594W        W14810   3.302  13.112   9.528                        
 7595W        W14811   7.834   4.940   4.404                        
 7596W        W14812   3.772  12.492   3.273                        
 7597W        W14813  11.973   6.466   3.276                        
 7598W        W14814   6.936   2.989   9.156                        
 7599W        W14815   7.528   5.893   1.212                        
 7600W        W14816   7.049   4.570  10.796                        
 7601W        W14817  11.977  10.109   3.896                        
 7602W        W14818   6.714   8.326   1.211                        
 7603W        W14819   3.596  11.802  11.920                        
 7604W        W14820  11.453   4.136   9.522                        
 7605W        W14821   3.793   7.734   0.629                        
 7606W        W14822   3.029   4.590   0.988                        
 7607W        W14823   5.682   4.385   3.396                        
 7608W        W14824   9.057   1.406   8.720                        
 7609W        W14825  12.058   5.367   2.037                        
 7610W        W14826  12.307   2.286  10.577                        
 7611W        W14827   6.210  10.635  11.607                        
 7612W        W14828   1.947   3.276   8.951                        
 7613W        W14829   9.600  12.307   7.820                        
 7614W        W14830   4.845   3.891   2.557                        
 7615W        W14831   4.089  13.586   8.371                        
 7616W        W14832   1.998   8.068   8.436                        
 7617W        W14833   2.546   1.764   9.204                        
 7618W        W14834  12.585   7.474  11.106                        
 7619W        W14835  11.969   3.101   9.713                        
 7620W        W14836   2.241   3.322  11.010                        
 7621W        W14837  10.728   7.519   9.215                        
 7622W        W14838   4.118  11.453   0.345                        
 7623W        W14839   2.765   1.212   0.200                        
 7624W        W14840   2.014   9.971   8.925                        
 7625W        W14841  12.242   6.746   9.791                        
 7626W        W14842  11.698  10.719   8.679                        
 7627W        W14843   5.925   3.801   3.014                        
 7628W        W14844  12.052  11.232  10.773                        
 7629W        W14845  13.336   3.582   3.036                        
 7630W        W14846   8.278   5.359   8.938                        
 7631W        W14847   2.785  11.525   9.445                        
 7632W        W14848   2.519  13.317   9.420                        
 7633W        W14849  13.561  12.791   9.493                        
 7634W        W14850   8.291   5.439   8.634                        
 7635W        W14851   8.797   6.793  10.253                        
 7636W        W14852  12.608  10.204   2.820                        
 7637W        W14853   7.796   0.380   3.916                        
 7638W        W14854  11.979   9.856  10.528                        
 7639W        W14855   3.513  11.486  11.886                        
 7640W        W14856   4.656  13.332   3.377                        
 7641W        W14857   1.462   0.125   2.541                        
 7642W        W14858  10.401   7.256   2.799                        
 7643W        W14859   7.497   1.148  10.213                        
 7644W        W14860   0.913   9.673   3.311                        
 7645W        W14861   9.621   7.782   2.240                        
 7646W        W14862   0.885   9.614   8.700                        
 7647W        W14863   9.631  10.433   0.602                        
 7648W        W14864  11.243  13.615  11.905                        
 7649W        W14865  12.578   3.276   3.370                        
 7650W        W14866  13.900   2.802  11.821                        
 7651W        W14867  13.590  12.254   1.423                        
 7652W        W14868   6.481   4.390   3.373                        
 7653W        W14869   5.146   0.723   9.772                        
 7654W        W14870   9.129   7.563   9.183                        
 7655W        W14871  12.520  12.812  11.821                        
 7656W        W14872   2.488   5.437   4.459                        
 7657W        W14873  13.111  12.026  10.259                        
 7658W        W14874   3.283   7.483   1.404                        
 7659W        W14875   4.405   4.087  10.563                        
 7660W        W14876  10.951   8.384   8.348                        
 7661W        W14877   1.748   8.647  10.566                        
 7662W        W14878   6.937   2.481  11.646                        
 7663W        W14879  10.436  13.313  11.012                        
 7664W        W14880  11.191   3.891   0.417                        
 7665W        W14881   6.727  10.480  10.812                        
 7666W        W14882   7.036   3.006   0.103                        
 7667W        W14883  10.449  11.430   2.761                        
 7668W        W14884  13.900   2.787   2.548                        
 7669W        W14885   7.467   8.875   8.705                        
 7670W        W14886  10.649  10.708   9.683                        
 7671W        W14887   3.245  13.610   0.359                        
 7672W        W14888   7.592   9.694   1.682                        
 7673W        W14889  10.221   9.922   1.753                        
 7674W        W14890   8.640   2.572   1.162                        
 7675W        W14891  10.143   8.358  10.049                        
 7676W        W14892   9.641  13.595   2.794                        
 7677W        W14893  13.847   0.678   3.045                        
 7678W        W14894  11.211   1.738   2.303                        
 7679W        W14895   6.466   1.660  11.041                        
 7680W        W14896   6.698   1.974   3.387                        
 7681W        W14897  13.874  11.472  10.548                        
 7682W        W14898   4.634   2.461  10.475                        
 7683W        W14899   7.480   2.817  10.864                        
 7684W        W14900   3.252   4.862   1.997                        
 7685W        W14901   5.699  10.187   2.253                        
 7686W        W14902   7.563   1.221   3.340                        
 7687W        W14903   3.797   5.716  11.930                        
 7688W        W14904   1.759   6.266   9.703                        
 7689W        W14905   4.116   4.884   2.293                        
 7690W        W14906   6.474   6.699   0.115                        
 7691W        W14907   9.333  10.926  10.747                        
 7692W        W14908   0.933  13.836   1.780                        
 7693W        W14909   6.472   4.907   4.190                        
 7694W        W14910   0.641   9.136  11.375                        
 7695W        W14911   6.976   4.118   3.298                        
 7696W        W14912  10.388   8.796   2.213                        
 7697W        W14913  10.155  10.715   9.955                        
 7698W        W14914   5.936  11.508   3.127                        
 7699W        W14915  12.269  10.387   0.341                        
 7700W        W14916   5.427   5.382  10.297                        
 7701W        W14917   2.816  13.016   9.500                        
 7702W        W14918  12.510   6.187   1.208                        
 7703W        W14919   2.555   2.729   9.788                        
 7704W        W14920   8.837  12.788   3.388                        
 7705W        W14921  13.028   4.374   8.067                        
 7706W        W14922   6.200  13.115   8.906                        
 7707W        W14923   3.787   0.166   8.409                        
 7708W        W14924  13.074   6.797   9.776                        
 7709W        W14925  13.595   3.889  11.594                        
 7710W        W14926   0.120   0.115   8.646                        
 7711W        W14927  10.940   3.045   2.523                        
 7712W        W14928   1.917   5.107   0.200                        
 7713W        W14929   0.358   5.394   0.622                        
 7714W        W14930   2.456   0.630   9.776                        
 7715W        W14931  10.992   7.544  11.617                        
 7716W        W14932   4.567   5.478   4.102                        
 7717W        W14933   6.472   1.722   2.545                        
 7718W        W14934   8.609   0.700   8.974                        
 7719W        W14935  10.481  12.483  11.102                        
 7720W        W14936   1.202  10.382   0.100                        
 7721W        W14937   7.793  12.782   9.233                        
 7722W        W14938   3.093   7.251  11.293                        
 7723W        W14939  11.501   3.854  10.042                        
 7724W        W14940  11.999   1.730   8.341                        
 7725W        W14941   9.317  11.738   3.380                        
 7726W        W14942   9.406   9.640  11.922                        
 7727W        W14943   4.311   4.581   8.929                        
 7728W        W14944  13.106  13.085   2.045                        
 7729W        W14945   2.479   3.800   9.453                        
 7730W        W14946   5.135  10.173   0.130                        
 7731W        W14947   5.372  10.208   8.924                        
 7732W        W14948  11.810   4.301   9.680                        
 7733W        W14949   0.927   4.327  10.507                        
 7734W        W14950   7.792   4.398  11.658                        
 7735W        W14951   5.468  11.751   3.599                        
 7736W        W14952   6.527  11.444   9.425                        
 7737W        W14953   3.777   8.814   8.902                        
 7738W        W14954  10.460   2.209  11.847                        
 7739W        W14955   8.078  12.763  10.487                        
 7740W        W14956   2.768  13.136   0.975                        
 7741W        W14957   8.314   0.888  11.855                        
 7742W        W14958   5.890   4.932   9.217                        
 7743W        W14959   6.770   9.336  10.035                        
 7744W        W14960  11.217  12.840   0.918                        
 7745W        W14961  11.245  13.378   9.532                        
 7746W        W14962  12.051   7.578  11.925                        
 7747W        W14963  13.856   6.698   3.329                        
 7748W        W14964   5.640   9.586   0.873                        
 7749W        W14965   8.901   4.905  11.589                        
 7750W        W14966   4.325   2.237   9.712                        
 7751W        W14967  11.163   6.264   9.678                        
 7752W        W14968   8.078   3.888  10.553                        
 7753W        W14969   4.947  12.767   0.423                        
 7754W        W14970   6.489   7.549  11.066                        
 7755W        W14971  12.085   6.770   2.488                        
 7756W        W14972   7.039  11.759   1.489                        
 7757W        W14973   5.701   9.421   1.468                        
 7758W        W14974   9.149  11.545  10.000                        
 7759W        W14975   4.097   0.915   3.330                        
 7760W        W14976   9.583   4.116   9.742                        
 7761W        W14977   6.233   5.396   3.330                        
 7762W        W14978   5.988   9.066   2.837                        
 7763W        W14979  13.597  10.903   3.397                        
 7764W        W14980  13.364  13.299   2.561                        
 7765W        W14981   3.586   0.939   0.939                        
 7766W        W14982   1.681   4.382   1.790                        
 7767W        W14983   0.150  11.217  10.057                        
 7768W        W14984   5.717   9.905   1.533                        
 7769W        W14985   5.628   2.805   8.905                        
 7770W        W14986   2.977   1.196   3.077                        
 7771W        W14987   6.148  12.835   2.831                        
 7772W        W14988   3.619   9.155  11.369                        
 7773W        W14989   6.731  11.163   1.787                        
 7774W        W14990  10.405   6.962   0.871                        
 7775W        W14991   1.723   9.429   8.459                        
 7776W        W14992   9.428   9.092  11.369                        
 7777W        W14993   9.330   0.440   2.212                        
 7778W        W14994   8.303  10.689  11.651                        
 7779W        W14995   7.565   3.793   1.973                        
 7780W        W14996   8.001   8.309   4.388                        
 7781W        W14997   1.451  11.701   0.725                        
 7782W        W14998   2.260   3.596   9.476                        
 7783W        W14999   9.053   8.561   1.441                        
 7784W        W15000   8.547   9.135  10.283                        
 7785W        W15001   8.862  12.746   1.402                        
 7786W        W15002  10.928   5.170   9.725                        
 7787W        W15003  12.536   5.925   0.095                        
 7788W        W15004   5.922  11.554   0.070                        
 7789W        W15005   7.283   9.412   8.110                        
 7790W        W15006   8.355   2.476  10.286                        
 7791W        W15007  13.919   5.091   1.532                        
 7792W        W15008  12.514  10.720   1.424                        
 7793W        W15009   3.865  11.546   0.675                        
 7794W        W15010   4.296   6.686   1.263                        
 7795W        W15011  10.657  10.459  11.878                        
 7796W        W15012  13.849   2.565   1.782                        
 7797W        W15013   8.544   4.560  11.014                        
 7798W        W15014   9.632   6.993  10.014                        
 7799W        W15015   4.409   4.391   9.746                        
 7800W        W15016  12.327   0.650   9.984                        
 7801W        W15017   0.967   4.115   8.069                        
 7802W        W15018   3.322   1.765   8.084                        
 7803W        W15019   4.331   6.001   2.575                        
 7804W        W15020   5.886   7.826  10.584                        
 7805W        W15021  11.522   8.364   2.481                        
 7806W        W15022  13.293   5.944   8.875                        
 7807W        W15023   1.457   4.641   9.719                        
 7808W        W15024  12.805   4.376   0.343                        
 7809W        W15025   3.585   6.208   9.459                        
 7810W        W15026  10.173   8.055   0.127                        
 7811W        W15027   7.799   6.262   8.691                        
 7812W        W15028  10.378   0.952   1.509                        
 7813W        W15029  10.910   9.106   3.057                        
 7814W        W15030   6.942   1.401  11.353                        
 7815W        W15031  10.450   2.722   0.443                        
 7816W        W15032   8.113   9.637   0.341                        
 7817W        W15033   2.571   8.267  11.563                        
 7818W        W15034   3.803   4.873   3.128                        
 7819W        W15035   6.704   7.486  11.907                        
 7820W        W15036   5.950   9.368   8.402                        
 7821W        W15037   4.623   0.354  11.323                        
 7822W        W15038   0.094  11.993   8.605                        
 7823W        W15039   3.887   2.046  10.244                        
 7824W        W15040   3.291   2.290  11.648                        
 7825W        W15041   2.837   1.982   9.979                        
 7826W        W15042   5.363  13.024   2.493                        
 7827W        W15043   0.920  13.029  10.816                        
 7828W        W15044   0.176   1.990   2.289                        
 7829W        W15045   2.555   4.371   9.689                        
 7830W        W15046  11.959  13.119   0.926                        
 7831W        W15047   1.136   8.326   1.795                        
 7832W        W15048   3.264  13.873   1.962                        
 7833W        W15049  11.691   3.020   2.587                        
 7834W        W15050   8.792   0.897   8.899                        
 7835W        W15051   4.655   6.991   8.409                        
 7836W        W15052  10.162  12.283  10.751                        
 7837W        W15053   1.961   1.710   7.606                        
 7838W        W15054   2.795   6.747   9.703                        
 7839W        W15055  11.552   2.821  10.542                        
 7840W        W15056  13.657   8.899   1.433                        
 7841W        W15057   3.044   4.569  10.743                        
 7842W        W15058   4.940   3.045   1.781                        
 7843W        W15059   2.547  11.284   8.338                        
 7844W        W15060   4.580  11.259   3.114                        
 7845W        W15061   5.160   8.828   0.914                        
 7846W        W15062  13.616   8.301  10.287                        
 7847W        W15063  12.321   5.193   3.665                        
 7848W        W15064   0.109   2.207  10.774                        
 7849W        W15065  13.629  13.012   7.854                        
 7850W        W15066   1.667  12.826  11.290                        
 7851W        W15067   3.029   9.107   2.770                        
 7852W        W15068   0.374  11.512   3.103                        
 7853W        W15069   3.016   2.223   1.699                        
 7854W        W15070  10.176   8.086   9.262                        
 7855W        W15071   2.447   9.081   3.004                        
 7856W        W15072   7.774   3.540   3.373                        
 7857W        W15073  13.656   4.630  11.036                        
 7858W        W15074   0.134  11.434   8.731                        
 7859W        W15075   8.011   6.471   0.982                        
 7860W        W15076  12.273  10.656  11.835                        
 7861W        W15077   3.575   1.459   1.485                        
 7862W        W15078  13.364  12.854   0.086                        
 7863W        W15079   4.929   8.374  11.101                        
 7864W        W15080   6.988  13.277   9.465                        
 7865W        W15081   2.470   3.825   3.069                        
 7866W        W15082   2.201   7.775   2.514                        
 7867W        W15083  11.473   7.268  10.024                        
 7868W        W15084  10.689   6.531  11.082                        
 7869W        W15085  10.995   8.089  11.929                        
 7870W        W15086  12.285   6.762   0.643                        
 7871W        W15087   3.520   1.926   8.620                        
 7872W        W15088   1.704   2.023   8.460                        
 7873W        W15089  10.937   7.791  10.236                        
 7874W        W15090   9.107  12.752   3.078                        
 7875W        W15091   1.954  13.115   8.963                        
 7876W        W15092   2.530   4.338  11.854                        
 7877W        W15093   3.535   2.311   9.706                        
 7878W        W15094  10.123   9.612   3.351                        
 7879W        W15095  12.534   4.916   1.959                        
 7880W        W15096   4.622   5.162   8.963                        
 7881W        W15097   3.350   9.919   9.503                        
 7882W        W15098   2.213   8.822   8.884                        
 7883W        W15099   8.798   1.730   3.062                        
 7884W        W15100   6.716   0.622   4.437                        
 7885W        W15101  11.263   7.508   1.960                        
 7886W        W15102   6.687   4.902  11.322                        
 7887W        W15103   3.102   7.215  10.758                        
 7888W        W15104  11.285   5.149   0.463                        
 7889W        W15105   4.838   4.379   9.403                        
 7890W        W15106   4.684   3.362   9.667                        
 7891W        W15107   7.242   1.658   9.960                        
 7892W        W15108  10.204   9.126   9.773                        
 7893W        W15109  12.542   2.239  11.341                        
 7894W        W15110   5.197   7.476   4.175                        
 7895W        W15111   7.852   5.426   1.762                        
 7896W        W15112   5.974   8.036   3.075                        
 7897W        W15113   4.614   5.634  11.124                        
 7898W        W15114  13.906   6.464   8.946                        
 7899W        W15115   1.181   1.148   0.185                        
 7900W        W15116   3.505   5.645   2.793                        
 7901W        W15117   8.638   9.121   8.623                        
 7902W        W15118   2.252   0.419   8.615                        
 7903W        W15119   7.285  10.200   0.345                        
 7904W        W15120  12.766   7.241  10.825                        
 7905W        W15121   1.229   2.759   0.343                        
 7906W        W15122  10.234   6.222   0.942                        
 7907W        W15123   7.494  13.657   9.140                        
 7908W        W15124   1.466   3.237   0.697                        
 7909W        W15125   8.049   1.661   8.713                        
 7910W        W15126  11.002   2.013   9.255                        
 7911W        W15127   4.409  11.208   1.137                        
 7912W        W15128  10.488   0.379   2.331                        
 7913W        W15129   5.997   1.491   1.425                        
 7914W        W15130   8.379   5.375   1.947                        
 7915W        W15131   8.386  10.164  10.307                        
 7916W        W15132   6.256   9.611  10.327                        
 7917W        W15133   9.091   6.486   0.069                        
 7918W        W15134  12.603   7.770   3.919                        
 7919W        W15135   5.367   6.989   0.911                        
 7920W        W15136  12.834   4.937   1.248                        
 7921W        W15137   6.467  13.833   3.875                        
 7922W        W15138   0.166   9.866   4.123                        
 7923W        W15139  13.877   8.590   1.684                        
 7924W        W15140   0.456   6.680   2.230                        
 7925W        W15141   0.861   7.753  10.506                        
 7926W        W15142   6.167   1.934   0.905                        
 7927W        W15143   6.722   2.549   2.288                        
 7928W        W15144   4.926   4.634   8.351                        
 7929W        W15145   2.713  10.455   3.128                        
 7930W        W15146   1.153   6.464  11.859                        
 7931W        W15147  10.412   3.333   3.287                        
 7932W        W15148  13.294  13.309   3.905                        
 7933W        W15149  13.295   6.475  11.908                        
 7934W        W15150   8.883   9.871   8.674                        
 7935W        W15151   2.824   0.191   2.216                        
 7936W        W15152   8.015  13.879   3.023                        
 7937W        W15153   1.190   1.984   4.354                        
 7938W        W15154   1.956   9.079  10.236                        
 7939W        W15155  11.277  10.978   9.986                        
 7940W        W15156  10.638  12.310   9.744                        
 7941W        W15157   4.151  11.953  11.599                        
 7942W        W15158   4.160   0.369   0.637                        
 7943W        W15159   7.582   6.493  11.347                        
 7944W        W15160   2.745   8.784   8.880                        
 7945W        W15161   7.239  10.178   9.772                        
 7946W        W15162   7.561   6.505   1.785                        
 7947W        W15163  13.869   7.471   0.403                        
 7948W        W15164  12.244  13.835  11.802                        
 7949W        W15165   1.952   7.518   2.737                        
 7950W        W15166   2.809   9.130   9.214                        
 7951W        W15167  13.021   1.728   0.362                        
 7952W        W15168   8.844   9.354   9.735                        
 7953W        W15169   6.746   0.411   8.427                        
 7954W        W15170   7.592  12.498   9.725                        
 7955W        W15171  13.861   1.446   1.977                        
 7956W        W15172   8.324   1.494   0.996                        
 7957W        W15173   2.732   3.075   0.086                        
 7958W        W15174  12.762  10.696  11.268                        
 7959W        W15175   3.815   3.604   2.236                        
 7960W        W15176   6.510  12.499   1.406                        
 7961W        W15177  11.956  11.536   3.078                        
 7962W        W15178  10.647  12.579  10.546                        
 7963W        W15179  13.844   8.553  11.067                        
 7964W        W15180   4.660   2.253   0.398                        
 7965W        W15181   6.787   8.642   9.180                        
 7966W        W15182  10.976   3.599   1.676                        
 7967W        W15183   3.555   1.695   9.992                        
 7968W        W15184   6.473   3.286   0.984                        
 7969W        W15185   0.113   1.975  11.100                        
 7970W        W15186   3.890   0.164   8.165                        
 7971W        W15187   0.456   9.318   1.753                        
 7972W        W15188   2.526  11.786   0.173                        
 7973W        W15189   7.848   5.155   4.130                        
 7974W        W15190   0.427   5.930  11.272                        
 7975W        W15191   4.672   6.530   0.145                        
 7976W        W15192   7.728   7.060   3.864                        
 7977W        W15193  11.784  10.653   0.144                        
 7978W        W15194   7.804   9.840   1.194                        
 7979W        W15195   1.661   4.029   3.576                        
 7980W        W15196   7.751   2.792   8.665                        
 7981W        W15197   0.082   4.601   8.979                        
 7982W        W15198   1.915   4.912   2.315                        
 7983W        W15199  13.886   4.655   1.260                        
 7984W        W15200   2.792   0.600  11.921                        
 7985W        W15201   6.233   4.631   3.932                        
 7986W        W15202  13.113   3.021   9.145                        
 7987W        W15203   2.460   5.401   2.534                        
 7988W        W15204   2.562   0.196   9.987                        
 7989W        W15205   9.854   4.570   0.095                        
 7990W        W15206  11.460   3.320   0.984                        
 7991W        W15207   0.873   2.264   2.309                        
 7992W        W15208   9.690   0.367   2.588                        
 7993W        W15209   9.647   1.718  11.348                        
 7994W        W15210   5.654   0.860   9.169                        
 7995W        W15211  11.813   1.144   1.153                        
 7996W        W15212   0.370   4.420  10.865                        
 7997W        W15213  11.281  12.600  11.900                        
 7998W        W15214  12.812   0.155   2.206                        
 7999W        W15215   4.030   7.572   9.186                        
 8000W        W15216  12.532   3.352   2.512                        
 8001W        W15217   1.241  13.274   3.125                        
 8002W        W15218   2.814  13.324   0.906                        
 8003W        W15219   1.701   6.408   1.973                        
 8004W        W15220   0.440   7.329   1.448                        
 8005W        W15221   5.432  10.473  10.273                        
 8006W        W15222  11.206   5.199   4.181                        
 8007W        W15223   1.740   0.687   2.762                        
 8008W        W15224   7.325   6.266  11.395                        
 8009W        W15225   9.847   0.441   2.786                        
 8010W        W15226   8.649  10.182  10.734                        
 8011W        W15227   6.967   5.997   0.935                        
 8012W        W15228  12.549   4.653   3.391                        
 8013W        W15229   1.661  13.069   8.922                        
 8014W        W15230   9.627  13.141   8.364                        
 8015W        W15231   3.302   3.007   0.183                        
 8016W        W15232   9.386   7.743   9.431                        
 8017W        W15233   9.963   9.956   2.262                        
 8018W        W15234   3.317   2.774   1.193                        
 8019W        W15235   6.246   0.432   7.931                        
 8020W        W15236  11.457  12.234  11.889                        
 8021W        W15237   8.554  11.457   9.711                        
 8022W        W15238   6.233  11.163   3.609                        
 8023W        W15239   7.024   5.928   8.680                        
 8024W        W15240   8.552   4.944  11.079                        
 8025W        W15241  12.797   8.071   4.339                        
 8026W        W15242   5.899   2.470   8.625                        
 8027W        W15243   9.707  10.639   3.095                        
 8028W        W15244   8.542   0.349  10.291                        
 8029W        W15245   9.633  11.267   2.594                        
 8030W        W15246   2.047  13.368   0.677                        
 8031W        W15247  12.854   7.282  11.010                        
 8032W        W15248   1.458  10.972  11.624                        
 8033W        W15249   0.390  12.274   1.945                        
 8034W        W15250   7.262   6.984   9.163                        
 8035W        W15251  10.909  11.762  10.565                        
 8036W        W15252   9.689   0.983   2.774                        
 8037W        W15253  11.254  12.288  10.052                        
 8038W        W15254   6.989  13.138  10.762                        
 8039W        W15255   3.885  11.551   3.606                        
 8040W        W15256   0.653   7.519   3.318                        
 8041W        W15257   8.570   9.323   8.676                        
 8042W        W15258   4.141   6.789  11.612                        
 8043W        W15259   3.081   3.854   9.466                        
 8044W        W15260  13.341  13.658   0.166                        
 8045W        W15261   5.674   9.869   9.404                        
 8046W        W15262   3.078   1.684   9.221                        
 8047W        W15263   9.613  13.576   7.920                        
 8048W        W15264   4.835   6.001   8.120                        
 8049W        W15265   5.700   2.001   9.147                        
 8050W        W15266   0.141   3.074   1.518                        
 8051W        W15267   3.327   8.537   1.419                        
 8052W        W15268   9.584   2.231   0.652                        
 8053W        W15269   3.047  11.963   1.762                        
 8054W        W15270  13.876   8.024   9.166                        
 8055W        W15271  13.628   8.068   0.425                        
 8056W        W15272   9.664   1.416   8.974                        
 8057W        W15273   8.078   9.626   7.909                        
 8058W        W15274   1.998  11.740   0.998                        
 8059W        W15275   5.977   7.762   2.534                        
 8060W        W15276   9.851   6.741  10.798                        
 8061W        W15277   0.403  11.492   4.083                        
 8062W        W15278  10.971   8.333   3.632                        
 8063W        W15279  11.781   6.467   1.956                        
 8064W        W15280   7.737   8.084  10.291                        
 8065W        W15281  12.314   8.026  11.065                        
 8066W        W15282   0.922   3.546   0.091                        
 8067W        W15283   4.159   8.620   9.788                        
 8068W        W15284   4.569   1.947  11.061                        
 8069W        W15285   6.176   5.882  10.053                        
 8070W        W15286   9.063  13.118   9.712                        
 8071W        W15287   1.985   1.469   1.428                        
 8072W        W15288   5.925   5.694   0.640                        
 8073W        W15289   5.712  10.990   3.311                        
 8074W        W15290  12.038   1.977   3.599                        
 8075W        W15291  12.073   2.569   8.340                        
 8076W        W15292   4.070   6.168   1.161                        
 8077W        W15293   3.529  11.541  10.523                        
 8078W        W15294  13.904  10.120   1.945                        
 8079W        W15295   2.222   2.269  10.204                        
 8080W        W15296   4.361   9.101  11.926                        
 8081W        W15297  10.752   2.724   0.628                        
 8082W        W15298   5.725   6.177   2.559                        
 8083W        W15299   8.289  10.397  10.002                        
 8084W        W15300   0.370  13.381   0.406                        
 8085W        W15301   5.994   1.501  11.580                        
 8086W        W15302   6.785   0.185   8.348                        
 8087W        W15303  11.718  10.199   3.594                        
 8088W        W15304  10.483   5.987   8.142                        
 8089W        W15305  13.894   2.225  11.322                        
 8090W        W15306  10.434   2.002   1.211                        
 8091W        W15307  11.800   2.570   2.320                        
 8092W        W15308   5.636   4.075   3.094                        
 8093W        W15309   8.556   5.948   2.758                        
 8094W        W15310   0.184  13.661   9.524                        
 8095W        W15311   6.005   3.299   8.871                        
 8096W        W15312   7.997   0.427   1.772                        
 8097W        W15313   6.237   7.316   1.961                        
 8098W        W15314  11.706   7.783   2.506                        
 8099W        W15315   0.380   4.058   1.205                        
 8100W        W15316   0.621   9.155   8.929                        
 8101W        W15317   4.947   4.882  10.771                        
 8102W        W15318   9.391   8.051   3.364                        
 8103W        W15319   3.886   9.104   9.155                        
 8104W        W15320  10.399   6.146   2.297                        
 8105W        W15321  13.837   5.657   0.602                        
 8106W        W15322   0.949  13.114   3.071                        
 8107W        W15323   5.893   9.356   9.160                        
 8108W        W15324   1.151   4.409   9.194                        
 8109W        W15325   6.781   3.320   9.770                        
 8110W        W15326   1.692   5.210   2.206                        
 8111W        W15327   6.959  10.232   3.038                        
 8112W        W15328   4.299  13.571   0.172                        
 8113W        W15329  13.077  13.540   1.263                        
 8114W        W15330  11.554  13.642   8.418                        
 8115W        W15331   4.942   8.564   3.110                        
 8116W        W15332  11.272  11.167   2.508                        
 8117W        W15333   7.256  10.117  11.583                        
 8118W        W15334   1.674   5.719   8.144                        
 8119W        W15335   9.356   4.675   4.412                        
 8120W        W15336  13.083   8.812   1.174                        
 8121W        W15337   1.414  11.493   9.743                        
 8122W        W15338  10.165   0.121  10.799                        
 8123W        W15339   1.929   4.141   8.715                        
 8124W        W15340   8.107   0.874   8.973                        
 8125W        W15341  11.513   0.378   2.848                        
 8126W        W15342  11.961   8.592   0.934                        
 8127W        W15343   1.221   3.239  11.338                        
 8128W        W15344   5.992  10.662   1.726                        
 8129W        W15345   1.926   3.081  10.272                        
 8130W        W15346   7.588  10.227  11.802                        
 8131W        W15347   6.167   5.476  10.814                        
 8132W        W15348   2.291  11.552   9.164                        
 8133W        W15349   4.880   1.172   0.359                        
 8134W        W15350  13.103   6.533   9.963                        
 8135W        W15351   8.527   8.568   0.715                        
 8136W        W15352  13.893   3.334   2.007                        
 8137W        W15353   9.636   3.064   1.697                        
 8138W        W15354  13.610   6.752   0.680                        
 8139W        W15355   1.198  13.115   1.233                        
 8140W        W15356   1.485   0.102  11.566                        
 8141W        W15357  10.666   5.739  10.544                        
 8142W        W15358  11.470   7.273   3.278                        
 8143W        W15359  10.164   1.437   9.744                        
 8144W        W15360  12.046   2.794   0.069                        
 8145W        W15361   8.310  11.229   0.457                        
 8146W        W15362   5.922   7.761   4.199                        
 8147W        W15363  10.982   8.372   0.963                        
 8148W        W15364   6.699   0.872  11.342                        
 8149W        W15365  10.477   5.373   8.080                        
 8150W        W15366   9.972   6.499   3.333                        
 8151W        W15367   0.685   8.909   9.714                        
 8152W        W15368   0.684   6.949   0.925                        
 8153W        W15369  11.431  11.171   3.291                        
 8154W        W15370   2.746  12.866   3.348                        
 8155W        W15371  12.003   3.334   1.743                        
 8156W        W15372   0.160  11.513   7.629                        
 8157W        W15373   8.257   9.965   1.519                        
 8158W        W15374  13.060   5.975   2.840                        
 8159W        W15375  13.572   4.639  10.785                        
 8160W        W15376   2.466   2.729   2.844                        
 8161W        W15377   6.167   8.867   8.191                        
 8162W        W15378   9.925   0.350   9.769                        
 8163W        W15379   9.675   9.336  10.475                        
 8164W        W15380   6.195   8.622   9.251                        
 8165W        W15381   4.152  12.267   9.758                        
 8166W        W15382   9.640   4.902  11.057                        
 8167W        W15383   4.331   2.512  10.829                        
 8168W        W15384   8.257   6.524  11.374                        
 8169W        W15385   2.770   9.892   2.045                        
 8170W        W15386   7.206   0.430   2.805                        
 8171W        W15387   8.521   8.588   0.874                        
 8172W        W15388   2.293   7.030   2.307                        
 8173W        W15389   5.114   1.657   8.399                        
 8174W        W15390  13.046   4.311   9.737                        
 8175W        W15391   0.387  12.019   9.968                        
 8176W        W15392   0.459   1.717   4.398                        
 8177W        W15393   0.654   2.739   0.660                        
 8178W        W15394   2.040   1.410   9.417                        
 8179W        W15395   2.764   2.808  11.873                        
 8180W        W15396   2.490   4.121   4.116                        
 8181W        W15397   6.423  11.447   9.785                        
 8182W        W15398  13.116   4.902   0.109                        
 8183W        W15399   4.678   9.896  11.620                        
 8184W        W15400   5.406  11.199   9.728                        
 8185W        W15401   2.534   7.261   1.950                        
 8186W        W15402  11.759   9.936   9.220                        
 8187W        W15403   3.275   0.871   2.508                        
 8188W        W15404   1.496   3.551   1.515                        
 8189W        W15405   3.562   9.418   4.162                        
 8190W        W15406  11.511   2.566   8.709                        
 8191W        W15407   1.983   6.437   8.372                        
 8192W        W15408   4.951   8.321   2.476                        
 8193W        W15409  13.141   2.290   2.046                        
 8194W        W15410   3.816  13.286   8.433                        
 8195W        W15411   7.520   1.170   4.168                        
 8196W        W15412  11.196   5.982  11.893                        
 8197W        W15413   3.527   3.091   9.423                        
 8198W        W15414   2.538   7.857   1.262                        
 8199W        W15415  10.221  13.361  10.809                        
 8200W        W15416   5.134   7.795   1.701                        
 8201W        W15417  13.103   1.447   8.605                        
 8202W        W15418   1.201   2.288   9.669                        
 8203W        W15419   8.059  11.550   9.971                        
 8204W        W15420   2.501   2.806   0.165                        
 8205W        W15421   2.507   1.442   1.519                        
 8206W        W15422  10.222   2.769   1.146                        
 8207W        W15423   2.723   7.251   2.272                        
 8208W        W15424   9.607   4.876   0.679                        
 8209W        W15425  13.349   3.102   3.365                        
 8210W        W15426   3.552   7.820   3.299                        
 8211W        W15427  10.670  12.790   1.196                        
 8212W        W15428   3.292  13.330  11.285                        
 8213W        W15429   4.302  11.541   0.085                        
 8214W        W15430   4.153   2.776   0.423                        
 8215W        W15431   9.178   6.793   2.306                        
 8216W        W15432   3.262   7.239   9.450                        
 8217W        W15433   6.985  13.052   9.691                        
 8218W        W15434   7.807   7.317  10.285                        
 8219W        W15435   1.249   7.833  10.220                        
 8220W        W15436   0.447   6.213  10.271                        
 8221W        W15437   1.406  12.333  10.581                        
 8222W        W15438   4.875   6.225   9.157                        
 8223W        W15439  12.583  10.983  11.880                        
 8224W        W15440  13.015  10.673   9.260                        
 8225W        W15441   5.189   0.988   9.953                        
 8226W        W15442   6.784   9.590   3.581                        
 8227W        W15443  11.514   1.735   3.634                        
 8228W        W15444   8.000   4.048   3.602                        
 8229W        W15445   1.748   0.677   4.465                        
 8230W        W15446   8.868   3.346  10.826                        
 8231W        W15447  11.452   3.091   2.547                        
 8232W        W15448   9.693   5.683  11.866                        
 8233W        W15449   1.236   1.465   8.338                        
 8234W        W15450   8.573   6.998   3.584                        
 8235W        W15451   4.557   7.294   9.724                        
 8236W        W15452   8.321   9.628   2.594                        
 8237W        W15453  10.495   3.340   2.324                        
 8238W        W15454   2.463  12.222   0.712                        
 8239W        W15455  12.295  12.019   9.255                        
 8240W        W15456   8.267   9.416   8.610                        
 8241W        W15457   6.484  11.012   1.249                        
 8242W        W15458   5.979   3.545  10.246                        
 8243W        W15459   2.232   6.497   3.089                        
 8244W        W15460   9.123   3.817   9.427                        
 8245W        W15461   1.190   6.439  11.069                        
 8246W        W15462   0.146   9.644   8.390                        
 8247W        W15463  12.068  13.609   8.438                        
 8248W        W15464   7.256   9.601   1.790                        
 8249W        W15465   4.852  11.728   9.495                        
 8250W        W15466   3.319   8.556   2.556                        
 8251W        W15467   1.172  12.529  11.286                        
 8252W        W15468   4.319  10.420   0.618                        
 8253W        W15469   4.036  13.340   2.527                        
 8254W        W15470  11.754  10.694   2.225                        
 8255W        W15471   2.764  11.997  10.004                        
 8256W        W15472   4.379   7.559   0.097                        
 8257W        W15473   9.051  11.814   3.042                        
 8258W        W15474   5.382   0.914   9.517                        
 8259W        W15475   6.948   5.367  11.382                        
 8260W        W15476   6.671   0.361   0.429                        
 8261W        W15477   2.262   8.591   8.385                        
 8262W        W15478  10.166   3.833   9.226                        
 8263W        W15479   1.124   9.351   3.285                        
 8264W        W15480   8.877   0.986  11.852                        
 8265W        W15481   6.981   6.950   9.430                        
 8266W        W15482   2.822   2.029   1.772                        
 8267W        W15483  10.428   0.695  11.003                        
 8268W        W15484   4.301   2.572   0.621                        
 8269W        W15485   1.398   0.091  10.749                        
 8270W        W15486  13.837  11.733  11.559                        
 8271W        W15487   3.331   0.121   1.704                        
 8272W        W15488  13.802   3.020   0.154                        
 8273W        W15489   7.814  13.045   9.515                        
 8274W        W15490  13.858  13.903   1.182                        
 8275W        W15491  13.873   3.868  10.321                        
 8276W        W15492   7.314  12.258   2.333                        
 8277W        W15493   7.778   7.858   9.489                        
 8278W        W15494   2.006   4.357   2.764                        
 8279W        W15495   5.111   1.668   3.344                        
 8280W        W15496   2.468  10.926   2.046                        
 8281W        W15497   8.365  12.552  11.875                        
 8282W        W15498   5.159  10.992   2.229                        
 8283W        W15499   8.271   2.507   0.093                        
 8284W        W15500   2.181   3.331  11.845                        
 8285W        W15501   9.388   5.733  10.016                        
 8286W        W15502   3.896  12.516   9.697                        
 8287W        W15503   2.562  10.942  10.254                        
 8288W        W15504   6.697   9.592   8.626                        
 8289W        W15505   0.617   4.852   1.214                        
 8290W        W15506   2.197   0.638   9.454                        
 8291W        W15507   5.701  10.680  11.556                        
 8292W        W15508  13.123  13.060   0.611                        
 8293W        W15509   5.665  13.047   2.277                        
 8294W        W15510   0.091   9.859   0.156                        
 8295W        W15511  12.851   4.615   9.487                        
 8296W        W15512  12.317   3.593   0.960                        
 8297W        W15513   8.791   4.926   9.477                        
 8298W        W15514   3.851   0.156   0.646                        
 8299W        W15515   7.858   3.506   0.669                        
 8300W        W15516   5.699   4.060   7.559                        
 8301W        W15517   5.194   7.236   1.506                        
 8302W        W15518   3.313   8.881  10.210                        
 8303W        W15519   6.497   5.102  10.020                        
 8304W        W15520   5.990  12.536   3.655                        
 8305W        W15521   5.666   8.306   3.575                        
 8306W        W15522   3.351   8.629   8.956                        
 8307W        W15523   1.760  11.730   2.286                        
 8308W        W15524  10.104  13.294   3.035                        
 8309W        W15525   5.202   4.891  10.802                        
 8310W        W15526   3.007  12.825  11.660                        
 8311W        W15527   4.838   0.869   0.093                        
 8312W        W15528   1.405   9.693   9.512                        
 8313W        W15529   8.343   3.772   9.948                        
 8314W        W15530  11.993   3.839   9.519                        
 8315W        W15531   8.636  11.017   2.216                        
 8316W        W15532   3.833   4.665   1.139                        
 8317W        W15533   9.917   1.462   0.632                        
 8318W        W15534  10.755   7.005   1.742                        
 8319W        W15535  11.494  13.881   9.956                        
 8320W        W15536   5.386  12.078  10.328                        
 8321W        W15537   1.440  10.178   2.577                        
 8322W        W15538  10.738   2.808   3.040                        
 8323W        W15539   5.123   2.523   1.264                        
 8324W        W15540   5.380   0.631   9.710                        
 8325W        W15541  11.771  12.002   8.713                        
 8326W        W15542   0.630   7.573   2.509                        
 8327W        W15543   0.675  12.750   9.693                        
 8328W        W15544   4.135   2.732   1.975                        
 8329W        W15545  11.016   1.433   4.383                        
 8330W        W15546   0.631   1.433   4.171                        
 8331W        W15547  13.123   1.402  11.083                        
 8332W        W15548   5.878   2.488   9.488                        
 8333W        W15549   8.882   1.124   8.448                        
 8334W        W15550   1.956  11.023  10.002                        
 8335W        W15551   8.297  12.347   2.802                        
 8336W        W15552  12.047  10.380   3.315                        
 8337W        W15553   4.337  10.657  11.053                        
 8338W        W15554   4.317   8.904  10.763                        
 8339W        W15555   8.900  11.808   9.418                        
 8340W        W15556   2.302   1.955   4.071                        
 8341W        W15557   4.922  11.452   0.360                        
 8342W        W15558   7.482   1.127   7.859                        
 8343W        W15559   3.100   9.962   1.794                        
 8344W        W15560   6.792   3.889   0.342                        
 8345W        W15561  10.168  13.824   3.084                        
 8346W        W15562  13.401   7.766  10.762                        
 8347W        W15563   8.564  12.850   7.552                        
 8348W        W15564   5.925   5.371   8.133                        
 8349W        W15565   3.510  10.646  10.052                        
 8350W        W15566  13.319   3.237  10.776                        
 8351W        W15567  12.799  10.951   0.926                        
 8352W        W15568   8.099  13.604   3.896                        
 8353W        W15569   8.282   4.332   0.339                        
 8354W        W15570   8.899  12.484   0.431                        
 8355W        W15571  10.409   6.406  11.900                        
 8356W        W15572   4.655   7.269  10.474                        
 8357W        W15573   4.575  12.266   8.930                        
 8358W        W15574   3.630   8.022   2.799                        
 8359W        W15575   6.241   9.937   8.901                        
 8360W        W15576   9.048   0.340  10.243                        
 8361W        W15577  12.771  10.684   9.242                        
 8362W        W15578  10.114  13.645   8.372                        
 8363W        W15579   0.101  10.930   0.436                        
 8364W        W15580   8.044   2.210   3.027                        
 8365W        W15581   4.067  11.460   2.502                        
 8366W        W15582   0.701   4.415   1.961                        
 8367W        W15583   8.559   9.084   0.971                        
 8368W        W15584  11.290   2.524   8.992                        
 8369W        W15585   1.745   2.733   0.719                        
 8370W        W15586  12.868  13.311  10.592                        
 8371W        W15587  11.789   6.477  10.754                        
 8372W        W15588  13.866   8.081   2.272                        
 8373W        W15589  12.857   0.900  10.487                        
 8374W        W15590  10.155  12.783   0.647                        
 8375W        W15591   8.845   8.336  11.914                        
 8376W        W15592   7.207   5.692   0.371                        
 8377W        W15593   0.130   6.957   3.855                        
 8378W        W15594   0.627   1.943   3.279                        
 8379W        W15595   6.767   3.529   9.247                        
 8380W        W15596   8.089  10.974   2.228                        
 8381W        W15597   4.650   1.511   9.137                        
 8382W        W15598   7.279   5.111   0.094                        
 8383W        W15599  13.811   2.263   3.100                        
 8384W        W15600  11.469  12.844  10.262                        
 8385W        W15601   9.159  12.589   0.070                        
 8386W        W15602   9.641   0.395  11.340                        
 8387W        W15603  10.990   6.206   3.584                        
 8388W        W15604   3.869   8.026   9.135                        
 8389W        W15605   0.610   8.069   0.604                        
 8390W        W15606   0.913  11.525  10.231                        
 8391W        W15607  13.404  10.227   1.444                        
 8392W        W15608   4.581   9.614  11.811                        
 8393W        W15609   3.321   1.946   3.356                        
 8394W        W15610   4.047   3.322  10.570                        
 8395W        W15611   1.970   4.825   9.504                        
 8396W        W15612   6.221   2.233  10.050                        
 8397W        W15613   4.381   7.806   8.453                        
 8398W        W15614  10.183   0.096   3.604                        
 8399W        W15615   2.240   8.292  11.129                        
 8400W        W15616   7.250  10.229   0.969                        
 8401W        W15617   5.441   2.507   9.250                        
 8402W        W15618  12.802  10.662   9.505                        
 8403W        W15619   8.261   4.642   3.380                        
 8404W        W15620   8.002  12.242  11.560                        
 8405W        W15621  13.132   8.549   2.747                        
 8406W        W15622   1.196   5.379   8.698                        
 8407W        W15623  13.559  11.717   0.400                        
 8408W        W15624  10.728   0.595   0.986                        
 8409W        W15625  13.550  11.738   2.531                        
 8410W        W15626   4.137  11.282   3.572                        
 8411W        W15627  10.235   4.123   8.355                        
 8412W        W15628  10.442  12.260   8.337                        
 8413W        W15629   7.814   2.562  11.126                        
 8414W        W15630   8.828   2.248   3.272                        
 8415W        W15631  13.541   5.989   8.367                        
 8416W        W15632  13.076   5.927  10.064                        
 8417W        W15633   4.664   7.009  11.546                        
 8418W        W15634   0.968   7.749   8.691                        
 8419W        W15635   4.398   3.603   8.652                        
 8420W        W15636   4.368  12.031  11.871                        
 8421W        W15637   8.275   0.190   1.707                        
 8422W        W15638  10.203   7.554   8.881                        
 8423W        W15639  13.329   8.277   0.902                        
 8424W        W15640  11.445  12.546  10.235                        
 8425W        W15641  11.758   4.686   9.750                        
 8426W        W15642   0.380   1.774  10.509                        
 8427W        W15643   9.315   6.244   0.077                        
 8428W        W15644   1.655   5.103   3.573                        
 8429W        W15645   6.752   0.345   0.125                        
 8430W        W15646   9.428   9.392   8.688                        
 8431W        W15647  12.022   5.930   0.077                        
 8432W        W15648   9.687  10.690   8.949                        
 8433W        W15649   7.258   4.406   8.883                        
 8434W        W15650   4.082   9.962   2.271                        
 8435W        W15651  11.798   2.464   0.950                        
 8436W        W15652   4.413  10.952  11.633                        
 8437W        W15653   0.159   6.990   0.399                        
 8438W        W15654   7.800  12.324   0.406                        
 8439W        W15655   0.924   4.593   1.419                        
 8440W        W15656   5.946   9.863   9.722                        
 8441W        W15657   0.073   5.123   1.189                        
 8442W        W15658   0.710   2.772   1.153                        
 8443W        W15659   3.325   8.535  11.024                        
 8444W        W15660  12.765  13.620   3.087                        
 8445W        W15661   3.561   8.063  10.541                        
 8446W        W15662   1.248  11.957   9.686                        
 8447W        W15663  12.841   0.596  10.064                        
 8448W        W15664   1.995  10.712   8.367                        
 8449W        W15665   8.907   6.716   1.726                        
 8450W        W15666   6.999   3.256  10.280                        
 8451W        W15667   1.138   9.055   0.465                        
 8452W        W15668   0.709   0.946   1.403                        
 8453W        W15669   2.196   8.305   2.781                        
 8454W        W15670  13.543   2.483  11.034                        
 8455W        W15671  11.524  11.265  11.281                        
 8456W        W15672   8.352   0.917   8.631                        
 8457W        W15673   5.464   2.568   1.189                        
 8458W        W15674  11.692   8.355  11.319                        
 8459W        W15675   5.359  12.298   0.970                        
 8460W        W15676   0.691   4.632   0.400                        
 8461W        W15677   6.740   8.103  11.027                        
 8462W        W15678   2.220   3.864   2.206                        
 8463W        W15679   8.279  11.544   0.096                        
 8464W        W15680  13.280   5.352  11.046                        
 8465W        W15681  10.757   4.081   8.970                        
 8466W        W15682   9.059  12.817   1.954                        
 8467W        W15683   9.701   2.025   2.741                        
 8468W        W15684  11.968   6.486   1.725                        
 8469W        W15685   5.710   1.181   7.536                        
 8470W        W15686   3.611  13.371   2.244                        
 8471W        W15687   7.201  11.964   3.363                        
 8472W        W15688   9.075   9.319   0.368                        
 8473W        W15689  10.181   4.061   3.610                        
 8474W        W15690   1.447   5.119   8.113                        
 8475W        W15691   5.168  13.559  10.589                        
 8476W        W15692  10.708   8.638   1.531                        
 8477W        W15693   9.913   0.711  10.505                        
 8478W        W15694   0.461   5.475   3.090                        
 8479W        W15695   4.648  12.607   2.541                        
 8480W        W15696   5.997  13.094   0.605                        
 8481W        W15697   3.000   0.398   2.063                        
 8482W        W15698   3.612   2.718   8.970                        
 8483W        W15699   5.195   6.477  11.861                        
 8484W        W15700  13.032   7.262   1.708                        
 8485W        W15701   4.346  11.754   0.926                        
 8486W        W15702  13.018  10.728   2.598                        
 8487W        W15703   2.527   6.713   9.995                        
 8488W        W15704   3.031   6.460  11.614                        
 8489W        W15705  11.247  13.080   8.728                        
 8490W        W15706   8.534   5.381  11.871                        
 8491W        W15707   2.550   0.434  10.017                        
 8492W        W15708   9.318   9.851  10.810                        
 8493W        W15709   9.882   2.819   1.261                        
 8494W        W15710   2.736   4.618   4.133                        
 8495W        W15711   0.710   3.365   0.713                        
 8496W        W15712   9.071   2.546   1.992                        
 8497W        W15713   1.403   0.069   0.989                        
 8498W        W15714   0.620   8.085   3.854                        
 8499W        W15715   9.136   4.921   2.587                        
 8500W        W15716   2.983   2.538   3.088                        
 8501W        W15717  13.898  13.810  10.235                        
 8502W        W15718   1.674   7.593   0.188                        
 8503W        W15719   6.440   4.375   0.630                        
 8504W        W15720   5.922   7.024  11.805                        
 8505W        W15721  10.161   8.579  10.545                        
 8506W        W15722   2.832   2.213   8.390                        
 8507W        W15723   5.097   8.521   8.719                        
 8508W        W15724  10.909   2.771  11.900                        
 8509W        W15725   9.964   3.316   2.524                        
 8510W        W15726  10.225   4.588   2.584                        
 8511W        W15727   9.073   3.602   0.923                        
 8512W        W15728   4.827  13.864  10.863                        
 8513W        W15729   1.454   5.899   1.199                        
 8514W        W15730   4.149   6.184   9.770                        
 8515W        W15731   1.226  11.732   8.335                        
 8516W        W15732  13.605   9.662   1.969                        
 8517W        W15733   4.860   5.354  10.284                        
 8518W        W15734  12.257   9.408   8.883                        
 8519W        W15735   8.546   4.628   2.230                        
 8520W        W15736  10.995   5.700   2.596                        
 8521W        W15737   5.462   4.386   9.764                        
 8522W        W15738   8.325  11.023   9.455                        
 8523W        W15739   4.061   1.701   9.457                        
 8524W        W15740   4.089   2.268   8.882                        
 8525W        W15741   6.478   1.707   8.090                        
 8526W        W15742  13.888   0.864   1.971                        
 8527W        W15743  11.288   8.299  10.848                        
 8528W        W15744  10.480   8.340  11.084                        
 8529W        W15745   0.933  13.030   0.959                        
 8530W        W15746  13.887  11.432   3.042                        
 8531W        W15747  13.099   7.792  11.016                        
 8532W        W15748  12.517   3.031  10.828                        
 8533W        W15749   2.197   0.864   8.151                        
 8534W        W15750   1.656   7.995   0.653                        
 8535W        W15751   5.197  10.382   1.512                        
 8536W        W15752   7.292  10.434  10.816                        
 8537W        W15753   0.397   9.702   1.424                        
 8538W        W15754   9.892   0.950  11.092                        
 8539W        W15755   9.628   4.874  11.820                        
 8540W        W15756   3.553   6.682  11.058                        
 8541W        W15757   7.206  10.488   0.133                        
 8542W        W15758  13.911   1.458   0.647                        
 8543W        W15759   7.047   2.039  10.319                        
 8544W        W15760   1.922   8.903   0.654                        
 8545W        W15761   0.903   0.389   0.362                        
 8546W        W15762   7.476   6.683   9.206                        
 8547W        W15763   5.191  11.250  10.324                        
 8548W        W15764   6.744   5.630   8.976                        
 8549W        W15765   5.702   1.777   2.012                        
 8550W        W15766   3.880   1.761   2.814                        
 8551W        W15767   8.568   9.365   1.446                        
 8552W        W15768  13.556  11.262   8.363                        
 8553W        W15769   5.108   3.551  11.927                        
 8554W        W15770   7.473   2.513   8.675                        
 8555W        W15771   7.796   6.748   1.502                        
 8556W        W15772   6.246  12.865  11.883                        
 8557W        W15773   5.716  10.197  11.397                        
 8558W        W15774  13.817   8.085   2.574                        
 8559W        W15775   6.444   5.410   9.679                        
 8560W        W15776   4.615   5.399   9.435                        
 8561W        W15777   7.768   1.175   2.521                        
 8562W        W15778   7.230   3.080   1.717                        
 8563W        W15779   0.106  10.910  10.205                        
 8564W        W15780   0.155  12.016  11.537                        
 8565W        W15781   7.519   0.071  11.345                        
 8566W        W15782   2.225   4.607   1.462                        
 8567W        W15783   3.320   9.904   2.497                        
 8568W        W15784   0.956  10.420   1.442                        
 8569W        W15785   2.185   8.051   0.085                        
 8570W        W15786   4.880   5.379   2.221                        
 8571W        W15787  11.806   5.623  10.496                        
 8572W        W15788   8.376   0.667   3.644                        
 8573W        W15789   2.255   2.009   2.595                        
 8574W        W15790   6.235   3.081   3.310                        
 8575W        W15791   3.599   9.652   0.442                        
 8576W        W15792   0.905   6.737   2.860                        
 8577W        W15793  11.025   8.050   1.999                        
 8578W        W15794   2.045   4.645   9.668                        
 8579W        W15795  10.133  13.603   9.782                        
 8580W        W15796   9.388  11.817   8.697                        
 8581W        W15797   8.121   5.102   3.880                        
 8582W        W15798   9.846   8.573   3.280                        
 8583W        W15799   4.587   1.412  11.373                        
 8584W        W15800   9.617   3.820   9.452                        
 8585W        W15801   6.267   7.468  11.929                        
 8586W        W15802  12.056  12.777  10.493                        
 8587W        W15803   8.601   3.876   2.485                        
 8588W        W15804   8.289   8.797   0.869                        
 8589W        W15805   6.273   3.771   2.326                        
 8590W        W15806   8.617  11.247   3.032                        
 8591W        W15807   7.471   9.939   8.624                        
 8592W        W15808  12.572   0.165   3.553                        
 8593W        W15809   4.596   2.242   2.301                        
 8594W        W15810   4.124  11.249   1.945                        
 8595W        W15811   3.066  13.864   1.973                        
 8596W        W15812   6.448  10.704   9.479                        
 8597W        W15813   3.350   6.512   2.502                        
 8598W        W15814  13.296  13.386   3.097                        
 8599W        W15815   6.792  10.111   3.824                        
 8600W        W15816   2.984   0.886   7.919                        
 8601W        W15817   8.597   1.921  10.803                        
 8602W        W15818   3.582   5.654   0.150                        
 8603W        W15819   8.898   3.348   0.720                        
 8604W        W15820  11.989   0.925   0.130                        
 8605W        W15821   7.559   0.706   0.419                        
 8606W        W15822  12.251   9.605  11.634                        
 8607W        W15823   5.465   9.696  10.568                        
 8608W        W15824   9.627   9.847   3.561                        
 8609W        W15825  12.307   4.909   7.890                        
 8610W        W15826   3.624   1.408   9.233                        
 8611W        W15827   1.935   3.280   0.178                        
 8612W        W15828  12.574   8.805   9.795                        
 8613W        W15829  13.623   8.307   8.606                        
 8614W        W15830   3.036  10.416   0.122                        
 8615W        W15831  13.031   6.410   3.546                        
 8616W        W15832  11.020  11.812  10.800                        
 8617W        W15833   0.352   3.866   9.667                        
 8618W        W15834   5.392   8.102   2.499                        
 8619W        W15835   7.201   8.537   8.152                        
 8620W        W15836   9.662  12.795   8.649                        
 8621W        W15837   1.744   4.612   7.880                        
 8622W        W15838   0.444   7.308  11.884                        
 8623W        W15839   4.408  11.024   8.876                        
 8624W        W15840   0.357   2.226   3.393                        
 8625W        W15841  12.760  13.917   1.153                        
 8626W        W15842   5.465   8.289   9.777                        
 8627W        W15843  11.509   2.008  11.564                        
 8628W        W15844  11.803  10.944  10.791                        
 8629W        W15845   9.955   3.363   0.368                        
 8630W        W15846   2.191   2.768   1.692                        
 8631W        W15847   1.750   5.176   0.998                        
 8632W        W15848   4.624   6.009   3.027                        
 8633W        W15849   9.965   2.481   8.336                        
 8634W        W15850   2.756   8.880   1.772                        
 8635W        W15851   4.903  12.816   9.955                        
 8636W        W15852   6.994   4.421   1.440                        
 8637W        W15853   3.360  12.749  11.888                        
 8638W        W15854   2.975   3.542   0.336                        
 8639W        W15855  11.493  11.796   0.395                        
 8640W        W15856  10.641   6.968   9.988                        
 8641W        W15857   3.048   8.318   2.553                        
 8642W        W15858   2.498   9.646  11.545                        
 8643W        W15859  13.891   4.586  10.486                        
 8644W        W15860  11.453   9.604   8.422                        
 8645W        W15861   1.191   4.609   1.259                        
 8646W        W15862   6.453   0.931  10.036                        
 8647W        W15863   1.679   3.534  10.777                        
 8648W        W15864   7.758   5.654   1.222                        
 8649W        W15865   0.391   5.886   8.929                        
 8650W        W15866  13.108   5.388   9.443                        
 8651W        W15867  10.447  13.081   3.576                        
 8652W        W15868   1.737   1.737   3.930                        
 8653W        W15869   7.220   0.713  10.568                        
 8654W        W15870   0.375   8.910  10.326                        
 8655W        W15871  13.926   0.613  11.554                        
 8656W        W15872   3.278   6.426   9.481                        
 8657W        W15873   3.526   8.265   8.918                        
 8658W        W15874   4.862  11.699   3.291                        
 8659W        W15875   5.919   4.882   0.466                        
 8660W        W15876   4.620   8.801   8.117                        
 8661W        W15877  12.053   3.339   0.371                        
 8662W        W15878   9.947   7.209  10.258                        
 8663W        W15879   7.992  13.593   3.658                        
 8664W        W15880   3.357   3.887   9.676                        
 8665W        W15881   8.078   3.013  11.931                        
 8666W        W15882   8.622   6.998   2.470                        
 8667W        W15883   1.488   0.425   1.450                        
 8668W        W15884   8.787   9.409   3.317                        
 8669W        W15885  13.364   5.616   8.153                        
 8670W        W15886   0.196  12.057   1.412                        
 8671W        W15887   2.514  12.332   3.630                        
 8672W        W15888   1.684   1.721   3.567                        
 8673W        W15889   5.099   2.556   8.394                        
 8674W        W15890   7.583   9.870   9.992                        
 8675W        W15891   9.128   3.340   2.808                        
 8676W        W15892   9.107  11.271   1.983                        
 8677W        W15893   2.218   9.703  11.314                        
 8678W        W15894  10.675  11.956   8.338                        
 8679W        W15895   4.910   6.761   0.412                        
 8680W        W15896   5.148  11.715   9.785                        
 8681W        W15897   9.428   6.982   4.082                        
 8682W        W15898   2.226  11.704   2.213                        
 8683W        W15899   5.964   8.019   3.351                        
 8684W        W15900   0.373   7.803  10.225                        
 8685W        W15901   9.169   5.126   3.366                        
 8686W        W15902   7.303   5.204   9.452                        
 8687W        W15903   3.344   8.270   3.397                        
 8688W        W15904   4.940   0.601   9.202                        
 8689W        W15905   2.981   7.993   9.160                        
 8690W        W15906   1.437   7.789   3.081                        
 8691W        W15907  12.757   0.442   7.904                        
 8692W        W15908   9.672   0.417   2.316                        
 8693W        W15909   7.838   4.044  10.786                        
 8694W        W15910   8.310   1.972   2.815                        
 8695W        W15911  12.562   9.865   4.184                        
 8696W        W15912  12.310   4.918  11.032                        
 8697W        W15913   4.627   5.673   8.905                        
 8698W        W15914  11.693   4.362   9.227                        
 8699W        W15915   7.760   9.151   1.465                        
 8700W        W15916  11.277  11.206   0.617                        
 8701W        W15917  13.349   5.466   8.102                        
 8702W        W15918   3.777   7.266   8.915                        
 8703W        W15919   7.045   9.409  11.807                        
 8704W        W15920   1.941  13.307   9.198                        
 8705W        W15921   9.936   0.709   2.001                        
 8706W        W15922   2.499   5.660   4.336                        
 8707W        W15923   5.160   6.513   2.240                        
 8708W        W15924   4.126   9.344   9.489                        
 8709W        W15925   5.214   9.130  11.884                        
 8710W        W15926   4.882   2.281   3.325                        
 8711W        W15927  12.503   1.767   0.082                        
 8712W        W15928   2.285   7.506  11.636                        
 8713W        W15929   7.552  13.083   2.027                        
 8714W        W15930  13.637  13.856  10.743                        
 8715W        W15931  11.164   8.878   3.639                        
 8716W        W15932   6.723  12.481   9.682                        
 8717W        W15933   7.055   3.561   3.663                        
 8718W        W15934   6.215   0.438   4.397                        
 8719W        W15935   5.376  13.101   2.305                        
 8720W        W15936   5.999  11.432   0.637                        
 8721W        W15937   4.384  13.050  10.251                        
 8722W        W15938   6.183   6.485  11.887                        
 8723W        W15939   6.185   4.136  11.382                        
 8724W        W15940   0.087   5.673   7.809                        
 8725W        W15941  11.250   3.545   1.434                        
 8726W        W15942   8.004   4.664   3.281                        
 8727W        W15943   3.833  12.293   3.551                        
 8728W        W15944  10.660   7.006   3.896                        
 8729W        W15945   6.718   3.878   3.325                        
 8730W        W15946   2.046   6.761   9.792                        
 8731W        W15947   7.734  11.454   0.668                        
 8732W        W15948   6.515   2.809   0.370                        
 8733W        W15949   2.223  12.053  11.632                        
 8734W        W15950   4.033   6.535   8.881                        
 8735W        W15951   9.657   2.042   9.796                        
 8736W        W15952   0.600   6.984   2.783                        
 8737W        W15953   6.261   4.877  10.837                        
 8738W        W15954   3.511   8.623   0.607                        
 8739W        W15955   1.963  12.838  10.807                        
 8740W        W15956  13.335  12.804  10.521                        
 8741W        W15957   8.856   7.779   8.702                        
 8742W        W15958  10.972   3.565  11.650                        
 8743W        W15959  12.077   2.296  11.001                        
 8744W        W15960   4.079   1.243   0.902                        
 8745W        W15961   4.139   3.502  11.392                        
 8746W        W15962  12.572   6.443   0.970                        
 8747W        W15963   8.351   7.483   0.461                        
 8748W        W15964  12.593   1.766   2.740                        
 8749W        W15965   9.641   6.968   1.671                        
 8750W        W15966  11.531   4.667   1.410                        
 8751W        W15967   6.002   3.788   9.709                        
 8752W        W15968   1.174   1.777   1.964                        
 8753W        W15969   9.888  10.758   9.465                        
 8754W        W15970   0.947  13.869  10.268                        
 8755W        W15971   1.166   8.263   3.311                        
 8756W        W15972  10.928   6.262  11.617                        
 8757W        W15973   2.751   0.677  10.469                        
 8758W        W15974   6.727  13.078   2.492                        
 8759W        W15975   8.011   8.338   1.673                        
 8760W        W15976   7.262   4.951  11.077                        
 8761W        W15977   0.966   7.752   0.176                        
 8762W        W15978   0.692   1.173   9.717                        
 8763W        W15979   6.781  12.344   9.717                        
 8764W        W15980   5.970   5.407   0.688                        
 8765W        W15981   7.496   8.531  11.840                        
 8766W        W15982  13.362   6.437   1.226                        
 8767W        W15983   3.031  12.754   0.894                        
 8768W        W15984   9.378   9.333   9.785                        
 8769W        W15985   2.790   0.360   7.826                        
 8770W        W15986  11.997   4.642   3.093                        
 8771W        W15987   2.755  13.645   8.631                        
 8772W        W15988  13.891   9.581   0.397                        
 8773W        W15989   6.956  10.969  11.110                        
 8774W        W15990   8.061   2.252  10.539                        
 8775W        W15991  12.751   5.362  11.351                        
 8776W        W15992   8.597   1.217   3.598                        
 8777W        W15993   1.771   3.848  11.818                        
 8778W        W15994   2.043   5.631   0.179                        
 8779W        W15995  12.329   4.344   9.697                        
 8780W        W15996   0.097   4.142   7.828                        
 8781W        W15997   2.992   6.795   2.512                        
 8782W        W15998   9.417   0.120  10.815                        
 8783W        W15999   0.444   4.950   9.710                        
 8784W        W16000  10.751   2.524   2.851                        
 8785W        W16001   9.168   9.902  10.840                        
 8786W        W16002   1.425   0.970   0.969                        
 8787W        W16003   2.458   7.819   8.087                        
 8788W        W16004  13.822   9.704  10.809                        
 8789W        W16005   1.184  13.550   0.114                        
 8790W        W16006   4.862   6.502   9.219                        
 8791W        W16007   2.568  12.288  11.880                        
 8792W        W16008   0.067   9.639  11.046                        
 8793W        W16009   1.450   9.940   0.689                        
 8794W        W16010   0.431  10.750   8.715                        
 8795W        W16011   6.490   1.747  11.807                        
 8796W        W16012   0.372  12.605   9.938                        
 8797W        W16013   1.927  10.369  10.570                        
 8798W        W16014   2.499   2.240  11.360                        
 8799W        W16015   2.466   5.999   3.801                        
 8800W        W16016   4.949  10.730  11.298                        
 8801W        W16017   2.043   8.037  11.085                        
 8802W        W16018  11.201   9.695   2.333                        
 8803W        W16019  13.856   7.765   1.985                        
 8804W        W16020   5.114   6.191   0.362                        
 8805W        W16021   7.033   5.966   1.723                        
 8806W        W16022   4.616   0.190   0.111                        
 8807W        W16023   8.060   6.184   3.536                        
 8808W        W16024   7.820   3.085   2.039                        
 8809W        W16025   2.484   0.872   9.734                        
 8810W        W16026   8.821   5.888   0.729                        
 8811W        W16027   1.940   9.849   0.084                        
 8812W        W16028   5.113  12.500  11.286                        
 8813W        W16029   9.422   2.471  11.387                        
 8814W        W16030   2.009  13.917   8.408                        
 8815W        W16031   8.074   9.423   3.313                        
 8816W        W16032   0.881  10.223  11.049                        
 8817W        W16033  11.524  11.462   1.489                        
 8818W        W16034   1.758   0.673  10.280                        
 8819W        W16035   6.430   9.319  11.002                        
 8820W        W16036  11.990  13.349   1.677                        
 8821W        W16037   6.231   2.977  11.289                        
 8822W        W16038   3.002  11.977   2.216                        
 8823W        W16039   0.090   9.354   0.923                        
 8824W        W16040   3.301   6.958  11.902                        
 8825W        W16041   0.073  10.650   8.960                        
 8826W        W16042   5.742  12.055  10.496                        
 8827W        W16043   2.303   9.337   7.876                        
 8828W        W16044  13.570   3.320   3.328                        
 8829W        W16045   0.721   5.742  11.397                        
 8830W        W16046  12.830  13.836   8.989                        
 8831W        W16047  10.904   3.242   0.410                        
 8832W        W16048   6.765   2.477   3.045                        
 8833W        W16049   8.594   4.643   3.098                        
 8834W        W16050   9.384   6.723   8.933                        
 8835W        W16051   7.296   7.031   3.586                        
 8836W        W16052   1.714   5.673   8.420                        
 8837W        W16053   3.594   9.440  10.807                        
 8838W        W16054  12.279  12.486  10.562                        
 8839W        W16055   7.568   4.031   0.930                        
 8840W        W16056  12.515   7.327   7.818                        
 8841W        W16057   9.159   1.430  10.224                        
 8842W        W16058   6.722   0.351   3.275                        
 8843W        W16059   2.199   5.140   1.723                        
 8844W        W16060   0.967   2.453   2.749                        
 8845W        W16061   6.213   6.772   0.682                        
 8846W        W16062   5.919   4.319   8.723                        
 8847W        W16063   8.887  13.013   2.757                        
 8848W        W16064   0.438   2.814   8.654                        
 8849W        W16065  11.022   1.194   0.673                        
 8850W        W16066  13.011   1.683   8.150                        
 8851W        W16067  11.450   7.738   2.498                        
 8852W        W16068   5.947  11.812   8.417                        
 8853W        W16069   3.827  12.593  11.564                        
 8854W        W16070   4.124   8.587   7.926                        
 8855W        W16071  11.816  13.658  11.804                        
 8856W        W16072  11.275  12.602   1.219                        
 8857W        W16073   8.048   6.784   9.991                        
 8858W        W16074   7.320   9.408  11.549                        
 8859W        W16075  10.985   6.972   4.117                        
 8860W        W16076   5.956   8.031   9.157                        
 8861W        W16077   0.147  13.114   1.506                        
 8862W        W16078   1.245  11.487  10.790                        
 8863W        W16079   9.061  10.931   0.118                        
 8864W        W16080   0.102  12.329   8.718                        
 8865W        W16081   8.319   5.647   2.513                        
 8866W        W16082   3.880   8.056  11.605                        
 8867W        W16083   4.891   1.758   2.735                        
 8868W        W16084   9.897   3.364   8.992                        
 8869W        W16085   2.829   3.836  10.545                        
 8870W        W16086   8.065   4.644   9.151                        
 8871W        W16087   6.783   9.084   8.631                        
 8872W        W16088  12.531  12.764   0.871                        
 8873W        W16089  11.476   9.939   0.692                        
 8874W        W16090   8.092  10.148   9.962                        
 8875W        W16091   8.299   8.331   8.683                        
 8876W        W16092   8.332   9.340   9.982                        
 8877W        W16093   2.017  13.893   3.551                        
 8878W        W16094   9.162   9.641   9.759                        
 8879W        W16095   2.234   7.527   3.114                        
 8880W        W16096   6.691   4.603   0.445                        
 8881W        W16097   1.677   8.824   8.640                        
 8882W        W16098  10.385   0.627   0.085                        
 8883W        W16099   5.939  13.081   9.158                        
 8884W        W16100  10.971   1.699  11.346                        
 8885W        W16101   7.302   3.046   1.434                        
 8886W        W16102  13.888   0.438   2.830                        
 8887W        W16103   0.175   6.517   3.631                        
 8888W        W16104   4.909   8.369  11.882                        
 8889W        W16105   5.638   2.500   9.976                        
 8890W        W16106  13.298   0.076   9.158                        
 8891W        W16107   6.988   0.079   0.138                        
 8892W        W16108  13.102   2.815   8.922                        
 8893W        W16109   7.575  10.951   9.456                        
 8894W        W16110   2.265  13.285   1.186                        
 8895W        W16111   5.649   7.852   0.617                        
 8896W        W16112   1.207   2.449   1.977                        
 8897W        W16113  11.469  13.285  11.076                        
 8898W        W16114  12.843  13.867   2.325                        
 8899W        W16115   7.245   7.040   0.877                        
 8900W        W16116  12.852   6.968  10.591                        
 8901W        W16117   3.363   1.457  11.355                        
 8902W        W16118   4.062   5.950   9.494                        
 8903W        W16119   7.551  12.771   9.759                        
 8904W        W16120   5.132  13.368   2.512                        
 8905W        W16121   2.306   6.694   2.287                        
 8906W        W16122   3.305   8.559   3.073                        
 8907W        W16123   1.187   7.772   1.686                        
 8908W        W16124   4.637   8.810   8.632                        
 8909W        W16125  13.340   9.689   0.607                        
 8910W        W16126   4.628  12.755   0.670                        
 8911W        W16127   5.662   2.561   1.959                        
 8912W        W16128   3.246   7.548   1.196                        
 8913W        W16129  13.910  10.746   1.443                        
 8914W        W16130  12.313   6.507  10.287                        
 8915W        W16131   3.881   7.527   8.954                        
 8916W        W16132   6.729  12.334  11.064                        
 8917W        W16133   7.774  10.183  11.638                        
 8918W        W16134   7.562  12.249   2.823                        
 8919W        W16135   4.564   9.059   8.616                        
 8920W        W16136   4.865  11.241   9.144                        
 8921W        W16137  13.369   6.427   1.713                        
 8922W        W16138   1.490   3.032  11.310                        
 8923W        W16139  11.548   1.720   3.365                        
 8924W        W16140   1.470  12.270   2.535                        
 8925W        W16141   1.722   4.150   0.196                        
 8926W        W16142   8.363  12.861   0.900                        
 8927W        W16143  13.040  10.127   1.454                        
 8928W        W16144  10.735   9.151   0.411                        
 8929W        W16145   9.392   8.328  10.300                        
 8930W        W16146   8.111   4.609   1.710                        
 8931W        W16147   9.634   1.232   2.816                        
 8932W        W16148   0.138   3.584  10.528                        
 8933W        W16149  12.259   7.223   9.953                        
 8934W        W16150   1.995  13.081   9.994                        
 8935W        W16151   2.755   2.743   8.671                        
 8936W        W16152   9.866   3.627   9.770                        
 8937W        W16153   6.504  10.921   9.240                        
 8938W        W16154  10.737   5.382   8.614                        
 8939W        W16155   1.518  10.739   1.785                        
 8940W        W16156   5.411  10.431   9.416                        
 8941W        W16157  11.245   0.913   2.330                        
 8942W        W16158   3.247   1.225  10.747                        
 8943W        W16159   1.223  10.412  11.552                        
 8944W        W16160   4.945   7.992   2.857                        
 8945W        W16161  13.831   2.217   1.266                        
 8946W        W16162   2.251   2.979   0.407                        
 8947W        W16163   4.320   4.100   2.771                        
 8948W        W16164   7.307   2.223  11.033                        
 8949W        W16165   2.205   9.438   3.063                        
 8950W        W16166   6.425   9.156   3.665                        
 8951W        W16167  13.321   5.625   0.157                        
 8952W        W16168  13.360  13.345  11.594                        
 8953W        W16169   8.803   7.835   1.436                        
 8954W        W16170  13.595  10.647   1.776                        
 8955W        W16171  13.133   9.396   4.345                        
 8956W        W16172   0.410   8.029  11.599                        
 8957W        W16173   7.482   7.313  11.841                        
 8958W        W16174   0.087   8.865   2.468                        
 8959W        W16175   9.317   3.870  11.839                        
 8960W        W16176   2.466   7.282  10.293                        
 8961W        W16177   7.531  10.711  11.820                        
 8962W        W16178   7.549   2.209   2.859                        
 8963W        W16179  12.051  12.569  11.656                        
 8964W        W16180   6.160  12.061   8.885                        
 8965W        W16181   9.888   4.111  10.004                        
 8966W        W16182  11.800  13.836  11.342                        
 8967W        W16183   1.431   4.040   0.347                        
 8968W        W16184   0.912  11.161   3.100                        
 8969W        W16185   1.504   3.793   3.104                        
 8970W        W16186  12.819   7.810   2.243                        
 8971W        W16187   8.299   0.976  11.354                        
 8972W        W16188   3.780   4.375  10.277                        
 8973W        W16189  13.544   8.838   3.835                        
 8974W        W16190   3.606  10.906   0.606                        
 8975W        W16191   6.758   7.032   8.456                        
 8976W        W16192  12.554   9.869   3.551                        
 8977W        W16193   2.220   7.785   4.152                        
 8978W        W16194  10.990   3.854   1.756                        
 8979W        W16195   2.039   1.507   1.162                        
 8980W        W16196   4.933   1.405  10.503                        
 8981W        W16197  11.996   1.963   9.230                        
 8982W        W16198  12.784   8.055   9.500                        
 8983W        W16199  12.249   5.180   9.700                        
 8984W        W16200   4.855   8.641   9.750                        
 8985W        W16201   3.314   6.761   1.427                        
 8986W        W16202   7.789   6.960   2.594                        
 8987W        W16203   6.792   4.623   3.069                        
 8988W        W16204   7.997   8.619   3.066                        
 8989W        W16205   6.693  11.967   0.146                        
 8990W        W16206   4.054   4.893   0.987                        
 8991W        W16207   1.679  13.025   3.642                        
 8992W        W16208   7.212   9.679  11.077                        
 8993W        W16209   2.814   6.952  11.059                        
 8994W        W16210   5.399   7.497   3.816                        
 8995W        W16211  13.099  13.603   0.916                        
 8996W        W16212  10.900  13.901   0.882                        
 8997W        W16213   0.078  13.371   9.494                        
 8998W        W16214   4.360   1.191  11.271                        
 8999W        W16215   9.055  12.083  10.845                        
 9000W        W16216  11.470  11.501   2.047                        
 9001W        W16217  13.562  11.704   8.394                        
 9002W        W16218   9.697   3.295  10.311                        
 9003W        W16219   1.199   8.915  10.819                        
 9004W        W16220   4.301  10.195   4.149                        
 9005W        W16221  10.226   3.624   1.447                        
 9006W        W16222   0.709  10.218   1.248                        
 9007W        W16223   9.134   1.393   3.359                        
 9008W        W16224   8.525   5.121   8.451                        
 9009W        W16225  12.595   9.617   8.403                        
 9010W        W16226   0.634   5.732   1.978                        
 9011W        W16227   2.509   4.358   9.186                        
 9012W        W16228  12.608   7.816  10.589                        
 9013W        W16229   6.177   5.364   0.965                        
 9014W        W16230   4.653  12.508   0.337                        
 9015W        W16231   7.276   0.146   9.714                        
 9016W        W16232   1.447  13.035   2.759                        
 9017W        W16233   7.229   5.898   9.715                        
 9018W        W16234   7.801   5.094   3.112                        
 9019W        W16235  12.230  11.241   2.275                        
 9020W        W16236   6.704   1.178  11.885                        
 9021W        W16237   7.035   1.762   0.364                        
 9022W        W16238   1.987   9.670  11.922                        
 9023W        W16239   1.997  11.268  10.809                        
 9024W        W16240  11.466   5.366   1.771                        
 9025W        W16241   8.256   1.398   8.994                        
 9026W        W16242   0.868   7.828  11.585                        
 9027W        W16243   2.745   4.115   0.921                        
 9028W        W16244  10.915  11.025   1.486                        
 9029W        W16245   4.138   0.638   0.440                        
 9030W        W16246   3.564   4.603  11.929                        
 9031W        W16247   2.829   0.906   0.660                        
 9032W        W16248  13.892   8.339   3.649                        
 9033W        W16249   7.760   3.587   0.892                        
 9034W        W16250   0.908   5.161   3.101                        
 9035W        W16251   5.091  13.048   7.640                        
 9036W        W16252   1.763  10.129  11.047                        
 9037W        W16253  13.286   5.440   1.407                        
 9038W        W16254   5.213   4.358   3.284                        
 9039W        W16255   1.992   2.266   9.954                        
 9040W        W16256   9.653   3.040   9.759                        
 9041W        W16257  10.213   8.380   0.909                        
 9042W        W16258   6.257   7.586  11.588                        
 9043W        W16259   6.799   4.128   1.198                        
 9044W        W16260   2.032  12.056  10.535                        
 9045W        W16261   5.668   0.349   0.999                        
 9046W        W16262   0.629   9.853   9.964                        
 9047W        W16263  10.634   6.793  11.289                        
 9048W        W16264   3.890  13.361   0.360                        
 9049W        W16265   5.472   5.614   2.056                        
 9050W        W16266   7.324   4.830   0.630                        
 9051W        W16267   9.952   5.648   9.405                        
 9052W        W16268  11.291   7.029  10.864                        
 9053W        W16269   8.590   5.432   9.448                        
 9054W        W16270   9.385  12.770   3.612                        
 9055W        W16271  10.146   2.505  10.787                        
 9056W        W16272   5.461   8.276   1.158                        
 9057W        W16273   3.602   5.205   3.010                        
 9058W        W16274   4.349   5.940  11.061                        
 9059W        W16275  13.579   6.516   1.938                        
 9060W        W16276   0.949  11.016   9.520                        
 9061W        W16277   2.831   4.314   8.926                        
 9062W        W16278   0.175   4.580   7.558                        
 9063W        W16279  10.110   5.716   8.610                        
 9064W        W16280  13.875   9.066   9.204                        
 9065W        W16281  12.871   9.968   8.390                        
 9066W        W16282   8.032   7.206   2.207                        
 9067W        W16283   9.860  11.496  11.363                        
 9068W        W16284  10.495  12.505   1.449                        
 9069W        W16285   1.930   3.315   0.408                        
 9070W        W16286  12.785   0.191   2.506                        
 9071W        W16287   0.355   3.056   0.948                        
 9072W        W16288   8.553  11.817   0.448                        
 9073W        W16289  13.390   8.811   8.627                        
 9074W        W16290   7.573   5.664  10.787                        
 9075W        W16291   2.199  13.140   0.610                        
 9076W        W16292   1.203   3.073   2.823                        
 9077W        W16293   5.101   1.389   8.869                        
 9078W        W16294   2.236   2.265  11.830                        
 9079W        W16295   2.555   8.378   0.342                        
 9080W        W16296   4.599   1.674   0.885                        
 9081W        W16297  10.435   8.037   8.656                        
 9082W        W16298  13.394  13.565   8.602                        
 9083W        W16299  13.359   7.847   0.430                        
 9084W        W16300  10.456   3.585   3.641                        
 9085W        W16301   5.629   8.073   3.290                        
 9086W        W16302  11.174  12.504   3.299                        
 9087W        W16303   9.906   4.630   9.528                        
 9088W        W16304   7.324   3.775   8.921                        
 9089W        W16305   1.157   7.203  11.543                        
 9090W        W16306   6.764  12.251   0.969                        
 9091W        W16307   4.662   2.567  11.395                        
 9092W        W16308   8.072   3.361   9.144                        
 9093W        W16309   2.750   5.735   0.341                        
 9094W        W16310   0.652   9.179   1.671                        
 9095W        W16311   9.933   6.515   9.936                        
 9096W        W16312   1.461   5.642   0.121                        
 9097W        W16313   8.797   3.622   2.475                        
 9098W        W16314   5.710   2.731   8.435                        
 9099W        W16315   9.087   4.572   1.958                        
 9100W        W16316   4.604   3.813  11.017                        
 9101W        W16317   5.471   0.914   9.690                        
 9102W        W16318   3.281   0.697   1.525                        
 9103W        W16319   7.238  12.868   0.931                        
 9104W        W16320  11.289   1.662   3.847                        
 9105W        W16321   9.913   0.376   8.669                        
 9106W        W16322   4.153  13.542  11.586                        
 9107W        W16323   2.283  12.037  10.058                        
 9108W        W16324   6.707   6.182  11.054                        
 9109W        W16325  10.903  10.905   1.741                        
 9110W        W16326   3.013   0.923   2.217                        
 9111W        W16327   3.554   7.035  10.565                        
 9112W        W16328  12.015   1.726  10.315                        
 9113W        W16329   6.430  13.910   9.157                        
 9114W        W16330   0.166   0.600   1.964                        
 9115W        W16331   5.907  12.837   9.997                        
 9116W        W16332  13.822  10.999  10.240                        
 9117W        W16333   6.980   5.350   8.683                        
 9118W        W16334  12.806   1.480   8.708                        
 9119W        W16335  11.698   1.775   0.873                        
 9120W        W16336   4.916  10.670   9.531                        
 9121W        W16337   2.749   2.459   0.341                        
 9122W        W16338   3.885   5.131  11.323                        
 9123W        W16339   7.239   1.714   3.913                        
 9124W        W16340  12.876   0.702   0.647                        
 9125W        W16341   0.169  11.782  10.062                        
 9126W        W16342   1.927  10.368   1.245                        
 9127W        W16343   1.143  11.803   3.630                        
 9128W        W16344   1.418   6.944   2.811                        
 9129W        W16345  11.000  12.063   3.632                        
 9130W        W16346  12.004   6.674   0.343                        
 9131W        W16347   0.082   5.194   3.553                        
 9132W        W16348  10.375   3.300   8.456                        
 9133W        W16349   1.657  12.222   9.967                        
 9134W        W16350   9.338   4.423   1.266                        
 9135W        W16351   7.558   4.127  11.122                        
 9136W        W16352   8.291  11.744   2.764                        
 9137W        W16353   7.997   5.374   3.289                        
 9138W        W16354   0.158   5.147   8.927                        
 9139W        W16355   3.103   3.068  10.209                        
 9140W        W16356   9.630   4.838   2.485                        
 9141W        W16357   0.456   1.127   8.384                        
 9142W        W16358   1.197   1.695   9.415                        
 9143W        W16359   7.203   4.660   4.086                        
 9144W        W16360   9.618   7.064   0.650                        
 9145W        W16361  10.946   2.569   8.348                        
 9146W        W16362   7.241   0.637  11.366                        
 9147W        W16363   6.412   2.234   3.849                        
 9148W        W16364  10.678   5.640   8.346                        
 9149W        W16365   8.638   1.477   4.181                        
 9150W        W16366   3.242  10.479   2.521                        
 9151W        W16367   1.134   5.367   1.208                        
 9152W        W16368   2.012  13.048   0.179                        
 9153W        W16369  13.313   2.484   0.071                        
 9154W        W16370  10.197   9.881   3.113                        
 9155W        W16371   8.904  13.618   9.730                        
 9156W        W16372   8.816   6.725  11.389                        
 9157W        W16373   3.094   3.590   1.983                        
 9158W        W16374   1.392   4.399   7.902                        
 9159W        W16375   8.586   5.716   0.083                        
 9160W        W16376   6.239   5.103   2.550                        
 9161W        W16377   7.028   9.365   0.651                        
 9162W        W16378   2.237  13.066   8.708                        
 9163W        W16379   6.979  10.493   2.027                        
 9164W        W16380  12.534   9.626  11.340                        
 9165W        W16381   4.558   5.643   8.378                        
 9166W        W16382   3.814  13.848   0.460                        
 9167W        W16383  12.572   7.003   2.787                        
 9168W        W16384   5.174  13.591   2.544                        
 9169W        W16385   2.013  10.913   9.176                        
 9170W        W16386  10.434   3.037   1.683                        
 9171W        W16387   3.062  11.495   3.336                        
 9172W        W16388   5.618   6.714  11.088                        
 9173W        W16389   0.395   0.632  11.610                        
 9174W        W16390   8.327   1.399  11.347                        
 9175W        W16391   2.185   3.350   2.557                        
 9176W        W16392  10.450   4.358   0.355                        
 9177W        W16393   3.594   7.824  10.829                        
 9178W        W16394  13.383   1.396   0.697                        
 9179W        W16395   4.637   6.240   0.604                        
 9180W        W16396  12.282   0.122   8.901                        
 9181W        W16397   8.339   0.081  11.915                        
 9182W        W16398  11.227   5.423  10.480                        
 9183W        W16399   8.598   6.159   1.183                        
 9184W        W16400   1.959   1.401  11.879                        
 9185W        W16401   1.772   3.002   9.778                        
 9186W        W16402  10.742   3.819   9.410                        
 9187W        W16403   4.919   4.098   9.182                        
 9188W        W16404   2.260   0.404   2.839                        
 9189W        W16405   5.692   5.172   0.145                        
 9190W        W16406  10.989   0.450  10.515                        
 9191W        W16407   8.888   5.178   2.282                        
 9192W        W16408  10.441   5.936   2.807                        
 9193W        W16409   8.536  13.855   1.164                        
 9194W        W16410  10.725  10.933  11.102                        
 9195W        W16411  13.370   2.446   0.604                        
 9196W        W16412   7.020   9.920  11.126                        
 9197W        W16413   8.068   7.998  11.115                        
 9198W        W16414   3.543   3.286  10.492                        
 9199W        W16415  10.675   5.953  10.327                        
 9200W        W16416   6.155   0.418   8.612                        
 9201W        W16417   3.085   3.599  10.510                        
 9202W        W16418   8.620  11.803   1.786                        
 9203W        W16419   0.197   3.064   2.329                        
 9204W        W16420   1.985   4.105  10.764                        
 9205W        W16421  13.630   4.320   7.627                        
 9206W        W16422   2.468   8.097  10.525                        
 9207W        W16423  13.387   3.554   1.771                        
 9208W        W16424  11.519   9.616   0.709                        
 9209W        W16425   1.772   4.655  11.845                        
 9210W        W16426   8.576   2.831   0.639                        
 9211W        W16427   3.361   0.980  10.778                        
 9212W        W16428   0.105  11.748   2.755                        
 9213W        W16429   9.060   3.510   8.649                        
 9214W        W16430   9.873   2.835  10.280                        
 9215W        W16431  11.262   8.814   2.837                        
 9216W        W16432  13.841   4.662   8.683                        
 9217W        W16433   1.688   8.343   0.346                        
 9218W        W16434   3.580  13.025   2.240                        
 9219W        W16435   0.339   4.593   9.679                        
 9220W        W16436   4.880  13.647  11.572                        
 9221W        W16437  11.794   6.709   0.874                        
 9222W        W16438   4.677   0.379   3.018                        
 9223W        W16439  13.613  11.726   1.420                        
 9224W        W16440   1.450   6.147   8.951                        
 9225W        W16441  13.130  11.794   3.108                        
 9226W        W16442   6.758   8.606   8.462                        
 9227W        W16443   1.698   7.780  11.617                        
 9228W        W16444  13.117   2.807  11.374                        
 9229W        W16445  11.204   4.585   1.235                        
 9230W        W16446   2.244   6.976   3.123                        
 9231W        W16447   8.044   9.348   8.442                        
 9232W        W16448  11.767  11.425   0.385                        
 9233W        W16449   7.049   0.391   8.994                        
 9234W        W16450   7.513   7.773   1.419                        
 9235W        W16451   9.379  12.746   0.921                        
 9236W        W16452   0.457  11.477  10.046                        
 9237W        W16453   6.692   1.948  11.282                        
 9238W        W16454   2.758  10.976   1.671                        
 9239W        W16455   9.637   9.369   0.097                        
 9240W        W16456   0.455  11.959   9.531                        
 9241W        W16457  12.042   0.985   3.889                        
 9242W        W16458   1.404   1.507   2.316                        
 9243W        W16459  11.767   0.374  10.050                        
 9244W        W16460  11.783   3.101   3.648                        
 9245W        W16461   6.412  11.520   0.401                        
 9246W        W16462  13.071  10.387   3.274                        
 9247W        W16463   1.207  13.119   0.071                        
 9248W        W16464   2.983  11.223  10.819                        
 9249W        W16465   9.136  12.789   1.253                        
 9250W        W16466  13.861  13.023   8.424                        
 9251W        W16467   8.058   1.422  11.340                        
 9252W        W16468   7.463   1.951  10.558                        
 9253W        W16469   0.612   5.635   1.256                        
 9254W        W16470   0.974   5.911   1.413                        
 9255W        W16471   2.486   3.299   2.590                        
 9256W        W16472  10.704   6.427   8.667                        
 9257W        W16473   8.322  13.363  11.020                        
 9258W        W16474   1.514   5.629  10.235                        
 9259W        W16475   4.424  12.753   9.700                        
 9260W        W16476   3.083   0.655   2.559                        
 9261W        W16477   6.505   6.487   8.453                        
 9262W        W16478   9.618  13.562   8.709                        
 9263W        W16479  12.225  11.963   0.680                        
 9264W        W16480   8.615  13.296  10.043                        
 9265W        W16481  10.703   7.316   9.464                        
 9266W        W16482   3.095   6.776   0.462                        
 9267W        W16483  10.687  13.115   0.636                        
 9268W        W16484   6.800  13.883   9.415                        
 9269W        W16485  13.900   6.960   0.200                        
 9270W        W16486   7.997   1.980   9.749                        
 9271W        W16487   0.163  12.818   1.745                        
 9272W        W16488   2.002   1.465   3.284                        
 9273W        W16489  10.169  10.675   0.071                        
 9274W        W16490  13.059   8.843  10.581                        
 9275W        W16491   0.701   2.997  11.533                        
 9276W        W16492   5.709   0.692   8.663                        
 9277W        W16493   8.255  11.478   9.456                        
 9278W        W16494  12.066   7.819   1.525                        
 9279W        W16495  11.476   9.873  10.581                        
 9280W        W16496   5.966  11.252   0.949                        
 9281W        W16497   7.263  10.391  11.628                        
 9282W        W16498  11.548  12.585  11.564                        
 9283W        W16499   1.462   0.944   4.340                        
 9284W        W16500  13.332   4.325   3.608                        
 9285W        W16501   5.097   7.280   0.351                        
 9286W        W16502   3.261   6.260   1.461                        
 9287W        W16503  10.421   5.195   3.298                        
 9288W        W16504   6.496   4.151  10.281                        
 9289W        W16505   7.730   2.735  11.054                        
 9290W        W16506   5.403   3.564   9.749                        
 9291W        W16507   9.328   4.311   2.284                        
 9292W        W16508   6.441   9.658   0.620                        
 9293W        W16509   5.402   4.656  10.540                        
 9294W        W16510   5.932   5.157  11.000                        
 9295W        W16511  10.922  13.657   0.095                        
 9296W        W16512  10.190  10.740  10.278                        
 9297W        W16513   5.648   3.082   8.699                        
 9298W        W16514   1.173   9.658   0.687                        
 9299W        W16515   9.106   7.051  11.039                        
 9300W        W16516   8.847   7.317  11.306                        
 9301W        W16517   0.139   2.266   9.235                        
 9302W        W16518   5.358  11.288   1.749                        
 9303W        W16519   1.504   0.430  11.269                        
 9304W        W16520   0.438   6.689   1.406                        
 9305W        W16521   7.497   2.468   3.106                        
 9306W        W16522   2.505   3.056  10.264                        
 9307W        W16523   5.103   3.065   0.139                        
 9308W        W16524   5.133   6.790   2.781                        
 9309W        W16525  11.247   3.574   0.996                        
 9310W        W16526   0.118   6.219  10.828                        
 9311W        W16527   2.038   1.406   2.213                        
 9312W        W16528   0.365   7.576  11.614                        
 9313W        W16529   7.235   3.045   3.376                        
 9314W        W16530   2.757  13.387   2.240                        
 9315W        W16531   1.933   8.260   9.528                        
 9316W        W16532  13.642   3.566  11.349                        
 9317W        W16533   1.229  11.726   1.694                        
 9318W        W16534  11.760   9.913   0.389                        
 9319W        W16535   7.463   2.267   8.425                        
 9320W        W16536   7.024  13.126   1.249                        
 9321W        W16537   7.801   4.108   1.987                        
 9322W        W16538   0.426   6.972   0.388                        
 9323W        W16539  12.331   9.861   8.868                        
 9324W        W16540  10.958  12.876  11.832                        
 9325W        W16541   3.863   4.880   7.910                        
 9326W        W16542   9.178  10.489   0.139                        
 9327W        W16543   5.116   1.930   0.921                        
 9328W        W16544  13.866   7.762  11.329                        
 9329W        W16545  13.123   5.395   1.704                        
 9330W        W16546   6.773   6.456   1.732                        
 9331W        W16547   8.022   0.721   2.789                        
 9332W        W16548   9.323  12.312   2.829                        
 9333W        W16549  12.588   2.550   2.030                        
 9334W        W16550  13.615   1.452   0.648                        
 9335W        W16551   2.009   8.370  11.044                        
 9336W        W16552  10.220   4.662   0.978                        
 9337W        W16553  11.695   1.441   1.421                        
 9338W        W16554   1.497   3.813   0.369                        
 9339W        W16555  12.570  12.862  10.830                        
 9340W        W16556  10.688  11.470   2.823                        
 9341W        W16557   0.436   4.833   9.527                        
 9342W        W16558  13.825   4.830   8.868                        
 9343W        W16559   9.639   9.383  11.112                        
 9344W        W16560   8.308   4.101   3.584                        
 9345W        W16561  11.005   6.493   1.216                        
 9346W        W16562   5.398  10.728   8.363                        
 9347W        W16563  10.494   7.555  10.736                        
 9348W        W16564   5.186   5.401   0.154                        
 9349W        W16565   3.073   6.801   7.806                        
 9350W        W16566   4.562   1.951   2.471                        
 9351W        W16567   0.642  13.554   3.850                        
 9352W        W16568   5.355   4.832  10.777                        
 9353W        W16569   0.616   4.659  11.654                        
 9354W        W16570   6.941   9.115   9.233                        
 9355W        W16571  11.170   7.209   3.308                        
 9356W        W16572  13.327   9.374   4.371                        
 9357W        W16573   9.060   8.062   3.028                        
 9358W        W16574  11.793   5.398   7.546                        
 9359W        W16575   0.342   0.711  11.380                        
 9360W        W16576   9.355   5.442  10.801                        
 9361W        W16577   5.149  13.132   2.840                        
 9362W        W16578   0.161  10.125  11.555                        
 9363W        W16579   3.313   3.340  11.071                        
 9364W        W16580  13.373   4.923   0.948                        
 9365W        W16581  13.043   4.131  11.536                        
 9366W        W16582   0.158   4.046  11.057                        
 9367W        W16583   7.209  13.362   2.018                        
 9368W        W16584   0.147   4.127  11.651                        
 9369W        W16585   1.916   7.817   8.082                        
 9370W        W16586   4.827  10.499   9.235                        
 9371W        W16587   6.979   1.652   9.224                        
 9372W        W16588   6.217   8.846  10.042                        
 9373W        W16589   0.438   6.973   8.353                        
 9374W        W16590   0.388   9.380   3.022                        
 9375W        W16591   8.539   8.270   1.996                        
 9376W        W16592  13.625   7.292   2.537                        
 9377W        W16593   8.812   9.094   9.770                        
 9378W        W16594   4.159   9.377   3.128                        
 9379W        W16595   2.453   9.351   8.867                        
 9380W        W16596  13.877   3.252   9.510                        
 9381W        W16597   2.449   6.418   9.473                        
 9382W        W16598   1.948  13.645  11.339                        
 9383W        W16599   3.274  12.504   0.342                        
 9384W        W16600   7.855  12.250   2.583                        
 9385W        W16601   8.297   4.624  11.100                        
 9386W        W16602   6.008   1.197  11.009                        
 9387W        W16603   3.837   7.465   1.762                        
 9388W        W16604  10.186   9.604   1.711                        
 9389W        W16605  12.052  13.838  10.488                        
 9390W        W16606   6.948   7.816   3.114                        
 9391W        W16607   6.713   3.844   2.206                        
 9392W        W16608   7.538   1.498  11.346                        
 9393W        W16609   1.954   8.335  10.752                        
 9394W        W16610   0.403   8.520   3.343                        
 9395W        W16611   6.424   8.860  10.791                        
 9396W        W16612   7.727   4.916   8.681                        
 9397W        W16613  13.833  10.461   2.215                        
 9398W        W16614   2.995   7.556   0.622                        
 9399W        W16615  10.703   8.818   3.365                        
 9400W        W16616   9.134   4.667  10.494                        
 9401W        W16617   3.789   0.430   1.211                        
 9402W        W16618   9.440   1.489   3.068                        
 9403W        W16619   4.329   7.553  11.299                        
 9404W        W16620   9.341  13.933   1.235                        
 9405W        W16621   9.406   3.629   2.229                        
 9406W        W16622   9.627   6.450  11.582                        
 9407W        W16623   2.185   8.614   0.372                        
 9408W        W16624   0.964   5.667   8.945                        
 9409W        W16625   1.518   8.828   3.322                        
 9410W        W16626   7.328   0.662   8.869                        
 9411W        W16627  12.044  11.008  11.041                        
 9412W        W16628   8.602   1.504   0.913                        
 9413W        W16629  12.043   4.896   1.251                        
 9414W        W16630  12.060   4.151   8.421                        
 9415W        W16631   3.251   2.022   2.209                        
 9416W        W16632  13.374   5.637   2.483                        
 9417W        W16633   9.882   4.056   3.120                        
 9418W        W16634  11.001   7.808  11.270                        
 9419W        W16635   5.480   7.065   9.418                        
 9420W        W16636   2.833   8.893   1.993                        
 9421W        W16637   0.674  10.371  11.604                        
 9422W        W16638  12.081  11.430   9.474                        
 9423W        W16639   1.408   3.814  10.794                        
 9424W        W16640   2.987   5.124   3.047                        
 9425W        W16641  10.710  12.772   3.294                        
 9426W        W16642   7.778  10.760   8.459                        
 9427W        W16643   2.777  10.383   0.897                        
 9428W        W16644   5.394   0.596   8.929                        
 9429W        W16645   3.559   3.550   8.376                        
 9430W        W16646  11.243   5.377   1.740                        
 9431W        W16647   5.175   6.482   3.374                        
 9432W        W16648   1.227   2.282   0.696                        
 9433W        W16649  11.761   3.016   1.431                        
 9434W        W16650   3.062   8.567   2.276                        
 9435W        W16651   9.165   7.466  11.601                        
 9436W        W16652   4.588   5.098   1.722                        
 9437W        W16653   1.140  13.089  11.336                        
 9438W        W16654   2.481   6.719   0.459                        
 9439W        W16655   7.477  10.215   0.689                        
 9440W        W16656  10.416   1.935  11.859                        
 9441W        W16657  13.893   7.216   9.408                        
 9442W        W16658   8.579   4.140   3.653                        
 9443W        W16659   0.947   0.955   2.282                        
 9444W        W16660   3.561   7.285  11.800                        
 9445W        W16661   8.915  13.399  11.306                        
 9446W        W16662   7.467   4.951   3.102                        
 9447W        W16663   1.688   5.975   3.339                        
 9448W        W16664   0.334   6.454  11.270                        
 9449W        W16665   6.772  12.753   1.437                        
 9450W        W16666  10.428   8.349   8.373                        
 9451W        W16667  10.752   0.710  10.235                        
 9452W        W16668  11.211  10.667   2.751                        
 9453W        W16669   3.283   9.647   3.045                        
 9454W        W16670   0.344   5.437  10.539                        
 9455W        W16671   8.618  11.807   0.991                        
 9456W        W16672  13.559   0.361   0.621                        
 9457W        W16673   4.352   2.510   8.340                        
 9458W        W16674   8.834  11.172   9.717                        
 9459W        W16675   2.221   7.241   2.038                        
 9460W        W16676  11.976   1.677   1.940                        
 9461W        W16677   8.094   6.273  11.807                        
 9462W        W16678  13.367   4.316   1.766                        
 9463W        W16679   0.908   2.214   0.077                        
 9464W        W16680   4.070   0.988   1.751                        
 9465W        W16681   9.705   2.553  11.591                        
 9466W        W16682   3.256   3.256  10.480                        
 9467W        W16683   7.811   0.627   0.104                        
 9468W        W16684  10.727   8.532   8.361                        
 9469W        W16685   7.808   0.187   1.794                        
 9470W        W16686  12.835   9.950   2.253                        
 9471W        W16687   6.736   5.466   0.080                        
 9472W        W16688   2.478  13.819   3.375                        
 9473W        W16689   6.233   8.881   1.174                        
 9474W        W16690   5.974   6.520   2.298                        
 9475W        W16691   3.305  10.763   3.325                        
 9476W        W16692   9.056  10.917   2.566                        
 9477W        W16693  12.802   6.687   2.270                        
 9478W        W16694   5.200   4.033   0.726                        
 9479W        W16695   5.425  13.595   9.758                        
 9480W        W16696   9.422  11.183   3.570                        
 9481W        W16697  13.804   7.823   0.687                        
 9482W        W16698   8.312  10.665  10.755                        
 9483W        W16699   9.105  11.214  11.659                        
 9484W        W16700   5.460   8.110  11.893                        
 9485W        W16701   1.142   4.822   0.671                        
 9486W        W16702  10.176  10.423  10.048                        
 9487W        W16703   2.270   4.068  11.050                        
 9488W        W16704   7.852   9.882   9.459                        
 9489W        W16705   0.118   4.316   2.478                        
 9490W        W16706  13.106   6.441  10.748                        
 9491W        W16707   0.638   3.039  10.481                        
 9492W        W16708   1.708   6.681   9.465                        
 9493W        W16709   1.735   9.593   0.131                        
 9494W        W16710   6.160   9.379   0.629                        
 9495W        W16711   3.771   0.335   8.135                        
 9496W        W16712  11.184  12.286  10.519                        
 9497W        W16713   4.421   0.356  11.116                        
 9498W        W16714  13.583   4.626   9.987                        
 9499W        W16715   5.478  11.530   1.691                        
 9500W        W16716   6.161  12.287   1.673                        
 9501W        W16717  13.642   1.504   3.365                        
 9502W        W16718  13.377   7.301  10.750                        
 9503W        W16719   6.468   2.833   8.428                        
 9504W        W16720   4.315  12.567   2.332                        
 9505W        W16721   4.581   5.881  11.836                        
 9506W        W16722   7.846   1.202   8.082                        
 9507W        W16723   5.738   9.122  11.324                        
 9508W        W16724   4.890  13.618   3.281                        
 9509W        W16725   1.733   3.796   8.689                        
 9510W        W16726   8.567   4.952   3.656                        
 9511W        W16727   4.421   3.854   2.035                        
 9512W        W16728   4.404   0.958   2.513                        
 9513W        W16729   3.059   1.953   1.947                        
 9514W        W16730   9.083   6.442  10.519                        
 9515W        W16731   1.241   0.915   1.449                        
 9516W        W16732  13.332   5.658   2.748                        
 9517W        W16733   2.185   5.739  11.884                        
 9518W        W16734  10.645   4.585   8.351                        
 9519W        W16735  10.661   8.903   1.246                        
 9520W        W16736  11.263   8.034   3.656                        
 9521W        W16737   3.285   3.868   1.956                        
 9522W        W16738  13.364   6.753   2.308                        
 9523W        W16739  12.488   5.451   9.251                        
 9524W        W16740  13.095   9.330   9.150                        
 9525W        W16741  13.650   0.346   8.874                        
 9526W        W16742   7.227   1.961   8.932                        
 9527W        W16743  10.724   8.013  11.653                        
 9528W        W16744   7.819   3.505   1.978                        
 9529W        W16745   7.289  13.395   3.642                        
 9530W        W16746   5.943   8.567   1.494                        
 9531W        W16747   3.333   6.425   1.692                        
 9532W        W16748  11.022   5.450   3.079                        
 9533W        W16749   4.824   0.182   3.838                        
 9534W        W16750  12.557   2.247   2.243                        
 9535W        W16751   7.574   5.630   9.677                        
 9536W        W16752   6.252  10.461  11.015                        
 9537W        W16753   5.893   8.809  10.507                        
 9538W        W16754  12.590   3.029  10.309                        
 9539W        W16755   4.929  10.125   0.420                        
 9540W        W16756   8.608   7.479   9.205                        
 9541W        W16757   6.427   2.309  10.521                        
 9542W        W16758   5.106   8.816   9.683                        
 9543W        W16759   2.010   1.656   1.732                        
 9544W        W16760   0.965   5.408   9.709                        
 9545W        W16761   6.980   5.690   3.590                        
 9546W        W16762   2.996  11.693   2.268                        
 9547W        W16763   8.567  10.109  11.388                        
 9548W        W16764   8.574   5.951  11.642                        
 9549W        W16765  13.023   9.916   3.285                        
 9550W        W16766  12.768   3.238   3.027                        
 9551W        W16767  12.520  12.607   0.911                        
 9552W        W16768   5.426  12.841   0.410                        
 9553W        W16769  13.334   5.145   1.755                        
 9554W        W16770   0.414   2.505   9.144                        
 9555W        W16771   0.649  12.007   8.384                        
 9556W        W16772   3.294   8.345   3.008                        
 9557W        W16773   0.104   7.824  10.244                        
 9558W        W16774   6.956   2.506   9.682                        
 9559W        W16775  11.249   8.614   3.320                        
 9560W        W16776  11.816  12.502   1.737                        
 9561W        W16777  13.405   9.101   8.390                        
 9562W        W16778   0.953  13.592   2.519                        
 9563W        W16779   6.783  11.553   0.111                        
 9564W        W16780   5.882   1.744   2.568                        
 9565W        W16781   6.705  12.825   0.940                        
 9566W        W16782   1.254   7.493   0.881                        
 9567W        W16783  10.701   1.931   3.317                        
 9568W        W16784   9.942   2.452   2.512                        
 9569W        W16785  12.791   5.432   8.924                        
 9570W        W16786   1.999   8.308  11.298                        
 9571W        W16787   4.852   3.829   9.502                        
 9572W        W16788   9.099   3.339   0.998                        
 9573W        W16789  13.564   9.894   2.753                        
 9574W        W16790   0.640   8.007   8.411                        
 9575W        W16791   9.432   2.445   0.621                        
 9576W        W16792   2.815   5.399   0.952                        
 9577W        W16793   8.008   7.496  10.215                        
 9578W        W16794   0.451   5.469  11.624                        
 9579W        W16795   4.641   9.353   1.966                        
 9580W        W16796   7.310   7.557   0.385                        
 9581W        W16797  12.832   1.939   1.403                        
 9582W        W16798   0.334   2.214  10.285                        
 9583W        W16799   3.246   5.677   0.675                        
 9584W        W16800   6.984   8.876  10.235                        
 9585W        W16801   6.964   9.386   3.663                        
 9586W        W16802   9.102   5.098  10.058                        
 9587W        W16803  12.293   4.356   9.950                        
 9588W        W16804  12.226   0.430   3.029                        
 9589W        W16805  13.140   6.986  11.062                        
 9590W        W16806  13.628   3.056   9.454                        
 9591W        W16807  10.472   1.432  10.040                        
 9592W        W16808   5.668   4.043   9.158                        
 9593W        W16809   9.626  13.890   9.755                        
 9594W        W16810  10.752   5.650   9.789                        
 9595W        W16811  11.773   0.917  10.822                        
 9596W        W16812  12.790  12.266   2.832                        
 9597W        W16813   7.556   1.730   8.342                        
 9598W        W16814   9.077   2.751   8.724                        
 9599W        W16815   5.662  12.817   2.540                        
 9600W        W16816   7.565   2.310  11.585                        
 9601W        W16817   6.697   7.530  11.364                        
 9602W        W16818  10.652  12.827   0.698                        
 9603W        W16819   8.000   2.512   9.424                        
 9604W        W16820   8.315   5.371   9.935                        
 9605W        W16821   2.534  12.608   9.776                        
 9606W        W16822   0.964  12.840  11.558                        
 9607W        W16823   1.388  13.879   0.444                        
 9608W        W16824  12.764   9.697   8.356                        
 9609W        W16825   1.406   8.579   3.609                        
 9610W        W16826   9.136   1.730   1.787                        
 9611W        W16827   6.783  12.303  11.651                        
 9612W        W16828  10.224   2.500  10.041                        
 9613W        W16829   8.097   0.070   0.690                        
 9614W        W16830  12.848   3.800   1.412                        
 9615W        W16831   8.531  11.501   2.323                        
 9616W        W16832   9.856   6.700   0.072                        
 9617W        W16833  10.683  10.946  10.801                        
 9618W        W16834  11.470  12.490   9.758                        
 9619W        W16835   6.733  11.960  11.546                        
 9620W        W16836   8.086   4.339   3.015                        
 9621W        W16837  13.379   0.171   8.461                        
 9622W        W16838   4.588  12.337   7.818                        
 9623W        W16839   0.719   6.473  11.823                        
 9624W        W16840   0.153  13.604   0.658                        
 9625W        W16841   5.091  10.681  10.743                        
 9626W        W16842   1.965  11.785   9.934                        
 9627W        W16843   8.019   0.967   1.453                        
 9628W        W16844   9.367  11.254  10.740                        
 9629W        W16845   9.851  12.562   4.413                        
 9630W        W16846   4.566  11.525   3.047                        
 9631W        W16847   3.550   9.410   3.567                        
 9632W        W16848   4.638   0.129   9.744                        
 9633W        W16849   1.426   7.548  11.038                        
 9634W        W16850   9.079   8.272   9.959                        
 9635W        W16851   1.947  13.893   0.665                        
 9636W        W16852  13.601  11.024   9.138                        
 9637W        W16853   6.770   2.751   2.835                        
 9638W        W16854   8.546   2.988  11.901                        
 9639W        W16855   4.151   8.283   0.634                        
 9640W        W16856  13.589   1.479   2.778                        
 9641W        W16857   7.052  12.273  10.310                        
 9642W        W16858  12.590  12.751   2.856                        
 9643W        W16859   7.246   5.354   3.589                        
 9644W        W16860   1.154   4.420   8.102                        
 9645W        W16861  10.208   0.187  11.271                        
 9646W        W16862   9.866   5.634  11.375                        
 9647W        W16863   4.858   4.325  10.297                        
 9648W        W16864  12.772  11.959   3.598                        
 9649W        W16865   8.109   1.475   8.727                        
 9650W        W16866   4.037   9.947   9.951                        
 9651W        W16867   9.124   5.128   9.436                        
 9652W        W16868   9.159   0.106  11.825                        
 9653W        W16869   6.938   5.657   0.121                        
 9654W        W16870  12.758   9.158   3.033                        
 9655W        W16871   7.804   7.796   9.157                        
 9656W        W16872   5.714  13.106   7.801                        
 9657W        W16873   1.455   8.319   2.825                        
 9658W        W16874   9.928   4.655   9.678                        
 9659W        W16875   1.159  11.270   8.953                        
 9660W        W16876  13.878   5.197   4.131                        
 9661W        W16877   2.304   6.181   9.237                        
 9662W        W16878  12.586   0.447   1.142                        
 9663W        W16879   8.050   7.837   0.169                        
 9664W        W16880   5.655  10.671   0.386                        
 9665W        W16881   9.372   1.479  11.308                        
 9666W        W16882  13.589   5.448   8.926                        
 9667W        W16883   6.987  12.578   0.432                        
 9668W        W16884   9.082   9.125   0.931                        
 9669W        W16885   3.035  10.161   8.706                        
 9670W        W16886  11.480   8.647   7.652                        
 9671W        W16887   9.656  12.547   8.906                        
 9672W        W16888   8.631  10.968   2.852                        
 9673W        W16889  11.232   0.716   2.256                        
 9674W        W16890   3.367   5.462   8.694                        
 9675W        W16891   2.043   6.176  11.833                        
 9676W        W16892  13.111   3.796   2.470                        
 9677W        W16893   8.255   6.702  10.330                        
 9678W        W16894   4.037   6.225  10.247                        
 9679W        W16895   1.482  11.552  10.553                        
 9680W        W16896   3.870   5.923   4.127                        
 9681W        W16897   3.770   7.843   0.977                        
 9682W        W16898   5.199   5.728   3.091                        
 9683W        W16899   5.690   8.051  10.317                        
 9684W        W16900   4.607   3.542   0.684                        
 9685W        W16901   7.304   5.669   3.865                        
 9686W        W16902  13.014   6.709   9.454                        
 9687W        W16903   1.238   9.593  11.384                        
 9688W        W16904   7.231  10.672   8.671                        
 9689W        W16905   5.942  13.898   1.228                        
 9690W        W16906   7.329  11.968   9.490                        
 9691W        W16907   3.537   1.207   0.713                        
 9692W        W16908   1.687  13.070  10.593                        
 9693W        W16909   9.169  10.727   1.701                        
 9694W        W16910  12.750   3.060  11.117                        
 9695W        W16911  12.612  10.693   3.556                        
 9696W        W16912   4.387  12.572   8.698                        
 9697W        W16913   1.712   6.998   9.459                        
 9698W        W16914   6.473   7.853   8.401                        
 9699W        W16915   1.393   1.467   1.154                        
 9700W        W16916   0.961  13.394   1.496                        
 9701W        W16917   4.095  13.399  11.629                        
 9702W        W16918  11.461  12.063   9.796                        
 9703W        W16919  12.812   7.481   2.299                        
 9704W        W16920   6.492  11.955  11.640                        
 9705W        W16921   8.522   0.104   1.522                        
 9706W        W16922  10.221   2.508   8.670                        
 9707W        W16923   8.310   6.259  10.271                        
 9708W        W16924   3.578   4.141  10.482                        
 9709W        W16925   8.040  12.488   0.965                        
 9710W        W16926  10.746   3.293  10.276                        
 9711W        W16927   8.334   1.951  11.877                        
 9712W        W16928   3.518   5.630   8.392                        
 9713W        W16929   3.284  13.379   3.068                        
 9714W        W16930   1.923  13.401   1.461                        
 9715W        W16931  10.118  10.225   0.705                        
 9716W        W16932   4.896   3.315   9.261                        
 9717W        W16933   2.835   2.978   0.638                        
 9718W        W16934   3.087  12.835   1.415                        
 9719W        W16935   5.408   2.466  10.557                        
 9720W        W16936   5.629   9.840   0.096                        
 9721W        W16937   9.050   0.965   2.557                        
 9722W        W16938  11.539   1.514   0.099                        
 9723W        W16939   8.284  12.583   3.895                        
 9724W        W16940   4.571   0.678   1.972                        
 9725W        W16941   9.650   4.337   0.073                        
 9726W        W16942   0.179   7.016   9.240                        
 9727W        W16943   0.922   9.873   2.059                        
 9728W        W16944  13.062   3.869  10.060                        
 9729W        W16945   6.454  10.933   4.076                        
 9730W        W16946  11.282   5.911   8.647                        
 9731W        W16947   5.982   1.214   7.647                        
 9732W        W16948   1.478   6.764   3.636                        
 9733W        W16949   5.404   1.494  10.504                        
 9734W        W16950   2.973   0.602   7.665                        
 9735W        W16951   7.536   4.139   3.297                        
 9736W        W16952   7.289   8.623   0.662                        
 9737W        W16953   9.634  10.912   1.497                        
 9738W        W16954   9.322   5.651  10.200                        
 9739W        W16955  12.290   2.283  11.908                        
 9740W        W16956  11.771   1.443   3.004                        
 9741W        W16957   4.354  10.187   0.362                        
 9742W        W16958   1.775  12.256   0.894                        
 9743W        W16959   0.108   2.194   0.692                        
 9744W        W16960  13.366   9.680   9.934                        
 9745W        W16961  11.282   7.834  11.101                        
 9746W        W16962   4.592  13.827   8.623                        
 9747W        W16963   2.752  10.174   0.456                        
 9748W        W16964   3.568   5.207  11.600                        
 9749W        W16965   0.147   4.943   3.054                        
 9750W        W16966   4.395   1.714   2.856                        
 9751W        W16967   4.332   4.669   3.299                        
 9752W        W16968   2.978   1.982  10.011                        
 9753W        W16969   1.250   0.366   4.092                        
 9754W        W16970   1.680  13.621  11.633                        
 9755W        W16971   2.043  10.144  10.256                        
 9756W        W16972   9.947   9.653   8.695                        
 9757W        W16973   8.036   3.535  11.600                        
 9758W        W16974  10.663   3.027   1.466                        
 9759W        W16975   2.001  10.725   0.948                        
 9760W        W16976  12.009   5.729   8.185                        
 9761W        W16977  12.320   7.736   9.772                        
 9762W        W16978  13.340   4.063   8.644                        
 9763W        W16979   0.461   9.958  11.375                        
 9764W        W16980   0.118   5.992   1.451                        
 9765W        W16981  13.592  13.320  10.745                        
 9766W        W16982  13.848  12.842  10.230                        
 9767W        W16983   1.717   2.714   1.147                        
 9768W        W16984   0.703  12.218   3.341                        
 9769W        W16985   3.627   8.914   3.036                        
 9770W        W16986   8.118   6.681  10.566                        
 9771W        W16987   7.535   7.218   2.320                        
 9772W        W16988   8.848   5.940   9.457                        
 9773W        W16989   8.074   6.255   9.727                        
 9774W        W16990  12.324   6.489   1.144                        
 9775W        W16991  10.408   5.624   9.434                        
 9776W        W16992   4.109  13.540  10.834                        
 9777W        W16993   0.104  12.022  11.095                        
 9778W        W16994  13.283   2.212  11.060                        
 9779W        W16995   5.387   1.667  10.254                        
 9780W        W16996   5.677  12.252   9.755                        
 9781W        W16997   5.636   6.798   8.602                        
 9782W        W16998   7.855  13.032  10.550                        
 9783W        W16999   8.544   4.584   1.773                        
 9784W        W17000   0.143   1.756   9.242                        
 9785W        W17001   1.477   5.628   3.576                        
 9786W        W17002   6.769  12.517   1.945                        
 9787W        W17003   0.462   4.134   3.328                        
 9788W        W17004   7.833  13.859   3.379                        
 9789W        W17005  10.420   1.394   7.865                        
 9790W        W17006   5.198   9.098   0.099                        
 9791W        W17007   8.349   9.409   3.391                        
 9792W        W17008   4.302   3.045  11.888                        
 9793W        W17009   0.086   0.915   1.169                        
 9794W        W17010   4.303   5.714   2.211                        
 9795W        W17011   6.980   6.191   9.994                        
 9796W        W17012   3.255   9.330  10.799                        
 9797W        W17013   0.163   5.965  10.529                        
 9798W        W17014   6.991   1.184   9.710                        
 9799W        W17015  13.353   5.368   0.355                        
 9800W        W17016   5.889   2.215   9.422                        
 9801W        W17017  10.394  11.746   8.342                        
 9802W        W17018   1.973   7.474   9.733                        
 9803W        W17019  10.184   9.136   8.444                        
 9804W        W17020   9.623   1.756   8.354                        
 9805W        W17021   0.597   8.879   3.552                        
 9806W        W17022   6.247   3.073   0.143                        
 9807W        W17023   1.210   8.787   8.460                        
 9808W        W17024   5.891   4.839   2.228                        
 9809W        W17025   7.782   7.316   0.097                        
 9810W        W17026  13.297   5.737   0.938                        
 9811W        W17027   6.746   6.202  10.471                        
 9812W        W17028   0.596   6.222   2.047                        
 9813W        W17029   8.093  12.815   4.358                        
 9814W        W17030  10.947   5.146   3.032                        
 9815W        W17031  13.122   5.707   1.767                        
 9816W        W17032   5.373   8.880  11.033                        
 9817W        W17033   5.938   2.475   0.180                        
 9818W        W17034   7.037   8.852  11.021                        
 9819W        W17035  12.228   6.194   8.992                        
 9820W        W17036  11.520   4.302   1.705                        
 9821W        W17037   2.756   7.503  10.514                        
 9822W        W17038   2.263   7.729   8.196                        
 9823W        W17039   4.872  10.674   0.649                        
 9824W        W17040   7.008   1.464   7.660                        
 9825W        W17041   9.862   9.928   3.356                        
 9826W        W17042   9.656   0.649   2.328                        
 9827W        W17043   1.221  11.971  11.922                        
 9828W        W17044   4.090   5.480   1.671                        
 9829W        W17045   4.897  10.673  11.102                        
 9830W        W17046  11.763   9.850   8.723                        
 9831W        W17047   5.982   8.901  11.897                        
 9832W        W17048   8.523  10.446   3.096                        
 9833W        W17049   0.183   0.884  11.605                        
 9834W        W17050  13.099  11.161  11.830                        
 9835W        W17051  12.050   0.881   4.350                        
 9836W        W17052   7.792   4.664   2.817                        
 9837W        W17053   4.341  12.279  11.386                        
 9838W        W17054   7.214  13.923   1.485                        
 9839W        W17055   4.953   5.135   8.701                        
 9840W        W17056   5.208   9.936   3.274                        
 9841W        W17057  12.060  11.272  11.552                        
 9842W        W17058   7.562   8.628   8.091                        
 9843W        W17059  12.027   8.276   3.032                        
 9844W        W17060  12.850   8.113   4.075                        
 9845W        W17061   0.430   2.801   3.607                        
 9846W        W17062   7.046  11.711   0.667                        
 9847W        W17063   3.795   5.700   1.157                        
 9848W        W17064   1.656   1.966  11.553                        
 9849W        W17065   8.265   4.128  11.341                        
 9850W        W17066   0.917   9.359   1.505                        
 9851W        W17067   8.826   0.391   3.091                        
 9852W        W17068   6.173   9.100   9.173                        
 9853W        W17069   5.633  11.429   1.961                        
 9854W        W17070   8.804   4.160   3.351                        
 9855W        W17071   4.381  11.750  11.582                        
 9856W        W17072   8.564   5.113  11.364                        
 9857W        W17073   1.958   0.859  11.888                        
 9858W        W17074   1.699   1.740   3.277                        
 9859W        W17075  13.655  13.554   8.647                        
 9860W        W17076   8.288   9.926  11.061                        
 9861W        W17077  12.823   9.630   4.419                        
 9862W        W17078  13.809   8.858   2.557                        
 9863W        W17079   0.609   2.711   0.159                        
 9864W        W17080   0.598   6.961   3.371                        
 9865W        W17081   1.516   8.108  11.656                        
 9866W        W17082   8.105   0.688  11.123                        
 9867W        W17083  10.708   2.504   4.110                        
 9868W        W17084   9.629   9.132   3.620                        
 9869W        W17085   6.433  10.746   2.000                        
 9870W        W17086   4.828   8.577  11.629                        
 9871W        W17087   4.928   1.497   9.502                        
 9872W        W17088   4.632  13.849  11.927                        
 9873W        W17089  11.740  13.614  10.851                        
 9874W        W17090   9.347  11.227   0.190                        
 9875W        W17091   5.916   5.712   9.404                        
 9876W        W17092   0.160   3.820  10.746                        
 9877W        W17093   9.580  12.022  10.552                        
 9878W        W17094   5.713   1.723  10.330                        
 9879W        W17095  12.511  12.049   3.885                        
 9880W        W17096   0.682  11.483   7.626                        
 9881W        W17097   4.908   6.768   1.733                        
 9882W        W17098   2.235   2.248   1.950                        
 9883W        W17099  11.199   3.314   2.257                        
 9884W        W17100   8.006  10.170   2.588                        
 9885W        W17101   3.612   8.286   2.745                        
 9886W        W17102   7.533   3.292  10.777                        
 9887W        W17103   1.937   2.767   1.519                        
 9888W        W17104  10.925   7.752   1.528                        
 9889W        W17105   8.651   5.446   0.689                        
 9890W        W17106   7.491   5.456   2.554                        
 9891W        W17107   9.603   4.873  10.795                        
 9892W        W17108   4.871  11.173  10.058                        
 9893W        W17109   8.816  12.825   0.344                        
 9894W        W17110  12.290   5.695   3.320                        
 9895W        W17111   3.584  10.966   8.399                        
 9896W        W17112   1.969   7.836   2.309                        
 9897W        W17113   9.700   4.884   2.826                        
 9898W        W17114  13.548  11.973  10.846                        
 9899W        W17115   2.484   3.859   9.710                        
 9900W        W17116   7.330   8.520   9.459                        
 9901W        W17117   7.510   3.624   3.098                        
 9902W        W17118  13.024   4.108   9.495                        
 9903W        W17119   3.764   7.818   2.020                        
 9904W        W17120  12.280  12.500  10.055                        
 9905W        W17121  10.758  13.071   1.138                        
 9906W        W17122   2.780   5.159   1.264                        
 9907W        W17123   4.906  11.954   0.436                        
 9908W        W17124  13.829   0.134   0.441                        
 9909W        W17125  11.237   7.200   2.547                        
 9910W        W17126   7.778  12.818   3.537                        
 9911W        W17127   1.438  11.720  11.534                        
 9912W        W17128  12.864   7.520   9.515                        
 9913W        W17129   5.905   0.658   2.564                        
 9914W        W17130   2.265   4.134   3.345                        
 9915W        W17131   7.560  12.329   2.238                        
 9916W        W17132  13.851   3.074   8.696                        
 9917W        W17133   2.243   9.584   0.631                        
 9918W        W17134  11.207   6.232   4.378                        
 9919W        W17135   5.713   0.966   2.062                        
 9920W        W17136   8.031  11.270  11.835                        
 9921W        W17137   4.642  11.277   1.234                        
 9922W        W17138   7.017  13.117   3.032                        
 9923W        W17139   1.480   8.605   9.794                        
 9924W        W17140   5.132   5.204   2.469                        
 9925W        W17141   4.558   4.681   0.610                        
 9926W        W17142   6.495   0.452   8.114                        
 9927W        W17143   5.678   9.908   3.591                        
 9928W        W17144   3.774  10.982  10.493                        
 9929W        W17145   4.040   7.547   1.520                        
 9930W        W17146  11.770   3.095  11.813                        
 9931W        W17147   8.824   0.951  10.061                        
 9932W        W17148   6.193   6.714   8.627                        
 9933W        W17149   6.720  12.510   3.092                        
 9934W        W17150  10.666   1.162   8.946                        
 9935W        W17151   0.685  10.496   8.648                        
 9936W        W17152   9.377   2.778   9.706                        
 9937W        W17153   9.868  13.580   9.179                        
 9938W        W17154   3.243   6.498   8.391                        
 9939W        W17155   4.878   8.374   3.395                        
 9940W        W17156   7.472  12.487  10.760                        
 9941W        W17157   6.974   1.654   3.902                        
 9942W        W17158  12.777   7.214  11.318                        
 9943W        W17159   7.785   7.483   2.328                        
 9944W        W17160   9.401   5.723   0.353                        
 9945W        W17161   6.438   4.042   1.184                        
 9946W        W17162   1.206   6.706   1.478                        
 9947W        W17163   9.438  10.682   1.759                        
 9948W        W17164  10.452   0.970   1.771                        
 9949W        W17165   5.882   9.581   2.772                        
 9950W        W17166   0.333   3.266   2.025                        
 9951W        W17167   2.287  10.155   1.167                        
 9952W        W17168  13.044  12.754   2.829                        
 9953W        W17169  10.723   4.576  11.868                        
 9954W        W17170  13.591   6.222   0.080                        
 9955W        W17171   5.984   0.683   3.538                        
 9956W        W17172  10.671  12.569  11.584                        
 9957W        W17173   6.233   1.652   1.751                        
 9958W        W17174  10.385   7.210   1.788                        
 9959W        W17175   4.380   4.658   3.039                        
 9960W        W17176   6.746   5.625  11.631                        
 9961W        W17177   1.484   4.656   8.447                        
 9962W        W17178   7.321   0.860  10.805                        
 9963W        W17179   8.336  12.331   3.373                        
 9964W        W17180   3.795  13.855   1.171                        
 9965W        W17181   0.349   0.681  10.255                        
 9966W        W17182   6.958   9.675  11.324                        
 9967W        W17183   8.856  12.049   2.022                        
 9968W        W17184   3.867  10.216   1.694                        
 9969W        W17185  13.832   7.787  11.602                        
 9970W        W17186   6.968  12.490   8.893                        
 9971W        W17187   2.738  11.691   1.963                        
 9972W        W17188  12.815   7.731   8.689                        
 9973W        W17189   9.104  13.616   1.251                        
 9974W        W17190  10.956   6.521   1.950                        
 9975W        W17191   8.339   3.269  11.560                        
 9976W        W17192  11.553   6.452   0.924                        
 9977W        W17193  11.166   7.751   0.936                        
 9978W        W17194  13.111   5.976   0.183                        
 9979W        W17195   1.988   4.899  10.772                        
 9980W        W17196   6.759   7.218  10.776                        
 9981W        W17197   0.663   6.964  11.638                        
 9982W        W17198   9.118   9.967  10.321                        
 9983W        W17199   7.266   5.477  10.840                        
 9984W        W17200   6.732   2.036   4.416                        
 9985W        W17201   3.618   6.712   4.157                        
 9986W        W17202   9.696   5.154   9.491                        
 9987W        W17203   1.680   8.651   1.424                        
 9988W        W17204   5.965   0.401   0.070                        
 9989W        W17205   8.369  13.642   8.086                        
 9990W        W17206   9.633  11.555   0.703                        
 9991W        W17207  13.010  12.552   2.216                        
 9992W        W17208  10.665   6.485  11.845                        
 9993W        W17209  13.320  11.184   1.140                        
 9994W        W17210   8.349  12.544   9.934                        
 9995W        W17211   5.367   6.943  11.341                        
 9996W        W17212   5.179   6.935   1.799                        
 9997W        W17213   5.386  12.485   3.879                        
 9998W        W17214  10.944   5.881   2.241                        
 9999W        W17215   5.438   3.325  10.236                        
    0W        W17216   3.051   4.822   0.401                        
    1W        W17217   2.762  11.426   0.651                        
    2W        W17218  13.875   2.237   2.843                        
    3W        W17219   7.281   3.796   8.698                        
    4W        W17220   5.666   6.249   8.110                        
    5W        W17221   8.287   7.291   1.230                        
    6W        W17222   9.934  10.981   3.636                        
    7W        W17223   4.888   1.488   1.238                        
    8W        W17224   5.995   2.024   2.248                        
    9W        W17225   8.377   0.629  11.120                        
   10W        W17226   2.005   9.128   0.354                        
   11W        W17227   7.856   3.346  10.550                        
   12W        W17228   3.602  13.363   2.851                        
   13W        W17229   4.137   9.942  10.849                        
   14W        W17230   4.939   1.768   1.673                        
   15W        W17231  11.284  11.543  11.882                        
   16W        W17232   6.187   3.269   0.671                        
   17W        W17233   9.090   6.789   8.195                        
   18W        W17234   0.715   9.632  10.570                        
   19W        W17235   0.093   6.537  10.290                        
   20W        W17236  12.763  10.218   8.950                        
   21W        W17237   6.439   0.921   3.813                        
   22W        W17238  13.120   5.135   9.983                        
   23W        W17239   6.167   7.787   8.716                        
   24W        W17240   8.562   2.263   3.014                        
   25W        W17241  10.974   1.943   3.570                        
   26W        W17242   9.691   4.121   0.684                        
   27W        W17243   6.515  12.866  10.849                        
   28W        W17244   8.806   4.099   9.210                        
   29W        W17245   0.859   3.584  11.641                        
   30W        W17246   1.483   0.372   4.364                        
   31W        W17247  12.290   3.854  10.014                        
   32W        W17248  11.707  11.529   9.692                        
   33W        W17249  11.738   4.159   0.636                        
   34W        W17250   4.559  11.740   9.449                        
   35W        W17251   7.570   0.715   9.501                        
   36W        W17252   4.683   5.996   9.440                        
   37W        W17253  12.803   1.232   1.244                        
   38W        W17254  13.650  12.865   0.983                        
   39W        W17255   9.606  13.831   1.454                        
   40W        W17256  13.035   2.047  11.603                        
   41W        W17257   6.672  12.243   2.008                        
   42W        W17258  12.280  13.120   2.849                        
   43W        W17259   5.986   8.371   8.145                        
   44W        W17260   3.264   1.995   3.118                        
   45W        W17261   8.546  11.027  10.266                        
   46W        W17262   6.937  12.069   3.127                        
   47W        W17263  13.047   3.051  10.802                        
   48W        W17264   4.858   4.294  11.880                        
   49W        W17265  11.206   8.277   3.381                        
   50W        W17266  12.812   7.013  11.930                        
   51W        W17267   3.878  13.342   1.238                        
   52W        W17268   0.645   6.484   2.584                        
   53W        W17269   9.158   2.220   0.342                        
   54W        W17270   0.085   8.357   0.715                        
   55W        W17271   3.773  12.570   1.202                        
   56W        W17272  11.444  13.631  10.853                        
   57W        W17273   3.268   3.774   9.979                        
   58W        W17274   0.622   3.551   0.166                        
   59W        W17275   1.163   9.968   3.124                        
   60W        W17276  13.397   1.733   2.591                        
   61W        W17277  10.924  13.292  11.057                        
   62W        W17278   7.492   5.918  10.736                        
   63W        W17279   5.651  13.340  11.851                        
   64W        W17280  12.279  12.820   3.012                        
   65W        W17281  12.524   0.618   7.566                        
   66W        W17282  13.359  10.934   9.497                        
   67W        W17283  13.378   9.623   1.727                        
   68W        W17284  11.279  11.530   8.931                        
   69W        W17285  11.972  10.201  10.017                        
   70W        W17286   4.650  12.328   8.689                        
   71W        W17287  11.535   8.316  11.621                        
   72W        W17288   2.573   6.471   9.221                        
   73W        W17289   9.912  13.319   0.192                        
   74W        W17290   3.547  11.189  11.059                        
   75W        W17291  12.300   8.609   8.637                        
   76W        W17292   2.451  12.838  10.213                        
   77W        W17293  12.788   6.774   2.026                        
   78W        W17294   4.632   8.112  11.079                        
   79W        W17295   8.612  12.232   7.576                        
   80W        W17296   8.572   7.770  10.275                        
   81W        W17297  12.760   3.507   9.438                        
   82W        W17298   0.694   3.802   0.088                        
   83W        W17299   2.285   4.619   0.380                        
   84W        W17300   8.003   4.386   1.793                        
   85W        W17301  10.423  13.307   2.486                        
   86W        W17302  10.689   1.656   8.611                        
   87W        W17303   4.310  11.708   9.741                        
   88W        W17304   4.031   3.364   3.566                        
   89W        W17305  10.174   6.969   1.742                        
   90W        W17306   6.149   6.768   1.771                        
   91W        W17307   7.527  13.914  11.345                        
   92W        W17308  13.611  12.490   1.499                        
   93W        W17309   6.484   2.733   9.154                        
   94W        W17310   0.602  11.241   3.116                        
   95W        W17311  10.234   3.010   7.830                        
   96W        W17312  12.272   8.785   9.744                        
   97W        W17313   8.019   1.733  10.250                        
   98W        W17314   8.386   0.671  11.858                        
   99W        W17315  10.993  13.370   9.252                        
  100W        W17316  13.596   4.951  11.030                        
  101W        W17317   7.260   5.465   4.450                        
  102W        W17318   0.649  10.188  11.859                        
  103W        W17319   4.051   0.975   0.956                        
  104W        W17320   8.029   0.194   1.954                        
  105W        W17321  13.361   9.963   1.698                        
  106W        W17322  10.466   9.670   0.617                        
  107W        W17323  11.967  10.737   7.929                        
  108W        W17324   2.737   3.283  11.284                        
  109W        W17325   4.914  12.540   0.439                        
  110W        W17326  12.330   8.909   3.283                        
  111W        W17327   9.938   0.644  10.012                        
  112W        W17328   7.463   5.155   2.515                        
  113W        W17329   6.452   5.166   3.820                        
  114W        W17330  11.446  13.378   3.647                        
  115W        W17331  10.687   6.411   0.927                        
  116W        W17332   4.112  10.973   8.407                        
  117W        W17333   1.758   9.066   2.037                        
  118W        W17334   0.079   6.211   2.761                        
  119W        W17335  12.254   5.687  10.024                        
  120W        W17336  10.975   1.782   8.166                        
  121W        W17337   1.748   6.409   8.896                        
  122W        W17338   8.816   2.755   3.076                        
  123W        W17339   7.273   6.696   1.162                        
  124W        W17340   1.782   3.510  11.638                        
  125W        W17341   1.519   2.741   9.195                        
  126W        W17342   4.394   8.819  10.279                        
  127W        W17343   5.351   7.810  11.339                        
  128W        W17344   3.584   6.986   8.998                        
  129W        W17345  10.761   6.520   2.052                        
  130W        W17346   5.957  13.106  10.762                        
  131W        W17347  13.612   7.566   2.020                        
  132W        W17348   8.909   9.384   9.999                        
  133W        W17349  12.239  11.004   1.703                        
  134W        W17350   0.933   9.385   0.626                        
  135W        W17351   2.767   0.897   3.619                        
  136W        W17352   7.584  12.084   3.553                        
  137W        W17353   5.413   8.862   3.568                        
  138W        W17354   1.512  12.556   0.968                        
  139W        W17355   4.640   7.586  10.202                        
  140W        W17356  12.535   4.325  10.860                        
  141W        W17357   5.945   0.909  11.599                        
  142W        W17358   5.443   6.723  11.098                        
  143W        W17359  10.488   9.104   1.463                        
  144W        W17360  12.835   2.542   0.400                        
  145W        W17361  11.798  11.535   8.391                        
  146W        W17362  11.193   0.335  10.815                        
  147W        W17363   1.675  10.934   2.840                        
  148W        W17364  12.010   0.601  10.040                        
  149W        W17365   9.953   4.915  11.359                        
  150W        W17366   3.348   8.261   9.243                        
  151W        W17367  10.694   5.938   2.227                        
  152W        W17368   5.195   1.501  11.309                        
  153W        W17369   9.670   3.800   8.402                        
  154W        W17370   8.618   8.827   9.411                        
  155W        W17371   4.563   5.893   1.766                        
  156W        W17372   0.872   5.463  11.043                        
  157W        W17373   1.717  11.502  10.266                        
  158W        W17374  11.703   9.623   2.009                        
  159W        W17375   6.716   8.582  11.834                        
  160W        W17376   3.792   3.310   2.559                        
  161W        W17377   5.982   7.056   3.033                        
  162W        W17378   1.146   2.521   0.875                        
  163W        W17379   3.344   0.131   2.578                        
  164W        W17380   2.011  13.558   0.388                        
  165W        W17381   4.614   3.033   9.794                        
  166W        W17382   9.673   5.468  10.037                        
  167W        W17383   2.211   7.531   4.082                        
  168W        W17384   4.355   3.581  11.109                        
  169W        W17385   1.999   0.361   8.895                        
  170W        W17386   3.072   1.401   7.916                        
  171W        W17387   4.682   7.771   2.572                        
  172W        W17388   1.700  11.281   0.895                        
  173W        W17389  11.262   8.327  10.313                        
  174W        W17390   7.499   4.122   4.364                        
  175W        W17391   4.580  12.504   3.073                        
  176W        W17392   2.557   5.687   2.773                        
  177W        W17393   0.990   0.707   0.654                        
  178W        W17394   4.063  11.202   9.164                        
  179W        W17395   8.295   0.979   1.785                        
  180W        W17396   9.331   3.594   9.767                        
  181W        W17397   5.367   0.918   8.726                        
  182W        W17398   3.059   5.108  11.895                        
  183W        W17399   8.806   6.007   1.404                        
  184W        W17400   5.909  12.787   2.021                        
  185W        W17401   5.189   8.016   0.887                        
  186W        W17402   8.066  12.032   1.762                        
  187W        W17403   2.198   0.622   0.700                        
  188W        W17404   6.223   5.160   2.847                        
  189W        W17405   5.718   5.463   7.812                        
  190W        W17406   4.333   8.102   1.670                        
  191W        W17407  12.269   4.849  11.364                        
  192W        W17408   1.917   8.625   0.193                        
  193W        W17409  13.339  11.289   9.421                        
  194W        W17410   9.368   2.481   0.981                        
  195W        W17411   2.008   6.222   2.490                        
  196W        W17412  11.224  11.735   2.210                        
  197W        W17413  10.490  10.995   2.750                        
  198W        W17414  13.582   1.393   3.043                        
  199W        W17415   8.815   6.765  11.124                        
  200W        W17416   3.586  10.959   0.100                        
  201W        W17417   4.641  12.296  11.857                        
  202W        W17418  12.560  10.994   0.465                        
  203W        W17419   1.152   2.253   2.589                        
  204W        W17420   3.630   8.631  11.870                        
  205W        W17421  11.960  11.521   1.000                        
  206W        W17422  12.293  11.535  11.888                        
  207W        W17423   2.973   8.064   3.614                        
  208W        W17424  13.344   7.260  11.274                        
  209W        W17425   4.323   6.728  10.796                        
  210W        W17426   5.625  12.070   2.542                        
  211W        W17427   5.922   2.014   1.422                        
  212W        W17428  12.531  11.238   8.184                        
  213W        W17429  13.073  10.633   1.152                        
  214W        W17430  11.969   3.506   9.705                        
  215W        W17431   1.406  10.677   0.439                        
  216W        W17432   9.578   3.514   8.383                        
  217W        W17433  10.748   1.460   9.948                        
  218W        W17434   5.361   4.034   3.317                        
  219W        W17435  13.928  11.544   1.429                        
  220W        W17436   6.990   6.191   2.475                        
  221W        W17437   6.513  10.734   0.189                        
  222W        W17438   0.614   5.167  10.804                        
  223W        W17439  11.024   0.416   8.414                        
  224W        W17440   7.040   0.385  11.342                        
  225W        W17441  10.445  12.580   2.742                        
  226W        W17442   0.891   7.854  11.114                        
  227W        W17443  12.753   5.139   0.164                        
  228W        W17444  13.663   0.906  11.103                        
  229W        W17445   5.957   2.289   8.361                        
  230W        W17446   4.034   5.621   9.468                        
  231W        W17447   5.632   0.117   8.725                        
  232W        W17448   7.766   4.567  11.868                        
  233W        W17449   5.459   8.281   9.253                        
  234W        W17450   7.511   4.872   0.411                        
  235W        W17451   4.294   6.729   8.609                        
  236W        W17452   2.489   5.172  11.371                        
  237W        W17453   7.780   1.769   8.073                        
  238W        W17454   7.226   4.323  10.251                        
  239W        W17455   3.312   4.102   0.977                        
  240W        W17456   9.887  11.252   0.628                        
  241W        W17457  13.136   9.092   0.376                        
  242W        W17458   3.320   7.046  10.515                        
  243W        W17459   7.547   9.909   1.670                        
  244W        W17460   5.889   4.939   8.357                        
  245W        W17461   5.206   5.895  11.077                        
  246W        W17462   1.768   1.732  10.326                        
  247W        W17463   2.025   5.156   2.212                        
  248W        W17464   3.307   5.087   4.383                        
  249W        W17465   5.676   7.768   8.433                        
  250W        W17466   2.990   7.277   1.496                        
  251W        W17467   6.690   2.448  11.536                        
  252W        W17468   6.271   7.540   2.227                        
  253W        W17469   7.855   5.744   2.737                        
  254W        W17470   6.968   0.921   0.143                        
  255W        W17471   4.931   8.589  11.896                        
  256W        W17472   8.646  10.459  11.810                        
  257W        W17473   7.771   9.081   9.736                        
  258W        W17474  13.636   8.611   8.657                        
  259W        W17475   0.924  10.715  10.298                        
  260W        W17476   3.852   2.719  11.285                        
  261W        W17477   6.791   3.299   3.100                        
  262W        W17478   7.295  11.795   3.316                        
  263W        W17479   6.476  12.012   3.604                        
  264W        W17480   8.827   8.629   1.200                        
  265W        W17481  10.683  12.773   0.915                        
  266W        W17482   0.436   2.792  10.763                        
  267W        W17483   5.419   3.557   9.979                        
  268W        W17484   3.238  10.646   3.605                        
  269W        W17485   3.280   0.160   9.675                        
  270W        W17486   1.137   5.409  10.215                        
  271W        W17487   4.300   8.600  10.278                        
  272W        W17488  11.235  10.655   9.956                        
  273W        W17489   6.674   3.280  11.629                        
  274W        W17490  10.123  11.252  11.041                        
  275W        W17491   3.798   9.078   1.460                        
  276W        W17492  11.989   5.722   0.728                        
  277W        W17493   8.291   1.939   9.721                        
  278W        W17494   0.353   6.227   0.433                        
  279W        W17495  11.242   4.897   0.083                        
  280W        W17496  11.539  10.174   0.176                        
  281W        W17497   3.547   2.194  10.824                        
  282W        W17498   9.617   4.638   7.539                        
  283W        W17499   5.370   0.946   3.333                        
  284W        W17500  11.548   0.684   3.918                        
  285W        W17501   9.318   9.674   0.199                        
  286W        W17502   4.126   8.607  11.284                        
  287W        W17503  11.243   3.513   8.695                        
  288W        W17504   8.526  10.127  11.105                        
  289W        W17505   8.325   3.103  11.373                        
  290W        W17506   3.283  13.101  11.012                        
  291W        W17507   7.812   7.538   8.424                        
  292W        W17508   2.991   7.839   9.190                        
  293W        W17509  12.606   3.361   0.144                        
  294W        W17510   7.320  13.344   9.996                        
  295W        W17511   4.893  11.723   1.500                        
  296W        W17512   1.972   0.660   8.670                        
  297W        W17513   4.053   3.565   1.692                        
  298W        W17514   4.111   1.203  11.881                        
  299W        W17515   3.572  11.795   3.542                        
  300W        W17516  12.535   8.322   2.522                        
  301W        W17517   0.332   4.624  11.015                        
  302W        W17518  10.224  10.119  11.563                        
  303W        W17519  11.285   7.546  11.332                        
  304W        W17520   1.422  13.930   2.585                        
  305W        W17521   0.675   4.036   3.115                        
  306W        W17522   9.642   9.942   1.950                        
  307W        W17523   5.354   3.280   9.424                        
  308W        W17524  11.735   0.403   3.864                        
  309W        W17525  10.447  13.131   0.200                        
  310W        W17526   8.865  10.900   1.210                        
  311W        W17527   4.317   9.361   1.477                        
  312W        W17528   9.418  12.256   8.608                        
  313W        W17529  12.324   0.145   8.151                        
  314W        W17530   0.878   9.677   2.290                        
  315W        W17531   9.914   2.978   9.698                        
  316W        W17532   0.595   8.847   2.297                        
  317W        W17533   2.569   4.909  11.879                        
  318W        W17534  10.434   1.197  11.059                        
  319W        W17535   1.436   4.079   7.917                        
  320W        W17536   6.737   1.671   8.385                        
  321W        W17537   1.472   6.213  11.120                        
  322W        W17538   8.630   6.268   2.529                        
  323W        W17539   1.960   3.886   1.989                        
  324W        W17540   2.815  13.127   3.838                        
  325W        W17541   6.515   8.834   8.648                        
  326W        W17542   7.513   5.948   1.729                        
  327W        W17543   0.184   7.063   1.700                        
  328W        W17544  10.445   8.568   1.415                        
  329W        W17545   7.241   9.879   2.255                        
  330W        W17546   9.648   1.213  10.849                        
  331W        W17547   2.278  13.836   2.269                        
  332W        W17548   6.461  11.555   1.699                        
  333W        W17549   6.204   6.241  10.760                        
  334W        W17550   4.619   0.684   8.384                        
  335W        W17551   5.989   5.089   7.927                        
  336W        W17552  12.064   3.593  11.831                        
  337W        W17553   6.254   1.425   1.490                        
  338W        W17554  13.913  13.651   9.755                        
  339W        W17555   9.907   8.847   9.673                        
  340W        W17556   2.468  11.012   2.326                        
  341W        W17557  12.295   3.831   9.726                        
  342W        W17558  12.219   2.810  11.050                        
  343W        W17559   9.178   0.863   3.386                        
  344W        W17560   4.930  13.635   3.108                        
  345W        W17561   0.894   7.033   8.624                        
  346W        W17562   5.458   2.760   0.633                        
  347W        W17563   2.976   5.688   4.465                        
  348W        W17564   1.737   0.436  11.808                        
  349W        W17565   4.599   5.986  11.278                        
  350W        W17566   2.259   0.403   1.433                        
  351W        W17567  11.718   4.584   0.662                        
  352W        W17568   1.767   3.821   2.863                        
  353W        W17569   5.478   7.770   1.402                        
  354W        W17570   3.274   2.992   1.140                        
  355W        W17571  10.104   2.537  11.100                        
  356W        W17572   1.411   6.935  11.387                        
  357W        W17573   9.094  11.756   3.317                        
  358W        W17574   9.628   9.088   8.390                        
  359W        W17575  10.389   5.728   0.088                        
  360W        W17576   6.464   3.630   8.395                        
  361W        W17577   0.719   9.052   2.755                        
  362W        W17578  10.145   4.392   0.922                        
  363W        W17579  10.762   9.396   8.675                        
  364W        W17580   7.013   6.991  10.594                        
  365W        W17581  10.368   1.729   9.162                        
  366W        W17582   3.895   3.619   8.970                        
  367W        W17583  13.057   1.450  10.246                        
  368W        W17584   6.749   0.196   9.161                        
  369W        W17585   4.334   1.224   0.168                        
  370W        W17586  13.835   3.343   1.226                        
  371W        W17587  13.107  12.286   0.186                        
  372W        W17588   3.551   9.413   1.504                        
  373W        W17589   8.053  10.376   1.238                        
  374W        W17590   8.570   5.403   3.078                        
  375W        W17591  11.543   8.052   2.863                        
  376W        W17592  13.875   8.878   2.301                        
  377W        W17593   7.285   8.877   0.646                        
  378W        W17594   3.003   7.733  11.832                        
  379W        W17595   4.368   9.161   0.434                        
  380W        W17596   1.976   1.411   3.111                        
  381W        W17597   6.463   7.057  10.575                        
  382W        W17598   5.353  12.497   1.164                        
  383W        W17599  12.746  11.214   0.147                        
  384W        W17600   3.104   0.454   7.856                        
  385W        W17601   6.148  10.486  10.764                        
  386W        W17602   5.156   6.223   2.501                        
  387W        W17603  10.913   6.523   1.531                        
  388W        W17604  13.576   6.784   8.612                        
  389W        W17605  11.699  11.962  10.020                        
  390W        W17606  10.744   4.908   1.491                        
  391W        W17607   5.115  10.724   3.327                        
  392W        W17608  11.690   7.770   9.531                        
  393W        W17609   5.213   1.202  10.570                        
  394W        W17610   4.152   4.330   9.768                        
  395W        W17611  12.797   6.264   2.027                        
  396W        W17612  11.556   4.409   9.521                        
  397W        W17613   2.528  12.584   1.457                        
  398W        W17614   4.831  13.649   2.827                        
  399W        W17615  10.474  12.541  10.532                        
  400W        W17616   1.251   0.904  10.828                        
  401W        W17617   9.326   1.245  10.257                        
  402W        W17618  12.769   8.530   1.248                        
  403W        W17619   5.185  10.746  11.599                        
  404W        W17620  11.744  10.130   3.099                        
  405W        W17621  12.284   1.729   1.165                        
  406W        W17622   9.655   4.384  11.052                        
  407W        W17623   0.611   8.108   7.816                        
  408W        W17624   8.287   2.548   0.981                        
  409W        W17625   8.306   8.110  11.611                        
  410W        W17626   8.100   3.832   3.019                        
  411W        W17627  12.830  11.431  10.748                        
  412W        W17628   1.216   2.249   2.758                        
  413W        W17629   1.474  12.791   2.785                        
  414W        W17630   2.467   2.991   1.770                        
  415W        W17631   7.851  12.875   2.316                        
  416W        W17632  10.473   1.188   0.656                        
  417W        W17633   1.433   2.784   2.204                        
  418W        W17634   7.570   9.906   1.197                        
  419W        W17635   0.150   0.637   2.317                        
  420W        W17636   7.775  10.762   8.608                        
  421W        W17637  10.224   5.615   3.312                        
  422W        W17638   0.148   8.882   0.680                        
  423W        W17639  11.172  13.610   9.697                        
  424W        W17640  10.691   8.816  10.261                        
  425W        W17641  10.483   4.891   9.972                        
  426W        W17642   5.470  13.919   8.879                        
  427W        W17643  13.590   1.225   8.154                        
  428W        W17644   5.385   4.131   8.436                        
  429W        W17645   8.572   4.942   1.500                        
  430W        W17646   3.023   0.619  10.772                        
  431W        W17647   3.266   8.041   2.298                        
  432W        W17648   7.536  12.236   3.617                        
  433W        W17649   2.258   9.691   8.993                        
  434W        W17650   0.639   9.626   9.721                        
  435W        W17651   7.519   8.371   3.390                        
  436W        W17652   4.132  10.728   9.146                        
  437W        W17653  11.975  12.345   8.987                        
  438W        W17654   2.479   5.685  10.547                        
  439W        W17655  12.050   9.641   3.270                        
  440W        W17656   5.915  10.914   0.399                        
  441W        W17657   5.680   6.448   1.935                        
  442W        W17658   1.927   6.794   3.657                        
  443W        W17659   6.172  10.656   1.244                        
  444W        W17660   8.064  11.495   2.500                        
  445W        W17661  12.083  13.354   2.538                        
  446W        W17662   2.230   5.990  10.814                        
  447W        W17663  10.230   8.107   3.280                        
  448W        W17664   9.867  12.582   3.879                        
  449W        W17665  11.966   4.865   8.165                        
  450W        W17666  12.508   6.407   3.547                        
  451W        W17667   0.974  13.642  10.497                        
  452W        W17668   6.967   8.605   2.000                        
  453W        W17669   7.223   1.209   3.326                        
  454W        W17670   2.194  11.467   0.968                        
  455W        W17671   5.371   8.290   1.776                        
  456W        W17672   8.032  10.112   1.768                        
  457W        W17673   7.836   2.715   0.610                        
  458W        W17674  11.215   7.232  11.656                        
  459W        W17675  11.451  13.322   1.262                        
  460W        W17676   0.385   7.511   2.319                        
  461W        W17677   9.883  11.181   8.991                        
  462W        W17678   7.841   6.448   0.091                        
  463W        W17679   9.910   1.419  10.041                        
  464W        W17680  12.752   4.685   1.486                        
  465W        W17681  13.564  12.857  10.842                        
  466W        W17682   8.885  13.643   8.368                        
  467W        W17683   5.355   5.165   9.773                        
  468W        W17684   8.036   2.524   9.181                        
  469W        W17685   7.321  12.805   2.482                        
  470W        W17686  12.848  11.728   1.432                        
  471W        W17687   7.220  13.063   0.141                        
  472W        W17688   9.335   5.631   9.449                        
  473W        W17689   5.466   5.399   1.252                        
  474W        W17690   9.601  13.603   3.365                        
  475W        W17691   8.587   0.597  10.046                        
  476W        W17692   2.830  12.554   1.791                        
  477W        W17693   9.580   2.013   2.545                        
  478W        W17694   0.962  12.078  11.827                        
  479W        W17695  12.819   4.628   8.426                        
  480W        W17696   4.630   9.328  10.312                        
  481W        W17697   9.703   1.200   8.706                        
  482W        W17698  12.341   1.236   8.453                        
  483W        W17699  12.501   3.507   1.456                        
  484W        W17700  13.556  10.195   0.096                        
  485W        W17701   9.082  13.548   9.244                        
  486W        W17702   8.099   6.418   1.492                        
  487W        W17703  12.071   7.480   8.981                        
  488W        W17704   8.625  10.723  11.278                        
  489W        W17705   8.358  12.849   4.130                        
  490W        W17706  13.664  12.798   0.718                        
  491W        W17707   7.507  11.286   9.974                        
  492W        W17708   6.502   0.939   2.589                        
  493W        W17709   2.500  12.567   9.507                        
  494W        W17710  11.281   3.280   0.199                        
  495W        W17711   0.875   7.472  11.028                        
  496W        W17712   9.935   8.016  11.857                        
  497W        W17713  12.245   8.034   9.211                        
  498W        W17714   9.078   0.661   9.753                        
  499W        W17715   0.172   9.584   3.834                        
  500W        W17716  13.296  10.659   8.396                        
  501W        W17717   1.223  10.954   9.500                        
  502W        W17718  10.187  13.341   0.378                        
  503W        W17719   9.165   6.215   1.707                        
  504W        W17720  12.273  12.500   0.082                        
  505W        W17721  12.221  13.027   0.905                        
  506W        W17722   0.864  13.806   0.729                        
  507W        W17723   6.954   4.082   9.964                        
  508W        W17724  11.498   8.809   2.216                        
  509W        W17725   5.096   8.787   7.816                        
  510W        W17726  10.118   2.743  11.386                        
  511W        W17727   4.866   1.980   2.064                        
  512W        W17728   5.156   9.606  10.329                        
  513W        W17729   5.891   3.320   0.623                        
  514W        W17730   8.026  13.558   7.553                        
  515W        W17731   2.827  12.866   1.487                        
  516W        W17732   4.887  12.276   2.218                        
  517W        W17733   9.889   8.068  11.326                        
  518W        W17734  12.518   7.847   0.982                        
  519W        W17735  12.311   7.520   0.421                        
  520W        W17736   5.112   0.104   9.262                        
  521W        W17737   4.326  11.256  11.382                        
  522W        W17738  12.343   2.537   0.676                        
  523W        W17739  11.235   3.893   2.789                        
  524W        W17740   3.026   9.859   3.392                        
  525W        W17741   2.260  12.532  11.617                        
  526W        W17742   5.177   0.356  11.923                        
  527W        W17743   7.537   4.838  10.853                        
  528W        W17744   1.760   5.425   9.722                        
  529W        W17745  11.820   8.576   4.410                        
  530W        W17746   3.318   4.614   1.172                        
  531W        W17747   2.527   1.204   8.667                        
  532W        W17748   9.067   4.106   8.945                        
  533W        W17749   4.601  12.846   9.990                        
  534W        W17750   9.874  12.810   1.458                        
  535W        W17751  11.972   7.299   0.654                        
  536W        W17752   0.169   3.848   9.514                        
  537W        W17753   2.989   5.888   3.032                        
  538W        W17754   0.908   3.883   8.943                        
  539W        W17755   3.870  10.641   9.728                        
  540W        W17756   2.771   5.182   2.205                        
  541W        W17757  12.590   0.104  10.035                        
  542W        W17758  11.965   4.379  11.055                        
  543W        W17759   9.393  10.433   8.676                        
  544W        W17760  12.746   9.595   2.583                        
  545W        W17761   1.127   5.716  11.927                        
  546W        W17762   0.953  12.258  11.575                        
  547W        W17763   2.221  10.437   1.472                        
  548W        W17764   0.156   6.774   3.304                        
  549W        W17765  11.510   1.199   0.349                        
  550W        W17766   5.937   3.582  11.372                        
  551W        W17767  11.252  11.779   1.439                        
  552W        W17768   9.374  10.710   0.948                        
  553W        W17769  10.235   0.667  10.494                        
  554W        W17770   4.041   7.013   1.184                        
  555W        W17771  12.757  13.141   3.648                        
  556W        W17772   6.970   0.126   8.373                        
  557W        W17773   0.883   0.437  10.293                        
  558W        W17774   4.641   1.449   3.104                        
  559W        W17775   8.819   6.507   2.043                        
  560W        W17776   9.938   4.616   1.158                        
  561W        W17777  13.057   8.547  10.491                        
  562W        W17778  10.640   3.855   2.332                        
  563W        W17779  12.000   1.242  10.857                        
  564W        W17780   0.639   1.729   0.621                        
  565W        W17781   3.071   7.209   0.169                        
  566W        W17782   0.358  13.078   2.830                        
  567W        W17783  13.292   9.407   1.779                        
  568W        W17784  12.247   7.758   1.441                        
  569W        W17785   4.688   0.892   9.506                        
  570W        W17786   7.727   5.201  10.329                        
  571W        W17787  13.820  12.512   7.851                        
  572W        W17788  13.544  10.484   0.109                        
  573W        W17789   8.078  10.485  11.072                        
  574W        W17790  13.861  10.381   0.925                        
  575W        W17791  12.787   8.632   8.354                        
  576W        W17792   9.644  10.741   3.614                        
  577W        W17793  10.420   3.827   7.818                        
  578W        W17794   5.629   7.244  10.552                        
  579W        W17795  11.244   6.496  10.319                        
  580W        W17796   8.371   6.790   0.903                        
  581W        W17797  10.117  13.604   1.169                        
  582W        W17798   4.603   8.622   8.963                        
  583W        W17799   7.773  12.576  10.775                        
  584W        W17800  11.437   5.214   1.698                        
  585W        W17801   3.892   1.921   3.580                        
  586W        W17802  10.904  12.503   0.689                        
  587W        W17803   8.546   5.931  10.059                        
  588W        W17804  10.211   5.909   8.616                        
  589W        W17805   0.408   3.367  11.366                        
  590W        W17806   5.987   9.083   9.258                        
  591W        W17807   7.003  10.694   0.340                        
  592W        W17808   6.181   8.076   9.785                        
  593W        W17809  13.851  13.322   8.715                        
  594W        W17810  10.428   1.730  11.829                        
  595W        W17811  11.215   6.674   9.788                        
  596W        W17812   4.034   2.522   2.758                        
  597W        W17813   0.140   4.137   3.564                        
  598W        W17814  11.751  12.052  10.319                        
  599W        W17815   9.336  12.330   9.743                        
  600W        W17816   6.938   6.724  11.041                        
  601W        W17817   2.044   0.347   1.411                        
  602W        W17818   3.273   6.158  11.803                        
  603W        W17819   7.515  12.594   8.347                        
  604W        W17820   0.084   9.357   8.898                        
  605W        W17821  13.341   6.512   2.769                        
  606W        W17822   7.021  10.129   4.077                        
  607W        W17823  11.723  13.373   1.221                        
  608W        W17824   1.399   2.222   3.883                        
  609W        W17825   5.167  10.495  10.793                        
  610W        W17826   6.784  10.989  11.367                        
  611W        W17827   5.387  11.508  11.898                        
  612W        W17828  10.666   5.172   1.985                        
  613W        W17829   9.086   3.564  11.919                        
  614W        W17830  12.594   9.392   3.567                        
  615W        W17831  13.295   3.071   2.859                        
  616W        W17832   7.467   4.122  10.321                        
  617W        W17833   9.638   2.732  10.050                        
  618W        W17834   7.999   6.974   9.135                        
  619W        W17835   4.136  12.068   2.504                        
  620W        W17836   0.634   6.742  11.614                        
  621W        W17837   1.492   2.491   1.952                        
  622W        W17838  10.658   0.190  10.776                        
  623W        W17839  12.586   6.452   0.157                        
  624W        W17840   1.224  13.291   0.996                        
  625W        W17841   4.672   2.772   8.674                        
  626W        W17842  10.657   0.918  11.093                        
  627W        W17843   9.646   8.072  11.113                        
  628W        W17844  10.997   4.035   0.163                        
  629W        W17845   3.540  13.053   1.706                        
  630W        W17846   6.501  13.328   0.900                        
  631W        W17847  11.715  11.010   0.439                        
  632W        W17848   0.100   0.155   0.656                        
  633W        W17849   2.486  13.290   7.883                        
  634W        W17850   5.932   3.539  11.849                        
  635W        W17851  12.838  12.870   9.480                        
  636W        W17852   4.944   5.362   2.776                        
  637W        W17853  13.312   7.309   3.046                        
  638W        W17854   7.833   8.355  11.272                        
  639W        W17855   4.411   2.475   2.486                        
  640W        W17856   9.370  12.770   8.612                        
  641W        W17857   1.689   7.236   3.273                        
  642W        W17858   0.904  12.050   1.746                        
  643W        W17859   6.483   2.531   8.990                        
  644W        W17860   8.050  10.690   1.487                        
  645W        W17861  13.282   4.822   1.757                        
  646W        W17862  11.445   3.511   8.967                        
  647W        W17863   1.748   6.955   0.140                        
  648W        W17864   9.324   2.012   8.660                        
  649W        W17865  11.009  13.403   8.398                        
  650W        W17866   0.146   9.702   4.135                        
  651W        W17867   7.592   0.965   9.201                        
  652W        W17868   4.342   6.491  11.032                        
  653W        W17869  10.108   4.864  10.332                        
  654W        W17870   0.451   9.112   8.956                        
  655W        W17871   6.006   5.640  10.562                        
  656W        W17872   8.853   8.903   3.070                        
  657W        W17873   6.157   5.096   2.021                        
  658W        W17874   4.929  10.188  10.312                        
  659W        W17875  13.919   7.858   1.442                        
  660W        W17876   2.761   3.078   0.450                        
  661W        W17877   1.731   8.037   3.620                        
  662W        W17878   3.766   4.882   0.621                        
  663W        W17879   4.042   7.465  11.099                        
  664W        W17880   7.262   6.762  11.924                        
  665W        W17881   5.191   1.767  10.323                        
  666W        W17882   5.652   8.866  11.038                        
  667W        W17883   8.828   6.459  10.547                        
  668W        W17884   7.262   7.585   8.380                        
  669W        W17885   4.117   3.271   9.940                        
  670W        W17886  11.779   8.112   8.878                        
  671W        W17887   0.136   7.784  11.813                        
  672W        W17888   0.724   2.013   8.959                        
  673W        W17889   1.142   4.609   0.701                        
  674W        W17890   2.472   4.142   2.248                        
  675W        W17891   7.779  13.563   0.130                        
  676W        W17892   4.328  13.651  11.288                        
  677W        W17893  10.718  10.201  11.628                        
  678W        W17894   4.643  13.049   8.903                        
  679W        W17895   6.243  12.550   3.090                        
  680W        W17896   8.587   5.965  10.237                        
  681W        W17897   3.785   9.433  10.854                        
  682W        W17898  11.749   5.140  11.319                        
  683W        W17899   7.802   4.921   9.526                        
  684W        W17900   9.076   0.689  11.299                        
  685W        W17901   4.831   3.854   0.450                        
  686W        W17902   0.117   2.811  10.236                        
  687W        W17903  12.069   6.790   2.015                        
  688W        W17904   1.681   7.848  10.864                        
  689W        W17905   0.456   4.327   8.901                        
  690W        W17906   5.934   9.110   1.745                        
  691W        W17907  13.891   5.999  10.830                        
  692W        W17908   7.266   3.526   2.290                        
  693W        W17909   6.987   7.561   2.781                        
  694W        W17910  10.644   2.451   3.832                        
  695W        W17911   1.396  10.198   8.664                        
  696W        W17912  13.585   2.267   3.575                        
  697W        W17913   7.266   4.642   2.033                        
  698W        W17914  11.716   7.781  11.279                        
  699W        W17915  12.031  11.006   3.279                        
  700W        W17916   7.589   4.582   2.479                        
  701W        W17917   8.340   5.182   0.376                        
  702W        W17918   6.716  11.536   1.936                        
  703W        W17919  13.094  11.227   3.576                        
  704W        W17920  12.780   7.503   0.414                        
  705W        W17921   7.469   6.792   2.742                        
  706W        W17922   7.818   9.622  10.787                        
  707W        W17923   9.622  13.318   1.680                        
  708W        W17924   4.038   9.970  10.535                        
  709W        W17925  13.351   6.223   1.691                        
  710W        W17926   3.273   0.949  11.866                        
  711W        W17927   8.348   3.630   3.131                        
  712W        W17928   9.598   9.136   0.690                        
  713W        W17929   8.799   8.356   0.184                        
  714W        W17930   9.879   0.650  11.639                        
  715W        W17931   0.629  13.614   9.721                        
  716W        W17932   1.182  13.339   1.982                        
  717W        W17933  13.372  11.219   3.291                        
  718W        W17934   4.640  10.958   0.602                        
  719W        W17935  13.928   7.008   2.488                        
  720W        W17936   2.001   5.140   3.048                        
  721W        W17937   5.154   4.923  10.567                        
  722W        W17938  12.347   8.527   4.121                        
  723W        W17939   8.016   9.694   3.607                        
  724W        W17940  12.804   5.153   8.453                        
  725W        W17941  11.804  13.898  10.008                        
  726W        W17942  13.030  11.699   1.946                        
  727W        W17943   9.429   7.575   0.114                        
  728W        W17944  12.786   9.954  10.547                        
  729W        W17945   9.375   8.606   2.329                        
  730W        W17946   8.047  13.921   0.453                        
  731W        W17947   3.592   7.199   8.652                        
  732W        W17948   4.909   3.589   3.885                        
  733W        W17949   7.239  10.212  10.256                        
  734W        W17950   0.122   5.728   0.405                        
  735W        W17951   9.675   9.317   2.547                        
  736W        W17952   5.207   1.965  11.874                        
  737W        W17953   3.539   4.133   3.049                        
  738W        W17954   5.922   8.856   3.374                        
  739W        W17955   8.590   6.708   3.130                        
  740W        W17956   0.929   1.243   9.690                        
  741W        W17957   4.883   5.730   2.866                        
  742W        W17958   7.262  10.137  10.782                        
  743W        W17959  11.476   9.844   2.053                        
  744W        W17960  11.983   0.186   4.158                        
  745W        W17961   5.687   4.861   9.234                        
  746W        W17962   5.205   5.943   8.982                        
  747W        W17963   0.142  12.283   9.787                        
  748W        W17964   9.967   3.308  10.526                        
  749W        W17965  10.481   5.179   8.997                        
  750W        W17966  10.223   3.800   8.889                        
  751W        W17967   9.683   8.858  11.094                        
  752W        W17968  13.309  13.310   9.258                        
  753W        W17969  12.586   8.640  10.741                        
  754W        W17970  13.555   2.823   9.247                        
  755W        W17971   3.622   8.541   2.036                        
  756W        W17972  13.655   4.299   9.240                        
  757W        W17973  13.875  10.901  11.801                        
  758W        W17974   0.347   9.925   0.999                        
  759W        W17975   6.410   7.232   1.784                        
  760W        W17976  10.645   9.661   0.644                        
  761W        W17977   4.407  10.431  11.892                        
  762W        W17978  13.906   8.898   8.906                        
  763W        W17979   2.529   1.675   0.185                        
  764W        W17980   9.376   3.277   2.285                        
  765W        W17981  13.568  10.670   0.400                        
  766W        W17982   2.458  10.944   8.908                        
  767W        W17983   9.143   6.784   1.519                        
  768W        W17984   7.830  13.090   8.637                        
  769W        W17985   1.491   2.491   2.245                        
  770W        W17986  12.758   8.523   2.010                        
  771W        W17987  12.593   8.361  10.204                        
  772W        W17988   5.200   8.290   9.529                        
  773W        W17989  13.598   0.428   2.526                        
  774W        W17990  13.278   1.774   0.705                        
  775W        W17991   8.828   5.125   3.002                        
  776W        W17992   2.307  11.251   0.911                        
  777W        W17993   6.491   9.626   9.449                        
  778W        W17994   7.199   2.186   3.563                        
  779W        W17995   5.671   5.931   7.902                        
  780W        W17996  13.083  12.274  10.795                        
  781W        W17997   3.095  13.078   1.144                        
  782W        W17998  11.444   3.019   2.251                        
  783W        W17999  10.668   8.813   8.905                        
  784W        W18000   8.385   3.036   3.643                        
  785W        W18001   4.307   0.433   2.498                        
  786W        W18002   6.700  13.370  11.021                        
  787W        W18003   4.343  12.751   4.086                        
  788W        W18004   0.094  13.079  11.867                        
  789W        W18005   1.665   2.777   2.278                        
  790W        W18006   3.858   0.901   0.604                        
  791W        W18007   9.149  12.789   4.434                        
  792W        W18008   9.860   3.895  11.098                        
  793W        W18009   7.476  11.758  11.895                        
  794W        W18010  11.820   9.893   8.358                        
  795W        W18011   3.014  11.544  10.311                        
  796W        W18012  13.294   3.625   0.940                        
  797W        W18013  11.002   2.219   2.242                        
  798W        W18014   5.647   0.370   9.142                        
  799W        W18015   7.811   7.494   8.694                        
  800W        W18016   6.433   3.601  11.845                        
  801W        W18017  12.051   1.934   4.152                        
  802W        W18018  13.658  10.471   3.626                        
  803W        W18019  12.016   5.880  11.371                        
  804W        W18020  12.039  12.827   1.532                        
  805W        W18021  13.025   6.508  10.470                        
  806W        W18022   4.579  12.035   1.709                        
  807W        W18023  12.328   8.634   1.472                        
  808W        W18024   1.979   3.624   3.642                        
  809W        W18025  13.358   2.820  11.904                        
  810W        W18026   0.088   0.392   1.135                        
  811W        W18027  11.220   9.320   1.146                        
  812W        W18028   0.103   0.884   0.733                        
  813W        W18029   9.409   2.024  11.817                        
  814W        W18030   7.261   0.684   0.643                        
  815W        W18031   3.527   6.420   9.441                        
  816W        W18032   1.151   9.103   2.767                        
  817W        W18033   0.939   9.370   3.044                        
  818W        W18034   9.169   5.412  10.812                        
  819W        W18035   4.067  10.167   2.777                        
  820W        W18036  12.081   0.165   2.521                        
  821W        W18037   0.928   8.887   3.036                        
  822W        W18038   8.650   0.889   1.426                        
  823W        W18039  11.237   3.620   2.599                        
  824W        W18040   1.671   4.897  10.467                        
  825W        W18041   9.901   3.325   1.938                        
  826W        W18042   8.352   3.541   3.328                        
  827W        W18043   1.197   5.727  10.031                        
  828W        W18044  13.646   5.391   0.430                        
  829W        W18045  10.966   4.827   7.893                        
  830W        W18046   5.416   6.475   9.786                        
  831W        W18047   4.046   2.822   3.635                        
  832W        W18048  11.448   2.245   1.995                        
  833W        W18049   3.543   2.245   3.364                        
  834W        W18050   8.279   3.064   3.327                        
  835W        W18051   2.833   9.849  10.056                        
  836W        W18052   2.727   2.248   9.729                        
  837W        W18053  11.793   8.328  11.595                        
  838W        W18054   2.278  13.105  10.018                        
  839W        W18055   7.751   0.429   1.449                        
  840W        W18056  13.019   4.380   0.895                        
  841W        W18057   8.843   8.031   0.450                        
  842W        W18058   8.820   1.702   1.159                        
  843W        W18059   6.150  13.037   9.761                        
  844W        W18060   8.858   2.574   0.343                        
  845W        W18061   2.987   6.148   0.185                        
  846W        W18062   7.777   1.738   4.353                        
  847W        W18063   9.911   8.375   2.782                        
  848W        W18064   3.298  10.422   9.445                        
  849W        W18065   3.834   8.578   8.386                        
  850W        W18066   4.085   4.142   2.766                        
  851W        W18067   7.497   2.233   0.396                        
  852W        W18068   5.968   5.189   2.549                        
  853W        W18069   6.798   0.707  10.753                        
  854W        W18070   7.728  11.163   9.487                        
  855W        W18071   8.791  11.274   1.678                        
  856W        W18072  13.059   1.942   3.391                        
  857W        W18073   7.527   9.696   3.354                        
  858W        W18074   0.911   1.731   2.565                        
  859W        W18075   2.737   8.561   9.147                        
  860W        W18076   1.442   7.274  10.250                        
  861W        W18077   5.350  13.371   9.776                        
  862W        W18078   7.470   7.294   9.525                        
  863W        W18079  12.281  12.225  10.810                        
  864W        W18080   5.658   7.583  11.580                        
  865W        W18081  12.047  11.816   3.089                        
  866W        W18082   9.684   8.881  11.911                        
  867W        W18083  11.257   1.728   1.195                        
  868W        W18084  13.279   2.822   2.245                        
  869W        W18085   7.568   4.048   0.188                        
  870W        W18086   7.014   0.636   1.169                        
  871W        W18087   4.367   3.249  10.510                        
  872W        W18088  12.019   9.914   2.245                        
  873W        W18089   5.692  12.555  10.576                        
  874W        W18090  10.907   8.914   2.574                        
  875W        W18091   9.685   7.036   9.772                        
  876W        W18092   7.731   2.497   3.362                        
  877W        W18093  10.176   4.659   8.677                        
  878W        W18094  10.166   9.361   0.731                        
  879W        W18095   9.844   2.501   1.972                        
  880W        W18096   2.266  12.485   0.455                        
  881W        W18097  10.107   7.258   9.469                        
  882W        W18098  10.403   0.862   1.961                        
  883W        W18099   4.404   2.247  10.829                        
  884W        W18100   7.330   2.574   9.148                        
  885W        W18101   5.391   4.301  10.331                        
  886W        W18102   6.984   4.145   9.778                        
  887W        W18103  10.118   1.415  11.551                        
  888W        W18104   3.354   2.739   1.753                        
  889W        W18105  11.982   8.268   8.138                        
  890W        W18106   8.021  11.783   3.340                        
  891W        W18107   0.632  11.461   0.605                        
  892W        W18108   2.820   0.910   1.436                        
  893W        W18109   4.566   8.871   8.442                        
  894W        W18110  12.596   1.142   2.511                        
  895W        W18111  12.498   0.918  11.320                        
  896W        W18112  12.253  13.392   2.295                        
  897W        W18113   7.843  11.711   2.863                        
  898W        W18114  12.850  10.452  11.396                        
  899W        W18115  13.401  13.126   2.821                        
  900W        W18116   8.051   8.095   9.725                        
  901W        W18117   0.947   5.964   7.880                        
  902W        W18118   7.247   1.395   8.718                        
  903W        W18119  10.636  13.388  10.549                        
  904W        W18120   5.378  10.221   9.216                        
  905W        W18121   6.423   0.615   9.488                        
  906W        W18122   1.931   9.366  10.307                        
  907W        W18123  12.226   8.553  11.384                        
  908W        W18124   2.762  10.917   0.084                        
  909W        W18125  12.329   9.128   3.389                        
  910W        W18126   5.935   8.825  10.040                        
  911W        W18127   9.624  10.968   2.839                        
  912W        W18128   4.388   0.959   3.042                        
  913W        W18129   9.626   6.492   8.705                        
  914W        W18130   2.806   9.410   9.939                        
  915W        W18131   8.829  13.619   2.529                        
  916W        W18132   0.067   5.882   3.600                        
  917W        W18133   6.954   9.159   8.456                        
  918W        W18134   9.847   9.931   9.951                        
  919W        W18135   1.999  12.300   1.677                        
  920W        W18136   7.470   8.028   9.264                        
  921W        W18137   2.284   6.791   3.628                        
  922W        W18138   4.591   2.232  10.835                        
  923W        W18139  11.288   0.452  11.313                        
  924W        W18140   7.251  10.962   0.411                        
  925W        W18141   0.985  10.398  11.847                        
  926W        W18142   5.675   0.119  11.901                        
  927W        W18143   8.264   9.877   3.028                        
  928W        W18144   6.768   0.131   9.955                        
  929W        W18145   5.902   6.717   2.495                        
  930W        W18146   7.494   3.048   3.055                        
  931W        W18147   4.055  13.915   9.976                        
  932W        W18148  10.448   0.926   0.375                        
  933W        W18149  10.204   7.020   3.102                        
  934W        W18150   8.047  13.842  11.835                        
  935W        W18151  13.543   9.176  11.560                        
  936W        W18152   8.898   9.969  10.596                        
  937W        W18153   0.969   7.514   3.040                        
  938W        W18154   1.456   0.345   9.169                        
  939W        W18155   1.391   5.215  10.842                        
  940W        W18156   1.484   3.809   0.967                        
  941W        W18157   5.942  10.478  11.346                        
  942W        W18158  12.789   1.437  10.756                        
  943W        W18159  11.514   9.080   3.071                        
  944W        W18160   4.608   7.330   2.331                        
  945W        W18161   4.092   0.946   1.179                        
  946W        W18162   1.720   6.475  11.046                        
  947W        W18163   7.274   5.177   0.355                        
  948W        W18164   2.979  13.886   9.158                        
  949W        W18165  13.924   0.379   0.672                        
  950W        W18166   2.227  13.639   3.028                        
  951W        W18167   9.133   3.825  11.316                        
  952W        W18168   9.138   9.939   8.418                        
  953W        W18169   0.361   2.224   2.040                        
  954W        W18170   4.321   7.203   3.052                        
  955W        W18171   0.178   0.336   4.102                        
  956W        W18172   7.497   3.865   8.948                        
  957W        W18173   4.313  13.828   0.189                        
  958W        W18174   2.539   8.555  11.318                        
  959W        W18175   1.424   7.484  10.562                        
  960W        W18176   1.249   5.182   1.246                        
  961W        W18177  11.709   8.841   9.175                        
  962W        W18178   2.813  13.553   3.269                        
  963W        W18179   7.228   3.243   9.997                        
  964W        W18180   2.750   4.875   8.656                        
  965W        W18181   8.844   9.861   2.209                        
  966W        W18182   9.058   9.382   1.424                        
  967W        W18183  13.556   1.744   8.361                        
  968W        W18184   8.090  13.112   4.462                        
  969W        W18185  11.017  11.509   0.359                        
  970W        W18186   9.132   5.630   1.712                        
  971W        W18187  13.854  10.376   8.386                        
  972W        W18188   0.718   2.983   0.888                        
  973W        W18189   0.162   5.916   8.358                        
  974W        W18190   6.407   2.729  10.763                        
  975W        W18191   0.639  11.982   1.148                        
  976W        W18192   2.739  11.229  11.883                        
  977W        W18193   7.199   0.697  11.869                        
  978W        W18194  10.755   5.988   9.182                        
  979W        W18195   1.234   3.247  10.224                        
  980W        W18196  13.538   9.434   4.393                        
  981W        W18197  12.077   8.567   1.974                        
  982W        W18198  11.022  12.039   1.223                        
  983W        W18199   2.047   0.940   1.231                        
  984W        W18200   1.188  12.800   1.418                        
  985W        W18201  12.840   2.289   1.745                        
  986W        W18202   8.790   6.247   2.765                        
  987W        W18203  12.221   9.323  11.649                        
  988W        W18204  12.777   0.144   1.437                        
  989W        W18205   6.250   7.783   2.551                        
  990W        W18206  12.804  12.306   0.192                        
  991W        W18207   1.452   7.799   0.417                        
  992W        W18208   7.055   3.583  11.383                        
  993W        W18209   7.518   0.664  10.846                        
  994W        W18210   8.285   8.116   0.403                        
  995W        W18211   6.492   4.343   0.990                        
  996W        W18212   0.148  13.644   7.880                        
  997W        W18213   4.134   7.561   0.602                        
  998W        W18214   7.507   6.973   1.503                        
  999W        W18215   7.556   3.561   9.707                        
 1000W        W18216  10.758   8.543  10.815                        
 1001W        W18217   9.676   5.179   1.985                        
 1002W        W18218   9.584   9.696   0.122                        
 1003W        W18219   7.056   0.646   3.331                        
 1004W        W18220   7.248   8.585   7.613                        
 1005W        W18221   5.641  13.131  11.560                        
 1006W        W18222   7.479   3.317  11.115                        
 1007W        W18223   1.198   4.032  11.312                        
 1008W        W18224   9.576   8.036   0.123                        
 1009W        W18225   5.106   8.596   3.917                        
 1010W        W18226  13.575   7.285   2.831                        
 1011W        W18227  13.543   1.720  10.840                        
 1012W        W18228   1.934   2.037   3.335                        
 1013W        W18229   3.291   1.130   1.967                        
 1014W        W18230   9.154   2.025   1.745                        
 1015W        W18231  10.733   1.929   3.873                        
 1016W        W18232  11.442   1.253   8.350                        
 1017W        W18233  10.474   4.823   0.420                        
 1018W        W18234   4.918   1.488  11.546                        
 1019W        W18235  11.553   6.795   1.191                        
 1020W        W18236   5.655   7.792   0.411                        
 1021W        W18237  11.514   6.260  11.923                        
 1022W        W18238  12.842  13.885   2.013                        
 1023W        W18239   7.843  13.066   3.914                        
 1024W        W18240  10.494   3.023   8.360                        
 1025W        W18241   1.240  10.429  10.798                        
 1026W        W18242   8.047   3.601   0.870                        
 1027W        W18243   2.792   6.697  11.126                        
 1028W        W18244   9.351   2.515   0.376                        
 1029W        W18245  13.900   7.571   1.221                        
 1030W        W18246   1.389  11.710  11.006                        
 1031W        W18247  11.533   6.534   0.656                        
 1032W        W18248   1.947   3.342   0.874                        
 1033W        W18249   4.149  10.969  10.319                        
 1034W        W18250   2.575  12.771   9.471                        
 1035W        W18251   7.843   4.374   0.405                        
 1036W        W18252   3.246   9.340   0.904                        
 1037W        W18253   4.849   1.774  10.292                        
 1038W        W18254   0.432  11.282   1.241                        
 1039W        W18255   1.423   4.369  10.572                        
 1040W        W18256   4.348  10.724   9.716                        
 1041W        W18257   8.840   2.034   1.765                        
 1042W        W18258  13.884   2.037  11.921                        
 1043W        W18259   1.395   7.292  11.548                        
 1044W        W18260   2.481   1.165   1.702                        
 1045W        W18261   8.588  12.554   2.035                        
 1046W        W18262   2.812   1.479   0.375                        
 1047W        W18263   3.581   4.912  11.331                        
 1048W        W18264   2.482   6.736   3.023                        
 1049W        W18265  13.064   9.593  10.472                        
 1050W        W18266   8.597  11.469  10.213                        
 1051W        W18267   0.445  13.131   7.600                        
 1052W        W18268   8.084   3.000  11.072                        
 1053W        W18269   2.306   9.970   8.082                        
 1054W        W18270   6.526   6.151   1.511                        
 1055W        W18271   7.749  13.097   9.701                        
 1056W        W18272   5.432   2.504   2.272                        
 1057W        W18273  10.185   2.714  11.609                        
 1058W        W18274  13.354  12.818   4.155                        
 1059W        W18275   1.975   4.092   2.527                        
 1060W        W18276  13.840   8.004   8.603                        
 1061W        W18277  12.792  11.010  11.014                        
 1062W        W18278   9.076   8.629  10.799                        
 1063W        W18279   2.012   4.035   3.344                        
 1064W        W18280   2.294   1.510  11.548                        
 1065W        W18281   7.051  11.971  10.790                        
 1066W        W18282  10.119   6.499   2.488                        
 1067W        W18283   6.188   2.198   1.936                        
 1068W        W18284  13.071   4.577   9.744                        
 1069W        W18285   5.641   5.733   2.206                        
 1070W        W18286   3.049   2.548   2.300                        
 1071W        W18287   0.371  10.132   1.193                        
 1072W        W18288  10.158   4.142  11.378                        
 1073W        W18289  13.650   7.550   9.152                        
 1074W        W18290  13.859   5.113   3.029                        
 1075W        W18291   1.916   0.659   9.502                        
 1076W        W18292   4.070   3.820   3.622                        
 1077W        W18293   1.974   1.155   7.653                        
 1078W        W18294   6.711   8.646   2.496                        
 1079W        W18295   7.246  11.522   9.487                        
 1080W        W18296  10.950   0.341   1.985                        
 1081W        W18297   4.668  11.743   1.427                        
 1082W        W18298  13.383  11.217  11.886                        
 1083W        W18299  13.010   9.439   9.684                        
 1084W        W18300   1.150   1.220   0.925                        
 1085W        W18301   6.786   6.776   8.356                        
 1086W        W18302  12.308   5.642  11.397                        
 1087W        W18303   0.185   9.340   2.038                        
 1088W        W18304   5.086  13.325   3.563                        
 1089W        W18305   3.769   6.008   3.576                        
 1090W        W18306   4.029   7.788   0.655                        
 1091W        W18307   0.438   6.508   1.204                        
 1092W        W18308   8.645   2.717  11.566                        
 1093W        W18309   2.495   4.391  10.847                        
 1094W        W18310   9.090   7.249   1.432                        
 1095W        W18311  10.394   7.994   9.410                        
 1096W        W18312   2.212   2.455   8.607                        
 1097W        W18313  13.836   0.860  10.494                        
 1098W        W18314   1.996   7.463   1.708                        
 1099W        W18315  10.746   8.367   2.494                        
 1100W        W18316   4.946   8.015   3.586                        
 1101W        W18317  13.035   3.593  11.070                        
 1102W        W18318   9.601   2.546  10.214                        
 1103W        W18319  10.122   0.149  11.586                        
 1104W        W18320   8.880  13.342  10.013                        
 1105W        W18321   6.509   3.824   1.707                        
 1106W        W18322   9.138  10.753   1.494                        
 1107W        W18323  10.981   8.649   9.963                        
 1108W        W18324  12.027   5.135   9.715                        
 1109W        W18325   7.062   8.276   1.523                        
 1110W        W18326   3.873  13.607   3.641                        
 1111W        W18327   3.539  13.817   9.776                        
 1112W        W18328   2.239  12.488   2.018                        
 1113W        W18329  12.603   7.828  11.897                        
 1114W        W18330   4.665   8.551  10.316                        
 1115W        W18331   8.792   7.852   0.709                        
 1116W        W18332   3.628   5.155   1.957                        
 1117W        W18333  13.129  10.446   0.406                        
 1118W        W18334   4.827   6.452   0.450                        
 1119W        W18335   1.937   7.064   2.510                        
 1120W        W18336   5.724   7.327  10.850                        
 1121W        W18337   5.676   6.218   3.279                        
 1122W        W18338  12.269   7.319  10.815                        
 1123W        W18339   6.535   5.995   9.237                        
 1124W        W18340  13.896  13.586  11.061                        
 1125W        W18341   8.365   3.568  10.530                        
 1126W        W18342   1.782  12.492   8.649                        
 1127W        W18343   3.096  11.737   9.432                        
 1128W        W18344   1.977   1.418  10.805                        
 1129W        W18345   2.264   6.008   2.519                        
 1130W        W18346  13.824  12.845   1.190                        
 1131W        W18347  11.003   0.881   0.400                        
 1132W        W18348   0.067   0.651   8.643                        
 1133W        W18349  13.625   3.358   8.928                        
 1134W        W18350   0.879  12.800   2.295                        
 1135W        W18351  11.202  10.688   3.346                        
 1136W        W18352   5.429  10.399  10.788                        
 1137W        W18353  13.929   1.667  11.835                        
 1138W        W18354  12.252   8.824   8.354                        
 1139W        W18355   1.715  13.392   2.577                        
 1140W        W18356   3.868   7.293   0.192                        
 1141W        W18357   4.115  11.523  10.821                        
 1142W        W18358  11.466  11.796   1.492                        
 1143W        W18359  12.869   8.643   0.910                        
 1144W        W18360   2.272  11.714   1.265                        
 1145W        W18361   1.173  12.245   1.453                        
 1146W        W18362   1.445   2.451   0.650                        
 1147W        W18363   8.604   7.298  11.642                        
 1148W        W18364   3.541   6.529   3.054                        
 1149W        W18365   0.950   3.865   9.720                        
 1150W        W18366   2.035  13.352   3.283                        
 1151W        W18367  12.231  11.556  10.810                        
 1152W        W18368   4.590   7.031   2.278                        
 1153W        W18369  12.589   3.625   0.928                        
 1154W        W18370  12.863   4.599   7.917                        
 1155W        W18371   0.183   7.726   3.280                        
 1156W        W18372   0.365  10.682   0.456                        
 1157W        W18373   4.670   1.458  10.018                        
 1158W        W18374   8.855  12.345   3.398                        
 1159W        W18375   8.260   1.185   9.175                        
 1160W        W18376   3.874   1.208   0.340                        
 1161W        W18377  11.000   8.354   9.476                        
 1162W        W18378  12.330   5.172  10.305                        
 1163W        W18379   4.631   6.502   3.299                        
 1164W        W18380  13.137   2.571   2.016                        
 1165W        W18381  11.256   9.593  10.063                        
 1166W        W18382   2.517   3.026   3.013                        
 1167W        W18383   5.185  10.685   0.148                        
 1168W        W18384  12.851   3.571   3.625                        
 1169W        W18385  11.716   3.882   0.932                        
 1170W        W18386  13.064   2.195  10.326                        
 1171W        W18387   8.086   3.550   9.422                        
 1172W        W18388  13.640   3.790  11.026                        
 1173W        W18389   5.447   0.152  10.318                        
 1174W        W18390   8.275   4.394   1.995                        
 1175W        W18391   5.201   1.959   1.265                        
 1176W        W18392   6.260   9.328  11.833                        
 1177W        W18393  10.694  13.923   2.028                        
 1178W        W18394   5.639  13.399   9.730                        
 1179W        W18395   7.289   3.546  10.256                        
 1180W        W18396   4.618  11.204   9.956                        
 1181W        W18397  13.130   3.590   3.330                        
 1182W        W18398   2.499   7.847   8.345                        
 1183W        W18399   2.766  13.812   8.350                        
 1184W        W18400  13.304   4.642   2.329                        
 1185W        W18401   2.763   5.391  10.239                        
 1186W        W18402   6.427   5.907   4.404                        
 1187W        W18403   2.183   0.703   2.247                        
 1188W        W18404   5.674  11.428  10.243                        
 1189W        W18405  11.248   1.691   1.941                        
 1190W        W18406   2.821  10.391   8.650                        
 1191W        W18407  11.236  10.975   9.727                        
 1192W        W18408  11.955   5.431   9.752                        
 1193W        W18409  10.147   9.094   1.162                        
 1194W        W18410  11.771   3.865  10.297                        
 1195W        W18411   3.281   7.514  11.303                        
 1196W        W18412  12.585   6.980  10.287                        
 1197W        W18413  10.902   4.091   8.415                        
 1198W        W18414   7.825   9.164   8.916                        
 1199W        W18415   9.844   1.716   1.159                        
 1200W        W18416  11.449  13.050  10.797                        
 1201W        W18417   8.862   1.413   9.148                        
 1202W        W18418  12.228   0.878   7.644                        
 1203W        W18419   6.246   9.362  10.801                        
 1204W        W18420   5.362   5.678   8.138                        
 1205W        W18421  13.541  12.254  11.843                        
 1206W        W18422   2.564  13.299   2.554                        
 1207W        W18423   6.271   3.297   2.810                        
 1208W        W18424   0.435   9.842   9.237                        
 1209W        W18425   2.298   0.662   3.542                        
 1210W        W18426   5.694  12.312   9.153                        
 1211W        W18427   6.408   3.618  10.015                        
 1212W        W18428   9.064  10.454   0.605                        
 1213W        W18429  11.211   7.202   7.907                        
 1214W        W18430   0.953   6.972   8.439                        
 1215W        W18431   5.152   6.460   1.255                        
 1216W        W18432   1.658  10.149   1.686                        
 1217W        W18433   6.463  12.560   1.697                        
 1218W        W18434   7.537   4.420  10.517                        
 1219W        W18435   9.399   4.343   0.353                        
 1220W        W18436   2.804   2.007  10.778                        
 1221W        W18437   3.285   0.647   1.181                        
 1222W        W18438   2.808   4.143  10.567                        
 1223W        W18439   6.265   0.129  10.317                        
 1224W        W18440   9.080  11.954   0.879                        
 1225W        W18441  11.973   2.713  11.041                        
 1226W        W18442  12.595   5.708   7.906                        
 1227W        W18443  11.970   7.210   1.240                        
 1228W        W18444   3.598   0.676  11.043                        
 1229W        W18445   5.159  13.854   9.773                        
 1230W        W18446   5.179  11.971  10.487                        
 1231W        W18447   0.395  10.668  10.004                        
 1232W        W18448   6.971   1.951   9.977                        
 1233W        W18449   8.868  11.704   1.189                        
 1234W        W18450   0.959   8.548   9.739                        
 1235W        W18451  13.574   2.743   2.808                        
 1236W        W18452   5.739   1.971   3.075                        
 1237W        W18453   1.477  13.343   3.665                        
 1238W        W18454  10.671   0.364   2.743                        
 1239W        W18455  11.800   7.849  10.248                        
 1240W        W18456  12.533   3.832  10.574                        
 1241W        W18457   4.653   5.704   3.898                        
 1242W        W18458   0.976   0.927  10.753                        
 1243W        W18459  13.871   6.783  11.338                        
 1244W        W18460   5.657   0.886   3.278                        
 1245W        W18461   1.967   8.585   0.622                        
 1246W        W18462  11.551   3.337   9.510                        
 1247W        W18463   7.014   6.529   8.448                        
 1248W        W18464   3.528  12.006  11.286                        
 1249W        W18465   7.474  12.519  11.875                        
 1250W        W18466   0.929  12.296  10.548                        
 1251W        W18467   1.137  10.370   9.692                        
 1252W        W18468   0.967   8.001  11.354                        
 1253W        W18469  10.385   7.027   0.704                        
 1254W        W18470   5.660  12.253   3.022                        
 1255W        W18471   1.189   5.201   0.161                        
 1256W        W18472   7.736   4.663   3.550                        
 1257W        W18473   7.032   1.918   0.382                        
 1258W        W18474   8.355  11.251   2.541                        
 1259W        W18475   8.598   1.965   2.541                        
 1260W        W18476  13.036   7.215  11.045                        
 1261W        W18477   5.904  12.036  10.219                        
 1262W        W18478   6.685   7.470   1.467                        
 1263W        W18479   7.203   2.044  10.266                        
 1264W        W18480  10.746   8.071   0.075                        
 1265W        W18481   6.764   6.254  10.778                        
 1266W        W18482  12.306   3.855  11.870                        
 1267W        W18483  12.561   7.482  11.849                        
 1268W        W18484   2.265   6.682   0.098                        
 1269W        W18485  11.488   3.075   3.021                        
 1270W        W18486   3.048   6.203  10.253                        
 1271W        W18487   9.078   9.069   9.449                        
 1272W        W18488   7.840   2.768   9.675                        
 1273W        W18489   7.241  12.307   1.685                        
 1274W        W18490   1.402   8.311   3.366                        
 1275W        W18491   4.311   9.893   0.651                        
 1276W        W18492   6.753   5.414   1.229                        
 1277W        W18493  10.217  11.190   9.702                        
 1278W        W18494  13.351  11.433   8.106                        
 1279W        W18495   8.531  11.463   8.625                        
 1280W        W18496   5.477   7.556   0.626                        
 1281W        W18497   8.636   5.922  10.792                        
 1282W        W18498   9.397   7.731   2.547                        
 1283W        W18499   9.387   9.853  10.052                        
 1284W        W18500   9.911   9.122   8.945                        
 1285W        W18501   1.991  13.900   1.260                        
 1286W        W18502  13.631  13.844   0.168                        
 1287W        W18503  12.241  11.767   9.163                        
 1288W        W18504   5.639  11.538   2.286                        
 1289W        W18505   3.299  10.223   9.187                        
 1290W        W18506   8.375   2.573  11.922                        
 1291W        W18507   2.825   1.139   1.488                        
 1292W        W18508  11.432   1.456   3.802                        
 1293W        W18509   4.303   4.423   1.728                        
 1294W        W18510   4.090   8.088  11.351                        
 1295W        W18511   2.744   9.117  11.642                        
 1296W        W18512   7.821  11.271  10.828                        
 1297W        W18513   8.076   4.334   4.068                        
 1298W        W18514  11.796  10.948   1.167                        
 1299W        W18515   5.384   3.296   8.728                        
 1300W        W18516   4.328   1.168   1.764                        
 1301W        W18517   5.417  10.426   3.036                        
 1302W        W18518  13.846  12.051   3.350                        
 1303W        W18519   4.146   8.554   8.611                        
 1304W        W18520  11.709   0.898   2.553                        
 1305W        W18521   0.069  13.834   3.070                        
 1306W        W18522   1.465   8.331   1.767                        
 1307W        W18523   4.373   4.100   3.652                        
 1308W        W18524  10.755  13.907  11.552                        
 1309W        W18525  10.436   6.218   8.112                        
 1310W        W18526   2.987   9.138   1.719                        
 1311W        W18527   4.568   0.861   3.068                        
 1312W        W18528   0.400  11.544   2.580                        
 1313W        W18529  10.467   1.727   0.640                        
 1314W        W18530   9.961  10.491  10.326                        
 1315W        W18531   8.313   3.346   8.426                        
 1316W        W18532   8.041   0.342   2.271                        
 1317W        W18533   5.173   3.875   9.147                        
 1318W        W18534   4.145   4.837   9.940                        
 1319W        W18535  13.277   4.296   9.797                        
 1320W        W18536   6.240   4.573   0.091                        
 1321W        W18537   8.033   3.541  10.019                        
 1322W        W18538   3.027  11.501   3.115                        
 1323W        W18539   8.058   1.195   8.367                        
 1324W        W18540   2.008   3.839   9.718                        
 1325W        W18541  13.039  10.938   1.437                        
 1326W        W18542   7.284   1.251   1.961                        
 1327W        W18543   4.143  12.574   1.727                        
 1328W        W18544   4.892   5.402   7.896                        
 1329W        W18545   5.106   1.691   8.130                        
 1330W        W18546   4.393   9.064   4.170                        
 1331W        W18547   4.084   0.336   8.401                        
 1332W        W18548  12.484   4.844   2.534                        
 1333W        W18549  11.228  13.317  11.306                        
 1334W        W18550   4.614   5.124   9.703                        
 1335W        W18551   1.152   3.859   8.694                        
 1336W        W18552   7.291   4.339  10.052                        
 1337W        W18553   1.232   3.825   2.313                        
 1338W        W18554   5.394   7.560   2.775                        
 1339W        W18555   2.550   7.845   1.975                        
 1340W        W18556   2.983   4.378   8.877                        
 1341W        W18557   9.662   6.262   1.470                        
 1342W        W18558   6.145   4.667   1.524                        
 1343W        W18559  13.359   4.047   9.724                        
 1344W        W18560  10.439  13.102   1.413                        
 1345W        W18561   3.882   1.243   0.908                        
 1346W        W18562   5.879   4.294  10.229                        
 1347W        W18563   7.004   5.450  11.632                        
 1348W        W18564  13.820   9.401   9.145                        
 1349W        W18565   7.517  11.974   9.964                        
 1350W        W18566   6.947  12.613   9.445                        
 1351W        W18567   3.839   3.592   9.691                        
 1352W        W18568   3.525  12.311   8.189                        
 1353W        W18569   4.671  10.722   2.499                        
 1354W        W18570   7.232  13.091   8.636                        
 1355W        W18571   3.500   3.501   8.925                        
 1356W        W18572   6.760   7.003  10.035                        
 1357W        W18573   6.187   2.257   1.703                        
 1358W        W18574   5.652   4.326   8.427                        
 1359W        W18575   8.613   3.604   0.462                        
 1360W        W18576   8.333   5.741   2.801                        
 1361W        W18577   4.907  11.468   1.172                        
 1362W        W18578  12.817   3.287   8.464                        
 1363W        W18579   9.093  13.591   7.863                        
 1364W        W18580   9.369   0.189   8.914                        
 1365W        W18581  10.484   4.367   1.222                        
 1366W        W18582   2.833   9.628   0.128                        
 1367W        W18583  13.061   0.194  10.478                        
 1368W        W18584   4.868   6.779   0.197                        
 1369W        W18585   6.984   8.113  11.020                        
 1370W        W18586  13.114  13.363  10.205                        
 1371W        W18587   7.749   1.688   3.344                        
 1372W        W18588   3.838   6.734   1.530                        
 1373W        W18589  10.688   5.091  10.477                        
 1374W        W18590   0.675  11.751   1.142                        
 1375W        W18591   8.340   4.047   8.675                        
 1376W        W18592   5.155   5.110   8.430                        
 1377W        W18593   7.296   5.934   2.001                        
 1378W        W18594   3.561   5.354   3.114                        
 1379W        W18595  10.106   4.865   3.618                        
 1380W        W18596   3.344   1.187   9.163                        
 1381W        W18597  13.394   9.970   3.611                        
 1382W        W18598   7.016  13.667  11.111                        
 1383W        W18599   6.231   0.133   3.561                        
 1384W        W18600   6.781   6.671  10.217                        
 1385W        W18601   0.942  10.964   1.448                        
 1386W        W18602   7.830   9.584   1.422                        
 1387W        W18603  10.926   9.144   3.314                        
 1388W        W18604   7.050   1.135   4.174                        
 1389W        W18605  13.597  12.034  10.319                        
 1390W        W18606   0.143  13.130   1.734                        
 1391W        W18607   3.834   2.012   2.008                        
 1392W        W18608   7.296   0.928   2.540                        
 1393W        W18609  13.320   7.780   9.727                        
 1394W        W18610  10.916   9.869   4.135                        
 1395W        W18611  12.245   1.742   0.387                        
 1396W        W18612  13.888   2.228   0.398                        
 1397W        W18613   2.220  10.218   9.236                        
 1398W        W18614   5.979   3.237   1.531                        
 1399W        W18615   7.768   5.708  10.202                        
 1400W        W18616   1.767   3.304   2.808                        
 1401W        W18617   6.237   8.355   2.540                        
 1402W        W18618   8.370   6.962   0.451                        
 1403W        W18619   6.415  13.932   2.739                        
 1404W        W18620   9.382   6.738   9.525                        
 1405W        W18621  10.758   6.936   2.739                        
 1406W        W18622   3.857  13.550   8.620                        
 1407W        W18623   3.056   1.762   4.192                        
 1408W        W18624   5.644  12.032  10.056                        
 1409W        W18625   6.005   4.385   4.161                        
 1410W        W18626  13.834  12.838   3.082                        
 1411W        W18627  11.244   0.659   8.674                        
 1412W        W18628   9.083   2.284   0.117                        
 1413W        W18629  12.874   2.571  11.606                        
 1414W        W18630   2.526   6.263   8.987                        
 1415W        W18631   1.463   1.136   3.270                        
 1416W        W18632  12.003   7.469  11.271                        
 1417W        W18633   3.016  12.257   1.727                        
 1418W        W18634   1.475   4.344  10.061                        
 1419W        W18635   0.702  10.442   1.752                        
 1420W        W18636   1.478   8.377  11.822                        
 1421W        W18637   0.598   5.701   1.464                        
 1422W        W18638   7.013   8.329   9.527                        
 1423W        W18639   4.146   9.412   2.204                        
 1424W        W18640   0.634  11.004   2.262                        
 1425W        W18641   4.333   1.749   1.158                        
 1426W        W18642   3.052   5.973   8.445                        
 1427W        W18643   6.788   3.260  11.038                        
 1428W        W18644   9.896  11.226   2.812                        
 1429W        W18645   9.076   4.678   1.755                        
 1430W        W18646   9.417   1.945   3.114                        
 1431W        W18647   5.694   6.469  10.204                        
 1432W        W18648   5.645   3.551   1.795                        
 1433W        W18649   1.701   8.293   8.383                        
 1434W        W18650   9.947   1.131   1.689                        
 1435W        W18651   2.311   0.613   2.483                        
 1436W        W18652   9.056   4.301   9.506                        
 1437W        W18653   6.689   4.346  11.586                        
 1438W        W18654   4.098  11.534  10.277                        
 1439W        W18655   0.188   6.147   3.573                        
 1440W        W18656   6.418   3.267   2.829                        
 1441W        W18657   3.255   9.133   2.840                        
 1442W        W18658  11.499   9.129   3.302                        
 1443W        W18659   4.094   6.991   0.399                        
 1444W        W18660   4.061   3.576   9.726                        
 1445W        W18661   3.602   9.885   3.863                        
 1446W        W18662  10.180   8.021   2.811                        
 1447W        W18663  12.791   0.623  10.782                        
 1448W        W18664   3.553   0.428  11.865                        
 1449W        W18665   8.040  12.491   9.249                        
 1450W        W18666  11.222   1.985   2.758                        
 1451W        W18667  12.303   4.851  10.849                        
 1452W        W18668  11.812   5.094   2.827                        
 1453W        W18669   2.185   3.088  10.821                        
 1454W        W18670  10.969   3.073   9.937                        
 1455W        W18671   1.164  12.768   3.599                        
 1456W        W18672  12.060   0.931  11.374                        
 1457W        W18673   4.057  12.498   0.131                        
 1458W        W18674   0.875  13.324  11.895                        
 1459W        W18675  11.543  11.715  11.877                        
 1460W        W18676  12.557   1.439   8.431                        
 1461W        W18677   0.145   8.120   0.159                        
 1462W        W18678   9.892  13.277   3.049                        
 1463W        W18679   8.556   5.695   0.942                        
 1464W        W18680   7.211   2.249   7.621                        
 1465W        W18681   0.381   2.222  10.525                        
 1466W        W18682   2.974  13.930  11.266                        
 1467W        W18683   4.584  11.239   3.628                        
 1468W        W18684   7.519  11.542  11.019                        
 1469W        W18685   0.861   7.839   8.413                        
 1470W        W18686  11.772   7.052  10.773                        
 1471W        W18687   2.505   0.911   3.285                        
 1472W        W18688   0.406  11.789   9.403                        
 1473W        W18689   5.944   6.153   8.452                        
 1474W        W18690   2.999   5.441   3.541                        
 1475W        W18691   9.962   2.207   0.437                        
 1476W        W18692  13.806   4.877   9.158                        
 1477W        W18693   4.596   8.337  10.283                        
 1478W        W18694   9.873   2.722   9.748                        
 1479W        W18695   9.900   6.671   3.312                        
 1480W        W18696   1.742   8.529   1.719                        
 1481W        W18697   9.594   0.357  10.581                        
 1482W        W18698   5.397  10.211   1.963                        
 1483W        W18699   8.837   8.642   3.636                        
 1484W        W18700   5.090   3.861   2.297                        
 1485W        W18701   8.904  12.313   1.144                        
 1486W        W18702   0.170   6.524   8.457                        
 1487W        W18703   3.029   0.990   1.233                        
 1488W        W18704   7.059  12.251   1.459                        
 1489W        W18705  11.172   7.756  10.007                        
 1490W        W18706  12.014   1.729   0.433                        
 1491W        W18707  10.203   8.613   9.485                        
 1492W        W18708   6.948   7.241   2.050                        
 1493W        W18709   2.216   9.695   2.063                        
 1494W        W18710  11.228   7.305   0.131                        
 1495W        W18711   9.655  10.390   0.969                        
 1496W        W18712   3.550  13.371  10.058                        
 1497W        W18713   2.256   7.513   8.972                        
 1498W        W18714   1.776   8.808   9.966                        
 1499W        W18715   0.948   9.355   9.442                        
 1500W        W18716   3.082   2.033   3.572                        
 1501W        W18717  13.608   6.704   0.371                        
 1502W        W18718   3.255   9.133  11.643                        
 1503W        W18719   5.453  12.538   2.329                        
 1504W        W18720  10.758   0.970  10.537                        
 1505W        W18721   5.982   5.472  11.853                        
 1506W        W18722  10.400   7.744   4.164                        
 1507W        W18723   9.578   7.324   0.679                        
 1508W        W18724   5.351  11.776   9.417                        
 1509W        W18725   7.048   9.647   3.117                        
 1510W        W18726   7.296   2.248   8.886                        
 1511W        W18727  11.695  13.062   0.397                        
 1512W        W18728  11.781   8.558   9.481                        
 1513W        W18729   5.163   4.921  10.323                        
 1514W        W18730   9.942   3.600   9.157                        
 1515W        W18731  12.281   7.565   3.110                        
 1516W        W18732   4.049   2.739  11.002                        
 1517W        W18733  11.799   1.731   7.807                        
 1518W        W18734   0.936  13.836  10.584                        
 1519W        W18735  12.789   6.197   2.272                        
 1520W        W18736   1.704   7.247  10.560                        
 1521W        W18737  10.441   8.874   3.562                        
 1522W        W18738  11.192   7.738  10.240                        
 1523W        W18739   4.884   5.103   9.229                        
 1524W        W18740   7.482  10.150   9.503                        
 1525W        W18741   9.143   9.590  10.227                        
 1526W        W18742  11.746   1.978   9.252                        
 1527W        W18743  10.667  10.912   9.416                        
 1528W        W18744   4.413   9.594  11.808                        
 1529W        W18745   9.418  10.759   8.881                        
 1530W        W18746   4.830   5.360   0.391                        
 1531W        W18747   1.739   3.880  11.064                        
 1532W        W18748  13.582   7.523   0.110                        
 1533W        W18749   9.326  12.482   0.457                        
 1534W        W18750   7.526   8.845   8.447                        
 1535W        W18751  12.571  12.564   1.405                        
 1536W        W18752   8.018   0.172   7.844                        
 1537W        W18753   2.518   1.389   3.033                        
 1538W        W18754   9.408  12.817   9.460                        
 1539W        W18755   0.959   9.398   8.987                        
 1540W        W18756   4.145   2.809   1.198                        
 1541W        W18757   8.867   4.360   1.948                        
 1542W        W18758   7.031  12.024   2.029                        
 1543W        W18759   7.219   1.222  11.269                        
 1544W        W18760   5.631   3.241   0.999                        
 1545W        W18761   5.712  13.088   1.000                        
 1546W        W18762   1.423   3.357  10.040                        
 1547W        W18763  13.581   0.332   1.773                        
 1548W        W18764  13.846   9.707   4.460                        
 1549W        W18765   7.791   6.982  11.327                        
 1550W        W18766   6.453  12.784   8.399                        
 1551W        W18767   3.786   0.627   2.800                        
 1552W        W18768   1.425   0.145   3.024                        
 1553W        W18769   2.451   6.257   9.229                        
 1554W        W18770   5.122   8.911  11.092                        
 1555W        W18771   6.690   2.305   9.255                        
 1556W        W18772  11.018  10.479   2.001                        
 1557W        W18773  13.664   5.895   0.961                        
 1558W        W18774   8.787  12.342   0.145                        
 1559W        W18775  11.523   4.141   8.653                        
 1560W        W18776  13.844   2.816   2.852                        
 1561W        W18777   0.961  10.468   2.760                        
 1562W        W18778  11.550   7.021  11.836                        
 1563W        W18779   8.526  10.233   1.719                        
 1564W        W18780   7.758   0.422   8.191                        
 1565W        W18781   4.567   1.781   3.625                        
 1566W        W18782   5.212  12.250  10.488                        
 1567W        W18783   5.702   9.594  11.323                        
 1568W        W18784   4.684   0.438   1.433                        
 1569W        W18785   0.962   1.477   3.596                        
 1570W        W18786   9.166  13.866  11.123                        
 1571W        W18787   5.914   4.870   0.665                        
 1572W        W18788   6.680  12.314  11.391                        
 1573W        W18789   0.649   4.836   8.084                        
 1574W        W18790   6.423   5.109   0.193                        
 1575W        W18791   0.168   6.229  10.004                        
 1576W        W18792   0.616  12.574   9.459                        
 1577W        W18793   2.238  10.151   2.008                        
 1578W        W18794  12.495   7.492  11.374                        
 1579W        W18795   7.483   6.415   2.833                        
 1580W        W18796   1.780   1.200   0.983                        
 1581W        W18797   0.605   4.044  10.569                        
 1582W        W18798   7.490  12.228  10.010                        
 1583W        W18799   4.595   5.684   0.727                        
 1584W        W18800   7.751   7.594  10.287                        
 1585W        W18801   9.414   3.087   3.867                        
 1586W        W18802   7.517   3.611   1.685                        
 1587W        W18803   4.114   5.915   7.538                        
 1588W        W18804   3.785  11.540   1.679                        
 1589W        W18805  11.745   7.302  11.540                        
 1590W        W18806   3.582   9.601  11.821                        
 1591W        W18807   6.199   6.782   2.066                        
 1592W        W18808   4.869   6.419   2.061                        
 1593W        W18809   1.928   2.219   2.553                        
 1594W        W18810   2.555  11.800  10.033                        
 1595W        W18811  10.653   4.356  10.781                        
 1596W        W18812   8.816  12.316   7.663                        
 1597W        W18813   1.493   7.523   2.275                        
 1598W        W18814   4.355  10.369   3.026                        
 1599W        W18815  13.036  11.742   2.795                        
 1600W        W18816   5.735   0.947   3.003                        
 1601W        W18817  12.536   9.636   0.091                        
 1602W        W18818   7.515  12.344   4.186                        
 1603W        W18819   7.844   2.770   0.343                        
 1604W        W18820   3.560   3.302   3.846                        
 1605W        W18821  12.038  10.429   0.162                        
 1606W        W18822  10.384   8.811  11.804                        
 1607W        W18823   0.970   7.028  11.841                        
 1608W        W18824   8.296   9.653  11.544                        
 1609W        W18825  10.705   1.128   3.268                        
 1610W        W18826   6.420   5.413   2.468                        
 1611W        W18827   6.778  13.839   2.050                        
 1612W        W18828   4.572   1.130   1.738                        
 1613W        W18829   5.614   6.773   8.430                        
 1614W        W18830  13.383   5.886   9.775                        
 1615W        W18831   2.555   0.429   8.423                        
 1616W        W18832   6.689  11.812  11.575                        
 1617W        W18833   9.620   2.787   3.037                        
 1618W        W18834   3.587   0.171   3.664                        
 1619W        W18835   1.983   7.737   0.346                        
 1620W        W18836  13.071  10.914  11.131                        
 1621W        W18837  13.908   9.865   8.615                        
 1622W        W18838   2.800   5.107  11.549                        
 1623W        W18839   1.222   5.663   7.925                        
 1624W        W18840   8.376  13.592   1.424                        
 1625W        W18841   4.650  12.851   0.897                        
 1626W        W18842   4.088  12.493  11.394                        
 1627W        W18843  11.464  12.310   2.265                        
 1628W        W18844  10.916   6.204   9.410                        
 1629W        W18845  10.137   3.508   8.884                        
 1630W        W18846   7.258   2.294   8.137                        
 1631W        W18847   0.635   2.761   8.609                        
 1632W        W18848   1.947   5.473   2.002                        
 1633W        W18849   9.175   7.061   2.300                        
 1634W        W18850   8.373   8.833  10.510                        
 1635W        W18851   5.945   5.983   1.495                        
 1636W        W18852  11.809   9.856   8.962                        
 1637W        W18853  10.913   0.682   4.413                        
 1638W        W18854  13.888  13.102   8.649                        
 1639W        W18855   0.172   6.979  11.358                        
 1640W        W18856   7.785   4.337   1.780                        
 1641W        W18857   1.212   3.057   2.237                        
 1642W        W18858   7.494   9.373   7.812                        
 1643W        W18859   8.386  12.506   9.416                        
 1644W        W18860  12.508  10.172   2.556                        
 1645W        W18861   9.417   9.114   0.640                        
 1646W        W18862   3.817  10.176   4.166                        
 1647W        W18863   8.379   7.266   2.492                        
 1648W        W18864   8.602   8.783   2.524                        
 1649W        W18865   6.798   8.310   1.719                        
 1650W        W18866  10.904   1.221   3.875                        
 1651W        W18867   6.683  13.542   0.160                        
 1652W        W18868   5.656   6.939   0.641                        
 1653W        W18869  13.084   7.007  10.531                        
 1654W        W18870   7.226   5.635   2.226                        
 1655W        W18871   4.150   3.563  10.582                        
 1656W        W18872  10.638  13.278   9.265                        
 1657W        W18873  10.746   9.157   0.704                        
 1658W        W18874   7.036   0.696   8.701                        
 1659W        W18875  12.521   7.750  11.578                        
 1660W        W18876   8.821   6.536   9.402                        
 1661W        W18877  10.232   2.708   3.395                        
 1662W        W18878  10.700   9.368   2.511                        
 1663W        W18879   7.748   1.475   0.880                        
 1664W        W18880  11.207   8.824   0.154                        
 1665W        W18881   3.773  13.597   9.967                        
 1666W        W18882  11.512   4.132   3.028                        
 1667W        W18883   1.518   0.935   2.786                        
 1668W        W18884  11.179   9.175   9.739                        
 1669W        W18885   2.503   0.377   3.283                        
 1670W        W18886  12.529   5.457   1.992                        
 1671W        W18887   7.738  10.763   2.275                        
 1672W        W18888   0.671   1.124  11.384                        
 1673W        W18889   8.804  10.398   2.243                        
 1674W        W18890  10.668  13.307   2.248                        
 1675W        W18891   3.563  10.438   9.159                        
 1676W        W18892   1.205   1.171   3.386                        
 1677W        W18893  11.270   0.929   3.047                        
 1678W        W18894  10.695   9.865   0.986                        
 1679W        W18895   8.857   4.403   2.274                        
 1680W        W18896   8.859   4.602   8.164                        
 1681W        W18897   2.984   4.109   0.699                        
 1682W        W18898   2.229   9.428   9.172                        
 1683W        W18899   3.098  11.255  11.014                        
 1684W        W18900  10.163   3.779   2.215                        
 1685W        W18901   6.773   7.256  11.071                        
 1686W        W18902   4.634  11.508  11.327                        
 1687W        W18903  11.196   4.095  10.061                        
 1688W        W18904   5.171   8.374   2.533                        
 1689W        W18905   2.552  11.976   2.064                        
 1690W        W18906   4.318   3.077   1.172                        
 1691W        W18907   5.653  12.261   2.582                        
 1692W        W18908  13.097   5.407  10.327                        
 1693W        W18909   5.703   9.705   0.348                        
 1694W        W18910   4.947  12.070  11.659                        
 1695W        W18911   5.948   1.997  10.313                        
 1696W        W18912  12.557  13.343   1.986                        
 1697W        W18913   1.442   6.737   8.413                        
 1698W        W18914   5.402  12.299   8.430                        
 1699W        W18915  13.540   2.501   9.188                        
 1700W        W18916   0.936  12.000   9.496                        
 1701W        W18917  12.760   1.198   3.009                        
 1702W        W18918   5.113  13.353  10.564                        
 1703W        W18919   3.364   4.894   0.078                        
 1704W        W18920   6.200   6.444   2.211                        
 1705W        W18921   8.313   1.496   2.754                        
 1706W        W18922   2.022   5.378   1.142                        
 1707W        W18923   0.372  11.233   8.610                        
 1708W        W18924   6.988   8.271   3.319                        
 1709W        W18925  11.735  12.250   8.632                        
 1710W        W18926   2.205  10.369   0.375                        
 1711W        W18927  11.472   1.176   1.754                        
 1712W        W18928   3.034   2.250   3.651                        
 1713W        W18929   5.205  11.004   0.992                        
 1714W        W18930   2.486   6.188   0.652                        
 1715W        W18931   0.144   5.119   0.344                        
 1716W        W18932  12.794   0.377   0.993                        
 1717W        W18933  10.693   5.712  11.845                        
 1718W        W18934   4.866   7.543   1.228                        
 1719W        W18935   7.041   9.892  10.231                        
 1720W        W18936   0.442   3.767  11.072                        
 1721W        W18937   8.104  13.373  10.325                        
 1722W        W18938   5.730   8.571   9.676                        
 1723W        W18939  10.154   6.953   1.499                        
 1724W        W18940  13.025   3.096  10.292                        
 1725W        W18941   9.692  12.831   0.972                        
 1726W        W18942   2.823  10.202   0.983                        
 1727W        W18943   4.397   9.349   9.160                        
 1728W        W18944   7.214   0.191   8.694                        
 1729W        W18945   0.706  11.806   8.403                        
 1730W        W18946   5.968  11.024   3.853                        
 1731W        W18947  13.037  10.896   0.162                        
 1732W        W18948   0.625   1.937   9.180                        
 1733W        W18949   2.449   2.477  11.061                        
 1734W        W18950   3.622  13.550  10.765                        
 1735W        W18951   0.719  13.626   9.497                        
 1736W        W18952  10.462   8.556  10.852                        
 1737W        W18953  13.046  12.004  10.787                        
 1738W        W18954   9.389   5.106   3.393                        
 1739W        W18955   1.226  13.397  11.106                        
 1740W        W18956   1.996   5.453   9.504                        
 1741W        W18957   6.508   5.618   8.363                        
 1742W        W18958  10.199  10.979   1.935                        
 1743W        W18959   5.941  11.968   2.852                        
 1744W        W18960   4.867   9.419  10.570                        
 1745W        W18961   0.873   8.786   1.940                        
 1746W        W18962  13.307   7.256   8.633                        
 1747W        W18963   2.721   0.620   9.417                        
 1748W        W18964   2.979   2.025   9.794                        
 1749W        W18965  13.293  11.761  10.052                        
 1750W        W18966  11.805   2.769  11.292                        
 1751W        W18967   1.127   6.788  11.642                        
 1752W        W18968  12.064   4.133   1.532                        
 1753W        W18969   6.487   9.114   9.518                        
 1754W        W18970   4.903  12.864   2.856                        
 1755W        W18971   2.457   3.238   8.376                        
 1756W        W18972   1.219   9.083   9.994                        
 1757W        W18973   9.086  13.096   8.395                        
 1758W        W18974  13.864  12.318  10.265                        
 1759W        W18975   5.938   5.639   8.708                        
 1760W        W18976   5.919   0.368   9.196                        
 1761W        W18977   3.876   7.244   3.034                        
 1762W        W18978   7.329  10.459   8.653                        
 1763W        W18979   9.421   5.405   1.136                        
 1764W        W18980   6.483  10.434   1.200                        
 1765W        W18981  13.903   8.551   8.455                        
 1766W        W18982   4.056   5.096  11.372                        
 1767W        W18983   3.849  10.435  10.065                        
 1768W        W18984   0.656  12.835   3.609                        
 1769W        W18985   7.578   1.168  10.509                        
 1770W        W18986   7.833   6.201   1.679                        
 1771W        W18987   1.670  13.865   8.348                        
 1772W        W18988  11.189   4.099   3.290                        
 1773W        W18989   4.653   5.145   1.459                        
 1774W        W18990   2.810   6.265   0.996                        
 1775W        W18991   0.878   9.924   1.521                        
 1776W        W18992  11.285   0.407   9.695                        
 1777W        W18993   4.356   3.291   1.183                        
 1778W        W18994   8.004   3.831   0.710                        
 1779W        W18995   1.514  12.762  10.285                        
 1780W        W18996   1.699  10.956   2.542                        
 1781W        W18997   0.185   2.823   8.347                        
 1782W        W18998   2.545   6.733  11.115                        
 1783W        W18999   9.086  12.843   3.802                        
 1784W        W19000   7.748   2.034   3.818                        
 1785W        W19001   5.640  13.112  10.744                        
 1786W        W19002  10.473   6.417  11.062                        
 1787W        W19003  11.694   5.182  11.536                        
 1788W        W19004   0.108   4.903   1.750                        
 1789W        W19005   7.505   2.534  10.051                        
 1790W        W19006  10.368  10.964  11.856                        
 1791W        W19007   1.943   2.537   0.707                        
 1792W        W19008  12.335  11.189   3.386                        
 1793W        W19009   1.395   8.336  11.041                        
 1794W        W19010  11.776   6.507  11.338                        
 1795W        W19011  13.061   5.884   9.440                        
 1796W        W19012  12.774   9.409   2.818                        
 1797W        W19013  13.558   5.683  10.064                        
 1798W        W19014   8.826   0.331   3.374                        
 1799W        W19015   1.992   5.386  10.218                        
 1800W        W19016  12.279   4.084   9.677                        
 1801W        W19017  10.693  12.299  11.310                        
 1802W        W19018   7.292   6.672   2.515                        
 1803W        W19019  10.186   9.442  11.930                        
 1804W        W19020  12.346   7.749  11.015                        
 1805W        W19021   5.995   1.409   1.216                        
 1806W        W19022  10.978   0.650  10.482                        
 1807W        W19023   0.672   2.275   1.702                        
 1808W        W19024  10.659   9.942   0.165                        
 1809W        W19025   3.782   4.314  11.077                        
 1810W        W19026   9.880   2.541  11.117                        
 1811W        W19027   9.857   4.606   3.666                        
 1812W        W19028   4.061   9.131   8.600                        
 1813W        W19029  12.567   2.757   3.556                        
 1814W        W19030   8.841   9.659  11.884                        
 1815W        W19031  13.030   9.610  11.578                        
 1816W        W19032  10.444   7.766   9.795                        
 1817W        W19033   0.623  11.477  11.122                        
 1818W        W19034   9.869   0.902   1.439                        
 1819W        W19035   4.682   7.531  11.097                        
 1820W        W19036   4.868  11.712   9.777                        
 1821W        W19037   2.458  13.345   9.188                        
 1822W        W19038   8.001   4.383   2.593                        
 1823W        W19039  13.803   2.769   8.927                        
 1824W        W19040   2.766   6.460   2.476                        
 1825W        W19041   5.179   1.782   9.529                        
 1826W        W19042   7.269   5.956   1.150                        
 1827W        W19043   7.822   5.123   2.516                        
 1828W        W19044  11.453   9.909   0.982                        
 1829W        W19045   8.578   6.771   0.368                        
 1830W        W19046   2.552   0.095   9.488                        
 1831W        W19047   7.039   1.678   2.534                        
 1832W        W19048  12.315   4.649   1.770                        
 1833W        W19049  11.242  12.600   4.153                        
 1834W        W19050   9.600  12.037   9.978                        
 1835W        W19051  10.391   5.377   0.392                        
 1836W        W19052   7.492  12.497   2.216                        
 1837W        W19053   3.353  13.656  10.855                        
 1838W        W19054   5.630   6.975   8.187                        
 1839W        W19055   1.703   0.933   1.521                        
 1840W        W19056   7.771   2.551   3.004                        
 1841W        W19057   6.696  10.723   0.959                        
 1842W        W19058  12.831   9.090   2.303                        
 1843W        W19059   6.440  12.537  10.468                        
 1844W        W19060   3.328   3.237   2.318                        
 1845W        W19061   7.002   1.154   2.804                        
 1846W        W19062  12.507  12.538  11.029                        
 1847W        W19063   1.747   5.624   3.130                        
 1848W        W19064   8.045   4.374   1.179                        
 1849W        W19065   0.700  12.228   4.075                        
 1850W        W19066   7.516   6.940   8.943                        
 1851W        W19067   3.575  10.163   8.893                        
 1852W        W19068   7.243  13.379   2.275                        
 1853W        W19069   6.245  12.515   1.965                        
 1854W        W19070  10.420   0.400  11.335                        
 1855W        W19071   4.097   6.249   0.726                        
 1856W        W19072   2.025   2.181   9.409                        
 1857W        W19073   7.850   3.852   9.721                        
 1858W        W19074   1.484  10.743   1.188                        
 1859W        W19075   9.418  10.489  11.067                        
 1860W        W19076  13.376  10.161   8.998                        
 1861W        W19077   2.719   4.625   8.414                        
 1862W        W19078   8.259  13.608   2.501                        
 1863W        W19079  13.818   0.431   9.223                        
 1864W        W19080  11.010  10.701   8.976                        
 1865W        W19081   0.400   8.902   9.429                        
 1866W        W19082   4.413  11.523   9.758                        
 1867W        W19083   2.569  10.173   3.911                        
 1868W        W19084  13.558  10.126   2.562                        
 1869W        W19085   9.162   4.931   1.256                        
 1870W        W19086   9.328   4.565   0.963                        
 1871W        W19087   3.618   4.828  10.214                        
 1872W        W19088  12.227   9.932   4.078                        
 1873W        W19089   2.265  12.816   2.585                        
 1874W        W19090   0.146   7.518   9.527                        
 1875W        W19091   3.870   7.004   0.385                        
 1876W        W19092   4.895   2.783   3.392                        
 1877W        W19093   6.959   4.134   0.347                        
 1878W        W19094   5.133   3.353  11.636                        
 1879W        W19095   0.378   9.085   3.383                        
 1880W        W19096  13.884  10.764   0.359                        
 1881W        W19097   3.247  11.005   1.782                        
 1882W        W19098   4.949   4.096   8.723                        
 1883W        W19099   4.108   4.409   8.884                        
 1884W        W19100   9.148   8.877  10.539                        
 1885W        W19101   1.745  13.296   9.141                        
 1886W        W19102   0.455   1.417   1.185                        
 1887W        W19103  13.135   8.094   1.740                        
 1888W        W19104   0.687   7.061  10.233                        
 1889W        W19105   5.149  11.443   0.156                        
 1890W        W19106  13.334   1.439   0.113                        
 1891W        W19107   1.926  11.455   8.662                        
 1892W        W19108   4.623  13.069   3.389                        
 1893W        W19109   6.168  11.010   1.155                        
 1894W        W19110   0.630  12.011   8.881                        
 1895W        W19111  13.884   5.913   2.509                        
 1896W        W19112   9.326  12.054   1.525                        
 1897W        W19113  12.245   1.755  11.337                        
 1898W        W19114  13.063   1.241   2.517                        
 1899W        W19115   6.454  13.580  10.266                        
 1900W        W19116   5.679   7.267   2.782                        
 1901W        W19117   8.359   2.526  11.013                        
 1902W        W19118   8.362  12.748   1.456                        
 1903W        W19119   7.514  12.872   1.140                        
 1904W        W19120   7.058   8.009   9.939                        
 1905W        W19121   9.895   3.069   0.977                        
 1906W        W19122  10.222   9.099   3.021                        
 1907W        W19123   3.082   4.065  10.056                        
 1908W        W19124   7.329   2.743  11.820                        
 1909W        W19125   3.335   2.976   8.729                        
 1910W        W19126  10.926   7.261  10.792                        
 1911W        W19127   6.475   8.884   2.031                        
 1912W        W19128   3.547   4.350  10.502                        
 1913W        W19129  13.853   6.202  10.257                        
 1914W        W19130   2.025   9.145  11.917                        
 1915W        W19131   9.352  13.136   9.476                        
 1916W        W19132   1.939   7.216   0.403                        
 1917W        W19133   3.004   6.243   3.067                        
 1918W        W19134   9.922   0.196  11.318                        
 1919W        W19135   1.454   2.262   1.420                        
 1920W        W19136   8.070  10.124   2.866                        
 1921W        W19137  13.083  10.742   9.704                        
 1922W        W19138   8.336   6.729   8.415                        
 1923W        W19139   5.619   0.675   1.799                        
 1924W        W19140  12.008   0.701   3.387                        
 1925W        W19141  10.388   0.459   9.183                        
 1926W        W19142   7.266   5.155   8.945                        
 1927W        W19143   6.959  13.079   3.385                        
 1928W        W19144   4.362  12.023   9.453                        
 1929W        W19145   0.888   2.002   9.773                        
 1930W        W19146   7.469   9.178   8.336                        
 1931W        W19147  13.045   9.342   1.938                        
 1932W        W19148  12.764  11.187   1.244                        
 1933W        W19149   2.833  10.749   0.147                        
 1934W        W19150   3.846   0.606   8.138                        
 1935W        W19151   6.424   8.858   2.838                        
 1936W        W19152   9.089  13.815  11.395                        
 1937W        W19153   0.981   9.437  11.312                        
 1938W        W19154   6.216  13.827   0.612                        
 1939W        W19155   7.236   4.407   0.159                        
 1940W        W19156   7.560  13.053  10.856                        
 1941W        W19157  12.780   1.984   8.465                        
 1942W        W19158   3.281   2.466  11.273                        
 1943W        W19159   6.263   2.200  11.041                        
 1944W        W19160   0.072   7.738  11.094                        
 1945W        W19161   4.334   4.384  10.293                        
 1946W        W19162   1.213   6.264  11.552                        
 1947W        W19163   4.945   7.797   1.793                        
 1948W        W19164   4.320  12.269   7.803                        
 1949W        W19165   3.527   1.726   1.443                        
 1950W        W19166  10.733  10.971   2.318                        
 1951W        W19167   5.169   2.219   9.714                        
 1952W        W19168   1.418  10.632   9.162                        
 1953W        W19169   4.153   9.100   1.988                        
 1954W        W19170  13.396   7.265   0.988                        
 1955W        W19171  10.747   5.135   0.871                        
 1956W        W19172   1.463   4.642  11.904                        
 1957W        W19173  11.720  13.806   9.178                        
 1958W        W19174   3.245  12.585   8.341                        
 1959W        W19175   3.092   9.127  10.277                        
 1960W        W19176  12.484  10.159   3.046                        
 1961W        W19177  10.478  10.162   4.118                        
 1962W        W19178   9.697   7.246  11.015                        
 1963W        W19179  13.392   5.105  10.862                        
 1964W        W19180  11.238   9.940   3.591                        
 1965W        W19181   4.686   1.253  11.656                        
 1966W        W19182   9.070  12.790   2.821                        
 1967W        W19183   4.667   9.350  11.321                        
 1968W        W19184  12.580   2.294   2.045                        
 1969W        W19185   1.414   7.513   1.993                        
 1970W        W19186   6.935   7.005   0.134                        
 1971W        W19187   7.801   8.303  11.615                        
 1972W        W19188   4.309   5.903   0.603                        
 1973W        W19189   1.394   8.114   1.205                        
 1974W        W19190   7.504  10.214   0.155                        
 1975W        W19191  11.723   9.941   0.699                        
 1976W        W19192   5.677   5.353   8.662                        
 1977W        W19193  10.681   7.220   3.085                        
 1978W        W19194   0.656   4.822   0.869                        
 1979W        W19195   1.930   1.515   9.791                        
 1980W        W19196  11.819   7.261   3.336                        
 1981W        W19197   9.318   8.826  10.031                        
 1982W        W19198   8.273   0.970  10.001                        
 1983W        W19199   4.558   8.295   2.207                        
 1984W        W19200   7.738   8.905   0.621                        
 1985W        W19201   2.992   4.560   4.076                        
 1986W        W19202   0.887  10.139  10.234                        
 1987W        W19203   3.365   7.027  10.047                        
 1988W        W19204   1.701   6.952   3.337                        
 1989W        W19205  12.494   8.645   2.320                        
 1990W        W19206   9.396   1.707   9.714                        
 1991W        W19207   0.433   8.338   9.705                        
 1992W        W19208  13.279  12.823  10.245                        
 1993W        W19209  13.933  11.954   9.147                        
 1994W        W19210   7.057   9.617   0.604                        
 1995W        W19211   0.708   2.835   0.418                        
 1996W        W19212   7.063   7.290   2.263                        
 1997W        W19213  13.578   7.201   7.874                        
 1998W        W19214  12.588   5.099   0.935                        
 1999W        W19215   3.298   1.165   3.053                        
 2000W        W19216  12.512   5.970   7.642                        
 2001W        W19217   3.814   2.291   2.031                        
 2002W        W19218   0.346   5.389   0.349                        
 2003W        W19219   0.719   5.724   8.080                        
 2004W        W19220   0.370  11.491   3.273                        
 2005W        W19221   8.339  11.756   1.684                        
 2006W        W19222  11.170   8.827  10.788                        
 2007W        W19223   0.644  13.061   9.794                        
 2008W        W19224   4.882   9.672   0.955                        
 2009W        W19225   0.862  11.485   8.628                        
 2010W        W19226   0.457   9.580   0.396                        
 2011W        W19227   9.942   3.293   2.203                        
 2012W        W19228   0.394   0.942   4.336                        
 2013W        W19229  12.275  10.922   2.510                        
 2014W        W19230  11.954   1.201   9.783                        
 2015W        W19231   9.651   5.198   9.935                        
 2016W        W19232  10.671   5.123   1.530                        
 2017W        W19233  10.703  13.138   0.376                        
 2018W        W19234   7.824   0.980   8.128                        
 2019W        W19235   4.138   5.191   0.946                        
 2020W        W19236   5.443   5.369   8.368                        
 2021W        W19237   8.076   1.770   2.213                        
 2022W        W19238  12.001   2.719   8.903                        
 2023W        W19239   5.421   2.238  10.042                        
 2024W        W19240   4.564   9.104   9.754                        
 2025W        W19241  11.460   3.036   3.296                        
 2026W        W19242   4.845   0.617  11.119                        
 2027W        W19243  11.799   8.857   9.401                        
 2028W        W19244   4.089   3.780   0.935                        
 2029W        W19245  10.752   9.964   0.354                        
 2030W        W19246   8.572   4.917  10.267                        
 2031W        W19247   0.603  10.726   9.414                        
 2032W        W19248   8.866   0.968   2.809                        
 2033W        W19249   8.121   4.678   0.614                        
 2034W        W19250   1.754   7.593   1.511                        
 2035W        W19251  10.760   1.467   3.302                        
 2036W        W19252   1.135   7.060  11.009                        
 2037W        W19253   7.215  10.195  11.020                        
 2038W        W19254   6.478   8.870   1.773                        
 2039W        W19255  13.869   5.908   1.775                        
 2040W        W19256   1.680   6.690   1.206                        
 2041W        W19257   8.615  12.299   9.252                        
 2042W        W19258   9.913   2.733   1.528                        
 2043W        W19259   7.805  13.917   3.847                        
 2044W        W19260   6.767  12.243   0.685                        
 2045W        W19261   4.372   9.164   9.206                        
 2046W        W19262   4.636  11.453   2.776                        
 2047W        W19263   0.373   5.933   2.814                        
 2048W        W19264   9.333   0.941   0.990                        
 2049W        W19265  13.392  13.578   0.691                        
 2050W        W19266  13.576   1.937   3.549                        
 2051W        W19267   3.066   3.790   0.077                        
 2052W        W19268   2.515  12.257   8.725                        
 2053W        W19269   1.431   5.370   8.415                        
 2054W        W19270   3.270   9.644  11.900                        
 2055W        W19271   3.599  12.269   1.421                        
 2056W        W19272   3.241  10.115   9.976                        
 2057W        W19273   5.372   1.167  11.919                        
 2058W        W19274   0.124   1.996  10.736                        
 2059W        W19275   5.678   4.664   3.095                        
 2060W        W19276  10.219   4.300  11.618                        
 2061W        W19277   7.532  11.488   0.091                        
 2062W        W19278   4.860   2.498   0.689                        
 2063W        W19279   0.455   3.827   3.073                        
 2064W        W19280   9.848   2.003   9.504                        
 2065W        W19281   4.137   6.958   8.437                        
 2066W        W19282   7.515   9.109   8.659                        
 2067W        W19283   7.810   1.689  11.118                        
 2068W        W19284   5.666   3.881   8.375                        
 2069W        W19285   1.923   3.072   7.850                        
 2070W        W19286   7.252  11.740  10.495                        
 2071W        W19287   4.080   1.703   1.696                        
 2072W        W19288   5.646  11.270   0.356                        
 2073W        W19289   4.298  11.791   4.356                        
 2074W        W19290   5.419   3.508  10.502                        
 2075W        W19291   8.640   4.408   3.636                        
 2076W        W19292   5.087   0.428   2.302                        
 2077W        W19293   8.859   4.564   1.467                        
 2078W        W19294  13.592  11.219  11.863                        
 2079W        W19295  13.859   0.370  10.242                        
 2080W        W19296   5.359   4.846   7.864                        
 2081W        W19297  12.063   0.866   0.644                        
 2082W        W19298   2.029   3.591   1.205                        
 2083W        W19299   0.374   7.204   8.713                        
 2084W        W19300   7.727   7.325  11.087                        
 2085W        W19301  10.966   3.010   1.789                        
 2086W        W19302  12.829   7.525  11.338                        
 2087W        W19303   8.574  12.336   2.594                        
 2088W        W19304   3.513   3.085   1.150                        
 2089W        W19305   6.001   2.475  10.553                        
 2090W        W19306  11.974  12.529   9.148                        
 2091W        W19307   2.973   4.660   3.821                        
 2092W        W19308   6.755   7.302   2.768                        
 2093W        W19309   6.496   9.945   1.406                        
 2094W        W19310   1.485   3.328  11.084                        
 2095W        W19311   0.644   5.434   8.645                        
 2096W        W19312   0.651  11.536   3.393                        
 2097W        W19313  11.742   5.121  11.082                        
 2098W        W19314  10.220  10.231   2.735                        
 2099W        W19315   6.437   9.345   9.725                        
 2100W        W19316   1.422   8.566   1.712                        
 2101W        W19317   2.761  11.808   2.577                        
 2102W        W19318   9.859  12.573   8.189                        
 2103W        W19319  13.621   8.798   9.479                        
 2104W        W19320  11.018   6.534   0.897                        
 2105W        W19321   2.570   2.468   9.142                        
 2106W        W19322   0.100   2.501   1.210                        
 2107W        W19323   9.101   9.578  10.585                        
 2108W        W19324   9.891  13.140   8.879                        
 2109W        W19325  13.090   6.498   1.688                        
 2110W        W19326   6.530   3.257  11.609                        
 2111W        W19327   8.860  12.259  11.334                        
 2112W        W19328   3.794   2.767  10.863                        
 2113W        W19329   2.480   5.641   3.656                        
 2114W        W19330   5.368   2.463  10.037                        
 2115W        W19331   8.053   5.434   3.644                        
 2116W        W19332  13.548  11.800   9.525                        
 2117W        W19333  12.874   4.313  10.572                        
 2118W        W19334   4.297   7.832   1.441                        
 2119W        W19335   8.867   7.551   9.502                        
 2120W        W19336  12.071   9.860  11.060                        
 2121W        W19337   3.799  10.936   1.749                        
 2122W        W19338   9.073  13.300   9.957                        
 2123W        W19339   5.215   2.018   0.406                        
 2124W        W19340   9.582   8.328   1.527                        
 2125W        W19341   1.691   6.986   1.522                        
 2126W        W19342   2.491   9.884  11.835                        
 2127W        W19343   5.636   0.176  10.307                        
 2128W        W19344   8.099   6.671   2.526                        
 2129W        W19345   0.421   7.519   1.689                        
 2130W        W19346   1.218   7.581  11.115                        
 2131W        W19347   5.166   6.473  11.020                        
 2132W        W19348  13.874   9.164   3.106                        
 2133W        W19349   9.957   0.404   9.529                        
 2134W        W19350   6.211  13.904   0.105                        
 2135W        W19351   6.964   8.318   2.001                        
 2136W        W19352   6.732   1.737   9.750                        
 2137W        W19353   7.304   2.183   9.972                        
 2138W        W19354  13.313   1.692   3.588                        
 2139W        W19355   9.341   4.837  10.505                        
 2140W        W19356  10.984   4.030   2.596                        
 2141W        W19357  13.867   4.586   8.988                        
 2142W        W19358  11.024   5.910   3.643                        
 2143W        W19359  10.437   7.820   2.599                        
 2144W        W19360  11.765   0.147  10.535                        
 2145W        W19361   7.301  11.464   2.038                        
 2146W        W19362   5.418  13.643   2.246                        
 2147W        W19363   1.417  10.147   1.447                        
 2148W        W19364   8.276  12.031   9.143                        
 2149W        W19365   9.396   5.677  11.620                        
 2150W        W19366   7.540   2.757   0.134                        
 2151W        W19367  12.608  10.495  11.547                        
 2152W        W19368   0.906   4.863   8.122                        
 2153W        W19369   5.438   1.665   9.491                        
 2154W        W19370   8.309   5.203  10.780                        
 2155W        W19371   0.953   0.372   0.723                        
 2156W        W19372   0.337   0.370  11.072                        
 2157W        W19373  12.520  10.374   9.186                        
 2158W        W19374  10.171   2.796   1.518                        
 2159W        W19375   0.128   4.597  10.829                        
 2160W        W19376   5.708  12.051   8.681                        
 2161W        W19377   4.080   6.259   2.320                        
 2162W        W19378   2.203   2.569   3.100                        
 2163W        W19379  12.058   5.934   0.903                        
 2164W        W19380  11.435  10.223   2.766                        
 2165W        W19381   9.154   8.563   3.381                        
 2166W        W19382  13.017  12.264   1.713                        
 2167W        W19383   4.623   1.223  11.314                        
 2168W        W19384   7.522   0.915   3.612                        
 2169W        W19385   4.421  13.309  11.056                        
 2170W        W19386   6.156   4.883   1.701                        
 2171W        W19387   8.603   8.535   8.336                        
 2172W        W19388   0.126   2.529   8.155                        
 2173W        W19389   5.367  12.768  11.312                        
 2174W        W19390   6.981   9.119  11.361                        
 2175W        W19391   9.313   9.678  10.770                        
 2176W        W19392   3.539   8.286   9.143                        
 2177W        W19393  10.696   7.039   0.728                        
 2178W        W19394   1.493  12.501   9.439                        
 2179W        W19395  13.625   6.177   9.190                        
 2180W        W19396   8.287  11.173   8.624                        
 2181W        W19397  10.486   6.148  10.025                        
 2182W        W19398   4.623   5.685   1.728                        
 2183W        W19399  12.281   8.351   0.962                        
 2184W        W19400  11.258   6.514   1.502                        
 2185W        W19401  12.482  13.541   0.408                        
 2186W        W19402   3.845  10.138  10.239                        
 2187W        W19403   1.731  10.902  11.354                        
 2188W        W19404  11.221   1.917  11.542                        
 2189W        W19405   2.824  10.729   9.456                        
 2190W        W19406  10.146   5.654   0.381                        
 2191W        W19407   1.949  10.215   0.343                        
 2192W        W19408  11.761   3.360   3.042                        
 2193W        W19409   7.848  10.218   1.730                        
 2194W        W19410   9.944  12.826  11.893                        
 2195W        W19411   4.925  10.920   8.732                        
 2196W        W19412  13.028   5.419  11.847                        
 2197W        W19413  12.508   2.767   2.320                        
 2198W        W19414   1.479   7.995   9.999                        
 2199W        W19415   6.688   9.868  10.214                        
 2200W        W19416   7.739  12.267  11.877                        
 2201W        W19417   2.735   8.524   8.404                        
 2202W        W19418  12.508   1.148  11.073                        
 2203W        W19419   7.735   7.023   0.974                        
 2204W        W19420   1.197   0.867   3.894                        
 2205W        W19421  10.143   6.216   2.330                        
 2206W        W19422  10.913  11.696   2.539                        
 2207W        W19423   0.428  11.268   1.982                        
 2208W        W19424   8.032  13.334   0.626                        
 2209W        W19425   8.102  12.075   1.429                        
 2210W        W19426  13.056  10.373   0.710                        
 2211W        W19427   3.297   6.692   0.950                        
 2212W        W19428   4.078   8.828  11.600                        
 2213W        W19429   2.302   4.066   3.057                        
 2214W        W19430   1.192   4.667   7.583                        
 2215W        W19431  12.341  12.551  11.583                        
 2216W        W19432   1.233   4.949   1.960                        
 2217W        W19433   2.448   7.269  11.054                        
 2218W        W19434   7.294  10.384   3.815                        
 2219W        W19435   3.543   1.457   8.695                        
 2220W        W19436   9.389  11.501   8.346                        
 2221W        W19437   5.673  13.620   0.916                        
 2222W        W19438   6.237   4.333   2.027                        
 2223W        W19439   6.772  11.450   0.415                        
 2224W        W19440   6.230  12.329   9.409                        
 2225W        W19441   7.790   0.985  10.557                        
 2226W        W19442   7.055  13.557   9.215                        
 2227W        W19443   5.899  12.856   2.847                        
 2228W        W19444   7.572   6.751   1.694                        
 2229W        W19445   3.291   2.198   0.198                        
 2230W        W19446  13.853  11.979  10.747                        
 2231W        W19447   0.155   6.526   2.056                        
 2232W        W19448   3.317  10.136  10.312                        
 2233W        W19449  10.940   9.950   2.332                        
 2234W        W19450   2.446   2.446   0.188                        
 2235W        W19451  12.252  13.542   1.990                        
 2236W        W19452  11.775   6.983   8.976                        
 2237W        W19453   2.249   9.167   1.258                        
 2238W        W19454  10.465   5.955   0.428                        
 2239W        W19455   0.636   8.910   8.355                        
 2240W        W19456   0.880   8.282   9.404                        
 2241W        W19457   3.089   9.894  10.545                        
 2242W        W19458  12.338   2.542   2.323                        
 2243W        W19459   3.238  12.538   2.330                        
 2244W        W19460   8.030   9.410   4.114                        
 2245W        W19461  13.599   1.424   3.559                        
 2246W        W19462   1.518   3.038   8.962                        
 2247W        W19463  10.662  12.503   1.239                        
 2248W        W19464   5.735   2.816  10.319                        
 2249W        W19465   5.207   1.663  11.278                        
 2250W        W19466  13.894   6.706   2.500                        
 2251W        W19467   6.704   4.629   0.964                        
 2252W        W19468  12.558  13.667   9.408                        
 2253W        W19469  12.522   3.064   9.702                        
 2254W        W19470  11.554   2.830  10.827                        
 2255W        W19471   2.547   5.701   9.704                        
 2256W        W19472   9.872   2.726  11.270                        
 2257W        W19473   6.414  10.107   9.408                        
 2258W        W19474   5.131   7.521  10.776                        
 2259W        W19475   2.254   6.007   2.018                        
 2260W        W19476  11.263   4.913   0.658                        
 2261W        W19477   5.715   4.574  11.330                        
 2262W        W19478   6.530   2.227   2.302                        
 2263W        W19479   1.215   8.092   3.319                        
 2264W        W19480   7.858  13.632   8.458                        
 2265W        W19481   0.944   6.677   3.124                        
 2266W        W19482   7.488   7.794  10.782                        
 2267W        W19483   2.213   2.755   0.401                        
 2268W        W19484   3.830   0.940  11.607                        
 2269W        W19485   9.902  12.044   0.666                        
 2270W        W19486  10.218   5.154   2.543                        
 2271W        W19487   1.956   8.577   8.722                        
 2272W        W19488   3.599   3.337   0.367                        
 2273W        W19489   8.070   0.616   9.184                        
 2274W        W19490   7.583   0.965  10.553                        
 2275W        W19491   7.548   4.591   2.765                        
 2276W        W19492  12.235   5.988   8.689                        
 2277W        W19493   7.787   1.983   9.189                        
 2278W        W19494   9.060   1.942   8.659                        
 2279W        W19495   5.932  10.713   3.002                        
 2280W        W19496   2.461   3.277   9.736                        
 2281W        W19497  12.070   8.898   3.651                        
 2282W        W19498   2.538   6.953   2.020                        
 2283W        W19499  10.453   0.128   1.468                        
 2284W        W19500   6.742  13.309  10.753                        
 2285W        W19501   8.630   2.994  10.589                        
 2286W        W19502   2.016   8.289  10.044                        
 2287W        W19503   8.642   7.808   8.971                        
 2288W        W19504   7.748   1.972   2.840                        
 2289W        W19505   9.059   5.881  10.056                        
 2290W        W19506  13.669   9.688   8.724                        
 2291W        W19507  10.163   1.467   4.170                        
 2292W        W19508  10.950   4.839   1.138                        
 2293W        W19509   2.731   7.992   8.947                        
 2294W        W19510   0.407   1.167   3.330                        
 2295W        W19511  11.966   2.559  10.497                        
 2296W        W19512   4.336   8.893   8.902                        
 2297W        W19513   7.284   5.182   3.370                        
 2298W        W19514   5.922  11.481   2.318                        
 2299W        W19515   7.517   7.738   9.163                        
 2300W        W19516   9.132  12.018   1.753                        
 2301W        W19517   7.049   0.152   9.479                        
 2302W        W19518  12.594   1.667   1.232                        
 2303W        W19519   9.145  13.809   0.193                        
 2304W        W19520   9.950   0.865   9.235                        
 2305W        W19521   6.463  13.623   2.057                        
 2306W        W19522  13.386  13.101   1.946                        
 2307W        W19523   7.040   1.663   0.626                        
 2308W        W19524   4.660   1.782   1.475                        
 2309W        W19525   2.296   6.451   8.684                        
 2310W        W19526   8.103  13.869   7.598                        
 2311W        W19527  10.152   1.451   2.799                        
 2312W        W19528  11.204   1.145   3.844                        
 2313W        W19529   3.813  12.584   3.537                        
 2314W        W19530   1.477   7.767  11.348                        
 2315W        W19531   2.200   5.707   0.389                        
 2316W        W19532  10.144  12.324   1.764                        
 2317W        W19533   0.454   0.860   3.804                        
 2318W        W19534   7.539   6.752  11.920                        
 2319W        W19535   9.639   8.114   8.725                        
 2320W        W19536  13.310   9.666   9.171                        
 2321W        W19537   1.236  13.333  11.821                        
 2322W        W19538  12.512  11.210  11.388                        
 2323W        W19539   5.105  12.781   8.997                        
 2324W        W19540  13.365  13.051  11.358                        
 2325W        W19541   5.626   4.888   1.402                        
 2326W        W19542  10.384   6.985  11.007                        
 2327W        W19543   0.875   0.136   0.163                        
 2328W        W19544   8.526   9.656   3.025                        
 2329W        W19545  11.800   5.650   1.194                        
 2330W        W19546   5.996  10.430   8.418                        
 2331W        W19547   7.303   8.119  10.774                        
 2332W        W19548   7.779   4.892   4.185                        
 2333W        W19549   4.558   5.888   9.954                        
 2334W        W19550  10.388   8.646  11.562                        
 2335W        W19551   1.696   7.248   3.062                        
 2336W        W19552  10.711   9.405   1.244                        
 2337W        W19553   2.197  10.207   1.767                        
 2338W        W19554   7.228   4.104   8.341                        
 2339W        W19555  11.240  11.520   0.618                        
 2340W        W19556  11.531  10.111   3.283                        
 2341W        W19557  11.213   0.149  10.210                        
 2342W        W19558   0.145  12.602   1.407                        
 2343W        W19559  11.808   2.988   2.327                        
 2344W        W19560  11.698   3.074   3.071                        
 2345W        W19561   1.959   5.352   0.341                        
 2346W        W19562   9.355  12.768   8.973                        
 2347W        W19563   2.259   5.192   0.978                        
 2348W        W19564   1.157  10.147   8.671                        
 2349W        W19565  10.929   8.373   1.203                        
 2350W        W19566   0.195   5.212   2.030                        
 2351W        W19567   4.139   1.486   8.396                        
 2352W        W19568   7.474  11.433   0.704                        
 2353W        W19569   5.105   1.211   3.364                        
 2354W        W19570   4.634  10.190   2.499                        
 2355W        W19571   9.385   1.518   1.424                        
 2356W        W19572   3.329   1.464   0.077                        
 2357W        W19573   9.899   9.146  10.222                        
 2358W        W19574   1.145   9.915   2.261                        
 2359W        W19575  10.674   6.727   9.257                        
 2360W        W19576   4.862  11.554   2.474                        
 2361W        W19577  10.653  10.989   3.355                        
 2362W        W19578   9.685   8.814   2.829                        
 2363W        W19579   6.530   4.145   8.986                        
 2364W        W19580   5.172   7.000  10.277                        
 2365W        W19581   4.572   5.654   1.507                        
 2366W        W19582   9.142  13.042   2.234                        
 2367W        W19583   9.638   9.900   9.503                        
 2368W        W19584   1.932   1.219   4.142                        
 2369W        W19585   3.512  12.769  10.564                        
 2370W        W19586   4.401   9.940   1.492                        
 2371W        W19587   1.687   3.550   3.063                        
 2372W        W19588   3.016  11.729   3.281                        
 2373W        W19589  13.086   7.852   9.211                        
 2374W        W19590  11.441   4.036   9.995                        
 2375W        W19591   4.371   2.469   9.965                        
 2376W        W19592   2.230   7.227   0.378                        
 2377W        W19593   3.096  10.912   1.748                        
 2378W        W19594   6.998  13.814   1.971                        
 2379W        W19595   3.774   2.558  10.844                        
 2380W        W19596   1.184   1.157   8.438                        
 2381W        W19597   0.186  12.290  11.604                        
 2382W        W19598   2.810  13.581   8.869                        
 2383W        W19599   4.601   3.854  10.829                        
 2384W        W19600  10.387   4.068   8.699                        
 2385W        W19601   5.658   5.468  10.061                        
 2386W        W19602   8.572   9.336   2.783                        
 2387W        W19603   5.457  11.021   1.676                        
 2388W        W19604   8.013   9.649   1.960                        
 2389W        W19605   9.882   1.671   8.412                        
 2390W        W19606   7.279   8.892  10.032                        
 2391W        W19607   5.698   0.177  11.319                        
 2392W        W19608  13.548  13.913   1.210                        
 2393W        W19609   0.990  12.606   3.538                        
 2394W        W19610   0.713   4.826  10.810                        
 2395W        W19611  11.484  10.698   9.167                        
 2396W        W19612  12.286   6.959   0.934                        
 2397W        W19613   2.988   9.679   2.595                        
 2398W        W19614  13.062   4.582   0.631                        
 2399W        W19615  10.757   6.536   9.201                        
 2400W        W19616  13.835  13.312  10.518                        
 2401W        W19617   8.370  13.803   1.494                        
 2402W        W19618  12.525   6.433  11.320                        
 2403W        W19619   4.380   7.026   0.161                        
 2404W        W19620  13.095   5.697   8.925                        
 2405W        W19621   9.425   7.774   3.041                        
 2406W        W19622  10.950   6.239   2.056                        
 2407W        W19623   5.089   7.810   8.894                        
 2408W        W19624   3.777  11.451   8.463                        
 2409W        W19625   6.979  10.474   2.822                        
 2410W        W19626   3.584   0.905   9.414                        
 2411W        W19627  13.294  11.819  10.222                        
 2412W        W19628   4.675   9.616   8.602                        
 2413W        W19629  11.772  11.739  11.130                        
 2414W        W19630   3.623   3.008   2.475                        
 2415W        W19631   4.665   5.146  11.651                        
 2416W        W19632   7.801   8.121   0.939                        
 2417W        W19633  12.874   7.818   2.794                        
 2418W        W19634   7.540  10.711  10.569                        
 2419W        W19635   1.432   7.232   9.181                        
 2420W        W19636   4.566   0.688  11.009                        
 2421W        W19637   1.226   4.595   7.802                        
 2422W        W19638   1.940  10.174   2.507                        
 2423W        W19639   0.606  13.090   7.610                        
 2424W        W19640   9.091   8.914   2.295                        
 2425W        W19641  11.281  13.019   1.264                        
 2426W        W19642  11.700   5.643   9.724                        
 2427W        W19643   1.727   1.223   8.456                        
 2428W        W19644  11.514   0.963  11.340                        
 2429W        W19645  12.817  12.830   0.077                        
 2430W        W19646   7.262  10.903   3.630                        
 2431W        W19647   4.091   0.113  11.583                        
 2432W        W19648   4.122   5.407  11.618                        
 2433W        W19649   4.659   0.726   1.176                        
 2434W        W19650   3.562   4.362   1.222                        
 2435W        W19651   7.474   7.533  10.285                        
 2436W        W19652  11.501  13.934   1.767                        
 2437W        W19653   1.663   0.379   1.224                        
 2438W        W19654   5.934   8.025   3.812                        
 2439W        W19655   8.087  13.135   2.026                        
 2440W        W19656   9.065   2.449   9.447                        
 2441W        W19657   3.289  11.288  11.584                        
 2442W        W19658  11.748  10.219   8.398                        
 2443W        W19659  13.074   8.120  11.024                        
 2444W        W19660   5.633   5.133  10.316                        
 2445W        W19661  10.234   0.400   8.990                        
 2446W        W19662   6.165   8.056  11.398                        
 2447W        W19663   2.838  10.173   4.194                        
 2448W        W19664  13.372   5.209  10.221                        
 2449W        W19665  10.997  13.046  10.535                        
 2450W        W19666   4.592   7.517   0.387                        
 2451W        W19667   9.866   6.513   0.395                        
 2452W        W19668  13.612  11.816   2.742                        
 2453W        W19669   0.652   9.149   1.247                        
 2454W        W19670   3.346   0.611   7.816                        
 2455W        W19671   1.191   5.425  11.881                        
 2456W        W19672   3.274   9.422   3.373                        
 2457W        W19673  10.691   6.771   3.099                        
 2458W        W19674   9.099   8.797   0.388                        
 2459W        W19675   9.916  12.077  11.130                        
 2460W        W19676   4.911   7.572   2.305                        
 2461W        W19677   2.767   4.335   2.240                        
 2462W        W19678   8.904   7.772   0.896                        
 2463W        W19679   3.298  12.280   9.430                        
 2464W        W19680   4.344   0.193   3.321                        
 2465W        W19681   3.294   0.399  10.046                        
 2466W        W19682  10.473  11.274  11.594                        
 2467W        W19683  10.208   4.325   2.319                        
 2468W        W19684   3.848   6.670  11.880                        
 2469W        W19685  11.013   6.168   8.633                        
 2470W        W19686   5.210   3.505   1.500                        
 2471W        W19687   0.977   3.771   8.623                        
 2472W        W19688  12.226   6.156  10.552                        
 2473W        W19689  13.109   4.351   8.986                        
 2474W        W19690   6.936   5.651  10.818                        
 2475W        W19691   9.429   1.933   0.665                        
 2476W        W19692   5.965   3.350   3.116                        
 2477W        W19693   9.932  13.633   7.832                        
 2478W        W19694   3.586  13.553   8.133                        
 2479W        W19695   4.826   0.640  10.495                        
 2480W        W19696   6.210   2.227   8.602                        
 2481W        W19697   1.183   2.033   3.552                        
 2482W        W19698   4.607   0.347   0.901                        
 2483W        W19699   5.127   2.516   3.032                        
 2484W        W19700   5.164   1.748   3.088                        
 2485W        W19701  13.894   1.232   3.318                        
 2486W        W19702   1.665  12.571   1.793                        
 2487W        W19703  13.912   3.815   0.686                        
 2488W        W19704   2.199   0.092   4.178                        
 2489W        W19705   0.103   9.661  11.317                        
 2490W        W19706  12.555   7.488  11.547                        
 2491W        W19707   4.328   8.291  11.324                        
 2492W        W19708  10.762   5.394   1.212                        
 2493W        W19709  12.293   1.945   8.436                        
 2494W        W19710  13.042  13.013  10.276                        
 2495W        W19711   6.792   8.609   0.433                        
 2496W        W19712   6.464   7.272  10.276                        
 2497W        W19713   7.240   4.066   0.904                        
 2498W        W19714  13.348   3.837  10.770                        
 2499W        W19715   5.981   1.254   8.194                        
 2500W        W19716   0.448   9.597   2.585                        
 2501W        W19717   1.993   0.339  10.838                        
 2502W        W19718   6.226  13.652  11.041                        
 2503W        W19719   6.709  12.036   1.213                        
 2504W        W19720   3.259  13.053   3.024                        
 2505W        W19721   7.301   1.483   0.143                        
 2506W        W19722  11.729   1.933   1.437                        
 2507W        W19723  11.705   0.111   1.471                        
 2508W        W19724  12.304  10.152   2.499                        
 2509W        W19725   9.060  10.135   2.860                        
 2510W        W19726   1.712   7.559   2.259                        
 2511W        W19727   8.914   6.522   1.156                        
 2512W        W19728   7.314   1.662   1.956                        
 2513W        W19729   3.573   7.011   9.515                        
 2514W        W19730   8.059  12.502   3.069                        
 2515W        W19731   6.203   8.106   3.363                        
 2516W        W19732  10.385  13.141   0.375                        
 2517W        W19733   5.105   3.318   9.525                        
 2518W        W19734   0.131   3.275   2.803                        
 2519W        W19735  12.040   5.392  11.046                        
 2520W        W19736  13.304   2.229   9.424                        
 2521W        W19737  11.480  12.808   8.961                        
 2522W        W19738  10.115   5.090   8.659                        
 2523W        W19739   9.094   3.632   8.897                        
 2524W        W19740   2.520  13.858   2.586                        
 2525W        W19741   8.068   1.916  10.218                        
 2526W        W19742  10.903   4.949   3.352                        
 2527W        W19743  10.763   4.383   9.178                        
 2528W        W19744   0.930  12.280  10.302                        
 2529W        W19745   0.694  13.554  10.037                        
 2530W        W19746   4.610  12.274  10.301                        
 2531W        W19747   5.351   5.990  11.614                        
 2532W        W19748   2.459  13.660   3.310                        
 2533W        W19749  10.924   5.382  10.756                        
 2534W        W19750   8.574  10.751   2.230                        
 2535W        W19751  10.396   3.079   2.229                        
 2536W        W19752   3.321  13.284   8.888                        
 2537W        W19753   6.200   6.432   9.522                        
 2538W        W19754   4.054  10.149   1.422                        
 2539W        W19755   4.836  13.055   9.959                        
 2540W        W19756   5.096   5.709   1.979                        
 2541W        W19757   3.091  12.485   1.197                        
 2542W        W19758  12.586   1.464   0.075                        
 2543W        W19759   5.394  10.168   0.082                        
 2544W        W19760   2.225  11.174  10.039                        
 2545W        W19761  12.595   3.003  10.497                        
 2546W        W19762  10.706   1.964   3.025                        
 2547W        W19763  13.865   1.214   3.034                        
 2548W        W19764  13.049  12.238   8.450                        
 2549W        W19765   0.174   3.511  11.814                        
 2550W        W19766   1.697   9.943   9.411                        
 2551W        W19767   9.177   2.993  11.651                        
 2552W        W19768   9.874  10.173   8.608                        
 2553W        W19769   3.799   7.594  11.007                        
 2554W        W19770   2.463   6.427   2.018                        
 2555W        W19771   8.849   8.310   9.790                        
 2556W        W19772  10.405  13.363   8.946                        
 2557W        W19773   5.912   5.110  11.276                        
 2558W        W19774  11.218   5.106   8.439                        
 2559W        W19775   2.791  11.756   2.207                        
 2560W        W19776  12.826  12.593   0.197                        
 2561W        W19777   8.868   4.880   1.461                        
 2562W        W19778   6.978  12.494   2.508                        
 2563W        W19779   0.396  13.404   0.080                        
 2564W        W19780   5.688   0.649   9.980                        
 2565W        W19781  13.398   5.399   8.696                        
 2566W        W19782   1.726  13.086   8.081                        
 2567W        W19783   7.020   9.083   0.995                        
 2568W        W19784  12.294  13.390   0.406                        
 2569W        W19785   8.052   5.899   0.638                        
 2570W        W19786   3.246  13.380   9.684                        
 2571W        W19787   8.355   1.463   9.426                        
 2572W        W19788   8.532  13.013   9.505                        
 2573W        W19789  10.975  10.976  11.040                        
 2574W        W19790   4.390  12.068  10.246                        
 2575W        W19791   1.500   1.396   1.487                        
 2576W        W19792   9.622   2.290   0.938                        
 2577W        W19793   7.300  10.437   9.754                        
 2578W        W19794  11.971   0.138  10.294                        
 2579W        W19795  11.749   8.091  11.268                        
 2580W        W19796  13.564   5.898   3.060                        
 2581W        W19797   8.825  11.703   0.352                        
 2582W        W19798   8.053   0.100   3.864                        
 2583W        W19799   5.664   8.044  11.045                        
 2584W        W19800   8.054  13.557   2.557                        
 2585W        W19801   5.114   0.103   2.226                        
 2586W        W19802   4.846   3.074   9.431                        
 2587W        W19803   5.711   1.976   0.690                        
 2588W        W19804  11.993   0.067  10.555                        
 2589W        W19805   5.186   9.325   2.787                        
 2590W        W19806   1.208  12.062  10.841                        
 2591W        W19807   2.454   0.361   9.761                        
 2592W        W19808   9.969   0.866   3.852                        
 2593W        W19809   2.037   0.166   2.235                        
 2594W        W19810   0.349   8.063   8.136                        
 2595W        W19811   4.917  13.670   9.195                        
 2596W        W19812   9.647   1.976   3.306                        
 2597W        W19813   0.148   3.045   0.392                        
 2598W        W19814  13.098   2.231  11.269                        
 2599W        W19815   3.817   4.051  10.277                        
 2600W        W19816   9.427   0.912   1.786                        
 2601W        W19817  10.148   7.807   4.160                        
 2602W        W19818   3.284  12.082  11.867                        
 2603W        W19819   6.201   4.644   1.175                        
 2604W        W19820   3.021   6.944   3.072                        
 2605W        W19821  12.046   1.419  11.911                        
 2606W        W19822   6.407  11.499   0.884                        
 2607W        W19823   1.920   4.676   0.443                        
 2608W        W19824   8.013   4.681   8.454                        
 2609W        W19825   2.543  10.227  11.379                        
 2610W        W19826   1.215   3.862  11.119                        
 2611W        W19827   3.808   4.347  11.660                        
 2612W        W19828  12.820   5.978   3.125                        
 2613W        W19829  11.774   3.580   3.061                        
 2614W        W19830   5.678   3.506  11.322                        
 2615W        W19831  10.412   6.153   1.257                        
 2616W        W19832   8.629   4.914   1.688                        
 2617W        W19833  12.056   0.183   2.792                        
 2618W        W19834  13.866   8.075   4.374                        
 2619W        W19835  13.919  12.760   0.659                        
 2620W        W19836   3.302   0.983   9.520                        
 2621W        W19837   8.789   8.876  10.246                        
 2622W        W19838   1.411  10.972   8.876                        
 2623W        W19839   1.469   2.277  10.255                        
 2624W        W19840   9.878  12.001   2.792                        
 2625W        W19841   8.899  11.785  11.015                        
 2626W        W19842   9.317  12.765  10.590                        
 2627W        W19843   0.611   6.496   8.886                        
 2628W        W19844  12.820   4.900  10.302                        
 2629W        W19845   8.064   2.248   3.302                        
 2630W        W19846   7.276  11.764   9.474                        
 2631W        W19847   6.257   7.571   9.199                        
 2632W        W19848   1.201   4.921  10.816                        
 2633W        W19849   2.263   0.107   8.695                        
 2634W        W19850   3.319  11.790   0.687                        
 2635W        W19851   9.884   1.457   9.414                        
 2636W        W19852   1.506   4.838   3.034                        
 2637W        W19853   1.219  11.761   9.980                        
 2638W        W19854   5.440  12.546  10.025                        
 2639W        W19855   9.063   8.045  10.206                        
 2640W        W19856   7.497   3.788   8.133                        
 2641W        W19857   0.084   4.342   3.660                        
 2642W        W19858   7.219  11.025   9.510                        
 2643W        W19859   8.278   2.238  11.331                        
 2644W        W19860   4.883   1.195   3.080                        
 2645W        W19861   5.729   2.295   2.761                        
 2646W        W19862  13.319   4.153  11.275                        
 2647W        W19863   4.952   5.466   0.942                        
 2648W        W19864   0.144  11.473  10.556                        
 2649W        W19865  10.986   4.053  11.302                        
 2650W        W19866   7.294   9.576   8.644                        
 2651W        W19867   0.881   2.997   8.727                        
 2652W        W19868  13.539  11.807   9.772                        
 2653W        W19869   3.877   3.002   8.708                        
 2654W        W19870   4.334   8.001   2.497                        
 2655W        W19871   8.856   9.585  10.060                        
 2656W        W19872   4.386  13.031   9.933                        
 2657W        W19873   3.064  11.997   8.963                        
 2658W        W19874  13.080   8.001   3.645                        
 2659W        W19875   7.301   8.645   1.508                        
 2660W        W19876   9.428   7.026  11.024                        
 2661W        W19877  13.106   4.920   3.596                        
 2662W        W19878   5.448   9.666  11.559                        
 2663W        W19879  13.542   0.192  11.653                        
 2664W        W19880   7.014   9.104  10.057                        
 2665W        W19881   1.459   2.810  11.121                        
 2666W        W19882  13.301   0.598   1.232                        
 2667W        W19883   4.626   4.059   0.379                        
 2668W        W19884   4.832   3.038   0.136                        
 2669W        W19885   7.734   4.339  11.368                        
 2670W        W19886   8.650   2.494   9.963                        
 2671W        W19887   3.554   0.938   0.700                        
 2672W        W19888   5.660  10.740   2.015                        
 2673W        W19889   7.792   2.999   3.276                        
 2674W        W19890   4.646  10.234   9.505                        
 2675W        W19891  11.481  10.201   8.629                        
 2676W        W19892   9.123   3.522   8.414                        
 2677W        W19893   0.448  13.089   0.109                        
 2678W        W19894   0.433   8.327   2.277                        
 2679W        W19895   0.717   7.780   0.079                        
 2680W        W19896  12.039   4.067   9.446                        
 2681W        W19897   2.479   0.358   2.844                        
 2682W        W19898   5.103   3.529   9.951                        
 2683W        W19899   8.116   3.609   3.393                        
 2684W        W19900  12.248   6.230  10.782                        
 2685W        W19901   5.979   7.063  11.300                        
 2686W        W19902   1.442  12.275  11.046                        
 2687W        W19903   5.649   2.487   9.448                        
 2688W        W19904   4.663   5.731   0.150                        
 2689W        W19905   9.371   7.830  10.821                        
 2690W        W19906   4.138   8.583   1.433                        
 2691W        W19907   3.294  13.667  11.623                        
 2692W        W19908   2.979  13.549   3.390                        
 2693W        W19909   8.330   9.437   2.063                        
 2694W        W19910   7.830   3.537   3.084                        
 2695W        W19911  11.497  11.977   3.386                        
 2696W        W19912   0.079   1.742   3.104                        
 2697W        W19913   4.880   9.077   1.230                        
 2698W        W19914   6.799  13.661   0.998                        
 2699W        W19915  12.288  11.733  10.540                        
 2700W        W19916   0.398  10.947   9.237                        
 2701W        W19917   0.409   5.178   7.899                        
 2702W        W19918   1.701   3.253   9.465                        
 2703W        W19919   0.438   8.826   9.239                        
 2704W        W19920   9.938   7.796   0.368                        
 2705W        W19921   8.603   4.565   8.998                        
 2706W        W19922  10.413   7.749  11.845                        
 2707W        W19923   2.031  10.375   1.773                        
 2708W        W19924   7.793   3.262   0.948                        
 2709W        W19925  11.515   4.096   3.299                        
 2710W        W19926   3.873   6.466  11.627                        
 2711W        W19927   0.412   6.936  10.572                        
 2712W        W19928   0.194   7.570   1.264                        
 2713W        W19929   5.187  12.323  11.862                        
 2714W        W19930  12.782   8.912   8.374                        
 2715W        W19931   3.606   1.782  10.785                        
 2716W        W19932  13.879   1.700   3.046                        
 2717W        W19933   6.720   1.959  10.276                        
 2718W        W19934   6.791   7.066  10.780                        
 2719W        W19935   0.399   1.209   0.930                        
 2720W        W19936  11.205   9.576  11.901                        
 2721W        W19937   3.308   3.269   9.450                        
 2722W        W19938   5.664   0.391   3.380                        
 2723W        W19939  12.847   0.705  10.286                        
 2724W        W19940   2.226   2.529  11.346                        
 2725W        W19941   4.094  13.136   2.067                        
 2726W        W19942  10.182  10.465  11.000                        
 2727W        W19943   1.715   2.545   2.796                        
 2728W        W19944   2.272   5.987   3.003                        
 2729W        W19945  13.920   3.047   2.046                        
 2730W        W19946   7.032   0.143   4.398                        
 2731W        W19947   2.448   7.469   3.629                        
 2732W        W19948  12.568   1.144   2.004                        
 2733W        W19949   0.615   5.624   9.466                        
 2734W        W19950   6.769   7.241   8.401                        
 2735W        W19951  11.526  12.035  11.283                        
 2736W        W19952  10.159   7.760   0.906                        
 2737W        W19953   1.181   8.819   1.186                        
 2738W        W19954   8.549   8.272  11.393                        
 2739W        W19955   7.202   4.082   1.164                        
 2740W        W19956   1.741   0.981   1.264                        
 2741W        W19957   8.385   8.304  11.347                        
 2742W        W19958   4.917   4.833  11.551                        
 2743W        W19959   9.325   6.506  11.066                        
 2744W        W19960   2.002   6.994   3.083                        
 2745W        W19961   9.362   2.732   2.816                        
 2746W        W19962   3.862  13.033   8.955                        
 2747W        W19963  11.449  10.188   1.418                        
 2748W        W19964   2.304  11.447  10.514                        
 2749W        W19965  11.018   9.407   1.188                        
 2750W        W19966  11.235   6.263   2.553                        
 2751W        W19967  11.713   6.520  10.062                        
 2752W        W19968   7.762   7.250   8.906                        
 2753W        W19969  12.033   5.210   8.894                        
 2754W        W19970   2.492  11.227   8.689                        
 2755W        W19971   3.571   8.051   8.665                        
 2756W        W19972  10.419  12.301  10.058                        
 2757W        W19973   0.630  13.812  10.826                        
 2758W        W19974   4.400   5.215   8.644                        
 2759W        W19975   5.395  12.326  10.494                        
 2760W        W19976  11.201   4.039   3.636                        
 2761W        W19977   9.686  10.693   1.753                        
 2762W        W19978   3.601   8.893  10.223                        
 2763W        W19979   9.680   7.239   9.461                        
 2764W        W19980   0.720   0.361   4.398                        
 2765W        W19981  13.014  12.591  10.809                        
 2766W        W19982  13.032   1.183   7.922                        
 2767W        W19983   8.113   9.367   9.936                        
 2768W        W19984  11.262  12.801   1.258                        
 2769W        W19985   9.873   7.857  10.056                        
 2770W        W19986   8.560   0.700   7.833                        
 2771W        W19987  10.677   2.238   8.732                        
 2772W        W19988  12.611   1.172   3.014                        
 2773W        W19989   7.238   2.742   8.414                        
 2774W        W19990   4.874  12.854  11.281                        
 2775W        W19991   5.920   8.368   8.446                        
 2776W        W19992   3.801   3.291   8.720                        
 2777W        W19993   0.689   7.562   0.132                        
 2778W        W19994   4.328   6.255   3.273                        
 2779W        W19995   7.023   4.892   9.201                        
 2780W        W19996  11.704   5.731   0.360                        
 2781W        W19997   5.724  11.179   0.969                        
 2782W        W19998   3.571   2.765   9.175                        
 2783W        W19999  13.366   3.526   8.447                        
 2784W        W20000   2.504   1.713   0.920                        
 2785W        W20001   9.144   3.549   9.702                        
 2786W        W20002  13.033   6.463   2.043                        
 2787W        W20003   3.532  13.840   3.382                        
 2788W        W20004   8.903  13.653   9.517                        
 2789W        W20005   5.647  10.494   8.727                        
 2790W        W20006  12.839  13.305   8.990                        
 2791W        W20007   7.310   5.088   4.193                        
 2792W        W20008   7.808   3.551  11.362                        
 2793W        W20009   2.506   8.547   2.522                        
 2794W        W20010   5.934  10.117  11.657                        
 2795W        W20011   4.391   4.951   2.480                        
 2796W        W20012   4.344   2.477  10.475                        
 2797W        W20013   0.380   7.571  11.030                        
 2798W        W20014  10.926   1.457   8.451                        
 2799W        W20015   5.996  13.403   3.082                        
 2800W        W20016   9.100   8.331  11.316                        
 2801W        W20017   5.473  13.329  10.820                        
 2802W        W20018  13.869   9.070   9.716                        
 2803W        W20019  11.507   5.146   8.654                        
 2804W        W20020  13.550   7.198  11.866                        
 2805W        W20021   3.581   1.681   8.178                        
 2806W        W20022   8.900   9.588   8.652                        
 2807W        W20023  10.419  11.023   0.869                        
 2808W        W20024   8.584   5.917   1.957                        
 2809W        W20025   7.795  12.485   0.368                        
 2810W        W20026   9.676   1.999   9.960                        
 2811W        W20027   7.811  13.576   0.415                        
 2812W        W20028  11.710   7.782   2.808                        
 2813W        W20029  13.372  13.110   4.080                        
 2814W        W20030   2.572  10.908  11.871                        
 2815W        W20031   2.555   1.985   0.999                        
 2816W        W20032   6.774  10.394   9.416                        
 2817W        W20033   5.986  12.048   1.703                        
 2818W        W20034  10.680  13.804   3.643                        
 2819W        W20035  10.405   3.574   1.782                        
 2820W        W20036   6.969   3.568   8.601                        
 2821W        W20037   3.841  11.490  10.827                        
 2822W        W20038   1.407  13.275   2.807                        
 2823W        W20039   0.884   8.909   0.160                        
 2824W        W20040   9.870   7.521   8.351                        
 2825W        W20041   0.072   0.639   9.150                        
 2826W        W20042  13.873  12.290   1.755                        
 2827W        W20043   5.445  13.123  11.538                        
 2828W        W20044   7.294   8.379   2.222                        
 2829W        W20045   7.062   1.995   8.442                        
 2830W        W20046   9.842  13.603   8.363                        
 2831W        W20047  11.182   5.182  11.036                        
 2832W        W20048   8.055  13.858   1.746                        
 2833W        W20049  12.299   0.335   8.924                        
 2834W        W20050   4.124   8.623   3.310                        
 2835W        W20051  11.481   7.755   8.411                        
 2836W        W20052   8.890   3.001   1.722                        
 2837W        W20053   9.343   8.377   3.559                        
 2838W        W20054   2.472   8.798   0.683                        
 2839W        W20055   5.157  12.246   3.054                        
 2840W        W20056  10.204   3.767   0.909                        
 2841W        W20057  10.159   4.325  10.318                        
 2842W        W20058   9.374   4.889  11.622                        
 2843W        W20059   5.903   0.976   3.631                        
 2844W        W20060   2.467   0.990   0.669                        
 2845W        W20061   3.815  13.337   2.281                        
 2846W        W20062   3.537   6.267   1.468                        
 2847W        W20063  10.410   8.106  10.768                        
 2848W        W20064   2.769   6.492   9.434                        
 2849W        W20065   1.766   0.137   9.939                        
 2850W        W20066  10.928   3.884   2.564                        
 2851W        W20067   1.493   3.059   8.673                        
 2852W        W20068   0.886   2.192  11.838                        
 2853W        W20069   5.715   4.875   3.383                        
 2854W        W20070   2.280   1.942  10.048                        
 2855W        W20071   9.901  11.025   0.359                        
 2856W        W20072  13.304  10.167   2.492                        
 2857W        W20073   7.763   0.409   3.109                        
 2858W        W20074   2.291  13.843   0.872                        
 2859W        W20075   8.294  12.587  10.300                        
 2860W        W20076   1.747   6.526   1.447                        
 2861W        W20077   0.371   5.171   2.767                        
 2862W        W20078   6.212   3.864   8.128                        
 2863W        W20079   7.026  12.036   3.641                        
 2864W        W20080   0.924  10.496  10.252                        
 2865W        W20081  10.160   2.993   8.946                        
 2866W        W20082   6.690   8.907   2.506                        
 2867W        W20083   4.077   4.584   0.454                        
 2868W        W20084   8.090   8.902  10.591                        
 2869W        W20085   3.621   4.037   3.816                        
 2870W        W20086   3.568   2.284   0.652                        
 2871W        W20087  12.580   6.525   3.310                        
 2872W        W20088   8.054   1.198  10.307                        
 2873W        W20089   3.021   0.884   3.917                        
 2874W        W20090  13.036   3.007   9.445                        
 2875W        W20091  13.357  12.595   3.360                        
 2876W        W20092   2.299  11.458   0.627                        
 2877W        W20093  10.651   3.557   0.081                        
 2878W        W20094  11.696   7.820   0.191                        
 2879W        W20095  12.050   0.402  10.315                        
 2880W        W20096  13.584   8.047   9.249                        
 2881W        W20097  13.285  11.438  11.872                        
 2882W        W20098  10.104   4.320   9.434                        
 2883W        W20099   9.631   7.535   9.980                        
 2884W        W20100   9.165  13.919   1.202                        
 2885W        W20101   9.901   2.501   9.768                        
 2886W        W20102   8.122   6.192   1.737                        
 2887W        W20103  12.283   3.568   0.189                        
 2888W        W20104   5.114   0.691   1.723                        
 2889W        W20105   3.354  12.320   3.280                        
 2890W        W20106  12.018   3.857   1.214                        
 2891W        W20107  12.594  12.563   8.460                        
 2892W        W20108  11.201  13.071   1.423                        
 2893W        W20109   6.227   8.052  11.888                        
 2894W        W20110  13.897   8.096   0.936                        
 2895W        W20111  10.486  12.572   9.784                        
 2896W        W20112  12.873   4.665  10.837                        
 2897W        W20113   4.064   8.913   1.458                        
 2898W        W20114   3.036  12.220   0.380                        
 2899W        W20115   8.008   4.586  10.591                        
 2900W        W20116   7.481   0.984   0.375                        
 2901W        W20117  13.073   8.372   8.980                        
 2902W        W20118   8.535   9.886   9.238                        
 2903W        W20119   3.528   5.943  10.244                        
 2904W        W20120   4.085   3.600   2.215                        
 2905W        W20121   5.699   8.545   0.628                        
 2906W        W20122   5.398  13.893   9.734                        
 2907W        W20123   8.909   9.391   8.414                        
 2908W        W20124  10.718   8.572   3.304                        
 2909W        W20125   6.796   3.356   9.969                        
 2910W        W20126   3.559   5.976   2.315                        
 2911W        W20127  11.748   5.466  11.581                        
 2912W        W20128   9.441   5.427   8.633                        
 2913W        W20129  13.595   3.239   2.247                        
 2914W        W20130   2.255  10.474   1.249                        
 2915W        W20131  10.759   4.060  10.054                        
 2916W        W20132   7.570   7.993  11.116                        
 2917W        W20133  10.638   0.628   3.605                        
 2918W        W20134   2.773  10.159   9.682                        
 2919W        W20135   0.355  12.533   3.100                        
 2920W        W20136   7.778   6.424   3.030                        
 2921W        W20137   2.249   0.153  10.224                        
 2922W        W20138   4.676   0.438  10.254                        
 2923W        W20139  12.875   6.934   3.622                        
 2924W        W20140   9.329   1.511   2.801                        
 2925W        W20141   7.475  11.292  10.509                        
 2926W        W20142   8.068   1.412   0.881                        
 2927W        W20143   9.624   3.334   9.701                        
 2928W        W20144  10.454   2.029   0.625                        
 2929W        W20145  13.109  11.716   9.682                        
 2930W        W20146   2.723   0.110   9.175                        
 2931W        W20147   7.508   0.630   8.186                        
 2932W        W20148   0.676   9.922   2.481                        
 2933W        W20149   5.176  10.716   1.486                        
 2934W        W20150  11.003   3.833  11.340                        
 2935W        W20151  11.998   6.521   2.482                        
 2936W        W20152   8.813   6.796   2.016                        
 2937W        W20153   5.699   7.325  11.572                        
 2938W        W20154   2.038   3.787   2.258                        
 2939W        W20155   5.430   8.301   2.055                        
 2940W        W20156  11.965  12.576  10.807                        
 2941W        W20157   5.693   0.957   3.555                        
 2942W        W20158   8.110  13.095  10.492                        
 2943W        W20159   7.226  12.589  11.625                        
 2944W        W20160  13.539   2.772  11.656                        
 2945W        W20161  11.262  11.162   8.997                        
 2946W        W20162   3.554  10.711   0.440                        
 2947W        W20163  12.243  12.556   8.725                        
 2948W        W20164  10.956   3.072   9.798                        
 2949W        W20165   3.540   4.598   9.208                        
 2950W        W20166   9.965   7.289  11.365                        
 2951W        W20167   3.043   1.974   1.253                        
 2952W        W20168   3.243   1.921   8.672                        
 2953W        W20169   9.067   3.301  10.299                        
 2954W        W20170   8.044   5.182   3.088                        
 2955W        W20171  13.388  11.747   2.029                        
 2956W        W20172   8.062   9.054   3.597                        
 2957W        W20173   8.835   3.315   8.436                        
 2958W        W20174   1.473  11.436   1.945                        
 2959W        W20175  13.844   5.924   1.492                        
 2960W        W20176   4.661   6.522  11.893                        
 2961W        W20177   1.671   1.466   8.606                        
 2962W        W20178   8.310  13.134   1.448                        
 2963W        W20179   4.404   4.682  11.916                        
 2964W        W20180  10.677   1.958  10.794                        
 2965W        W20181  11.780   8.361   9.495                        
 2966W        W20182   7.757  13.342  11.324                        
 2967W        W20183   4.891   1.167   0.928                        
 2968W        W20184   5.723   1.128   3.333                        
 2969W        W20185   8.582  11.716  10.824                        
 2970W        W20186  13.921   6.170   1.486                        
 2971W        W20187   4.614   8.795   3.278                        
 2972W        W20188   4.047   4.063   8.654                        
 2973W        W20189   7.760   5.683   0.649                        
 2974W        W20190   7.029   2.286   7.648                        
 2975W        W20191  11.711   7.033   2.497                        
 2976W        W20192   1.192  11.982   2.742                        
 2977W        W20193   3.799  12.877   0.922                        
 2978W        W20194   6.714  13.620   3.593                        
 2979W        W20195   6.762   7.321   1.981                        
 2980W        W20196   4.376   8.379   3.117                        
 2981W        W20197   8.649   1.145  11.852                        
 2982W        W20198   7.573   8.891  10.801                        
 2983W        W20199   0.959   1.210   0.883                        
 2984W        W20200  13.832   7.046  10.804                        
 2985W        W20201   2.273   8.589   8.993                        
 2986W        W20202   6.764  10.648   1.773                        
 2987W        W20203   2.483  12.774  10.507                        
 2988W        W20204   8.355   8.345  11.886                        
 2989W        W20205  13.010  12.239  11.067                        
 2990W        W20206   3.827  11.266  11.640                        
 2991W        W20207   7.842   7.747   2.223                        
 2992W        W20208   2.037   2.282   8.427                        
 2993W        W20209   4.622   8.113   7.564                        
 2994W        W20210   6.733   1.668  11.276                        
 2995W        W20211   3.340   7.592   2.311                        
 2996W        W20212  11.202  10.401   2.854                        
 2997W        W20213   6.744   4.601   3.329                        
 2998W        W20214   6.791   9.954   3.042                        
 2999W        W20215  10.953   8.585   8.944                        
 3000W        W20216   1.761  10.121   9.409                        
 3001W        W20217   1.500  12.219   9.139                        
 3002W        W20218  10.499   1.783   9.779                        
 3003W        W20219   2.758  13.582   1.221                        
 3004W        W20220  11.438   8.271   9.716                        
 3005W        W20221   9.866   5.642   8.637                        
 3006W        W20222  12.217   4.044   2.788                        
 3007W        W20223   3.062  11.494   8.684                        
 3008W        W20224   4.848   9.645  11.661                        
 3009W        W20225  10.708  12.270   9.406                        
 3010W        W20226  13.351   9.853   9.993                        
 3011W        W20227   4.401  13.875  10.223                        
 3012W        W20228   7.472  11.450  10.484                        
 3013W        W20229   0.125   7.302  11.547                        
 3014W        W20230  11.203  10.650   3.580                        
 3015W        W20231   2.241   0.908  11.559                        
 3016W        W20232  10.660   2.224   9.182                        
 3017W        W20233  12.285   9.168   0.340                        
 3018W        W20234   6.748   3.870   2.760                        
 3019W        W20235   8.640   3.367   2.225                        
 3020W        W20236   6.734   1.206   2.777                        
 3021W        W20237   7.817   4.825   2.547                        
 3022W        W20238  13.080   1.700   9.950                        
 3023W        W20239   8.085  11.748   9.741                        
 3024W        W20240   2.205  13.381   2.600                        
 3025W        W20241   6.505   6.247   4.338                        
 3026W        W20242   4.418  10.413   1.421                        
 3027W        W20243   4.087   2.527  11.006                        
 3028W        W20244   2.512   5.993  10.059                        
 3029W        W20245   6.006   6.243  10.048                        
 3030W        W20246  11.485   6.948  10.801                        
 3031W        W20247   4.333   5.131   0.174                        
 3032W        W20248   3.583  13.624  10.515                        
 3033W        W20249   5.914   3.241   2.773                        
 3034W        W20250   8.564  11.999   3.348                        
 3035W        W20251   5.951   9.439   1.446                        
 3036W        W20252   1.674   0.687   3.308                        
 3037W        W20253   6.527   2.749  11.315                        
 3038W        W20254   6.190  10.128   0.365                        
 3039W        W20255   9.334  12.293   3.288                        
 3040W        W20256   4.661   0.363   0.190                        
 3041W        W20257   3.533   8.544   7.540                        
 3042W        W20258   7.832  11.028   1.733                        
 3043W        W20259   6.007   1.660   1.212                        
 3044W        W20260  10.147   3.079  11.100                        
 3045W        W20261   7.785   5.961  10.038                        
 3046W        W20262   3.276   0.145  10.259                        
 3047W        W20263  12.056   6.529  11.835                        
 3048W        W20264   4.371   5.924   7.823                        
 3049W        W20265  11.506   7.280   1.226                        
 3050W        W20266   8.035   5.199   9.231                        
 3051W        W20267  10.369   2.823   3.133                        
 3052W        W20268  13.578  12.033   3.579                        
 3053W        W20269   5.387   0.643   2.753                        
 3054W        W20270  12.228  11.429  11.318                        
 3055W        W20271  11.244  13.027   9.971                        
 3056W        W20272   6.423   4.327   9.496                        
 3057W        W20273  13.042   4.872   1.158                        
 3058W        W20274  12.224   8.598   3.129                        
 3059W        W20275   8.314  10.762   1.167                        
 3060W        W20276   2.573  10.970   0.662                        
 3061W        W20277   8.568   3.078   1.500                        
 3062W        W20278   5.376   8.614   2.293                        
 3063W        W20279   4.603   8.625   1.471                        
 3064W        W20280   8.863   2.482   2.846                        
 3065W        W20281   2.244  13.398   8.131                        
 3066W        W20282   6.981   4.612   3.929                        
 3067W        W20283  13.091   8.592   0.385                        
 3068W        W20284   0.600   0.383   9.506                        
 3069W        W20285  11.273   9.944   2.780                        
 3070W        W20286   3.247   1.672  10.769                        
 3071W        W20287   2.974   3.800  10.734                        
 3072W        W20288   2.187   0.155  11.647                        
 3073W        W20289  11.698  10.414   2.045                        
 3074W        W20290  13.554  12.349  10.518                        
 3075W        W20291   7.746   4.100   3.029                        
 3076W        W20292   2.294   0.622   9.670                        
 3077W        W20293   7.018   5.132  10.819                        
 3078W        W20294  13.339   2.200   1.259                        
 3079W        W20295  13.614   0.945   9.136                        
 3080W        W20296   9.669   8.028  10.022                        
 3081W        W20297   2.185  12.009   9.153                        
 3082W        W20298   9.433   8.892   3.330                        
 3083W        W20299   1.236   8.109   3.665                        
 3084W        W20300  13.404   0.343   2.524                        
 3085W        W20301   1.140   0.935   8.621                        
 3086W        W20302   4.593   8.885   0.875                        
 3087W        W20303   5.618   3.035   8.402                        
 3088W        W20304   7.833  13.303   3.536                        
 3089W        W20305   3.801   2.808   8.393                        
 3090W        W20306   3.614  12.068   8.102                        
 3091W        W20307   8.788   7.230   9.785                        
 3092W        W20308  13.389   4.824   9.997                        
 3093W        W20309  11.002  13.365   3.611                        
 3094W        W20310  10.121  12.485  11.036                        
 3095W        W20311   9.062  13.617   2.847                        
 3096W        W20312   0.161  10.184   2.485                        
 3097W        W20313   5.696  12.562   9.472                        
 3098W        W20314  11.289   2.546   9.516                        
 3099W        W20315  10.140   2.808   2.204                        
 3100W        W20316  13.876   1.740   9.796                        
 3101W        W20317   6.963  12.346   8.731                        
 3102W        W20318   9.617   1.924   1.938                        
 3103W        W20319   6.481   0.103   8.461                        
 3104W        W20320   5.722   5.667   9.512                        
 3105W        W20321   2.551   5.147   8.878                        
 3106W        W20322   9.102   9.070   3.633                        
 3107W        W20323   5.933  13.349  11.026                        
 3108W        W20324  10.226   5.967   9.166                        
 3109W        W20325  13.305  13.918  11.613                        
 3110W        W20326  10.151   7.528   2.036                        
 3111W        W20327  13.373   6.956   2.293                        
 3112W        W20328   4.306  10.410   8.667                        
 3113W        W20329   0.877   9.145   8.365                        
 3114W        W20330  12.842   6.005  10.818                        
 3115W        W20331  12.545   8.098   3.098                        
 3116W        W20332   3.536   1.976   0.436                        
 3117W        W20333   5.401   9.866  11.661                        
 3118W        W20334   3.000  13.608   0.631                        
 3119W        W20335   3.584  11.454   0.174                        
 3120W        W20336   7.524   0.431  10.054                        
 3121W        W20337  13.905   8.060   3.023                        
 3122W        W20338   4.623   7.734  10.543                        
 3123W        W20339  13.037  11.006  10.236                        
 3124W        W20340   0.718  11.762   1.704                        
 3125W        W20341   6.990   2.738   3.569                        
 3126W        W20342   5.145   9.098   9.455                        
 3127W        W20343   9.621   1.514  11.393                        
 3128W        W20344  13.650   0.935   1.432                        
 3129W        W20345  12.748   6.968  10.213                        
 3130W        W20346  12.310   7.751   3.337                        
 3131W        W20347  11.207   1.134  10.018                        
 3132W        W20348   3.338   5.974   8.644                        
 3133W        W20349   4.616   4.362   2.831                        
 3134W        W20350   5.401   5.991   9.789                        
 3135W        W20351  11.233  10.712   8.679                        
 3136W        W20352  10.457  12.314  11.537                        
 3137W        W20353   2.020  11.815   0.156                        
 3138W        W20354   5.661   3.271   8.336                        
 3139W        W20355  13.658   1.230   8.367                        
 3140W        W20356  11.225   9.587  11.600                        
 3141W        W20357  13.056  13.375   0.196                        
 3142W        W20358   5.399  10.646   1.233                        
 3143W        W20359   0.681  11.016   2.496                        
 3144W        W20360  12.528   0.919   9.795                        
 3145W        W20361   3.858   3.271   8.980                        
 3146W        W20362   1.476  13.398   0.374                        
 3147W        W20363   0.175  12.055   2.018                        
 3148W        W20364  13.906  11.213   9.178                        
 3149W        W20365   7.730   0.355  11.079                        
 3150W        W20366   6.183   9.128   1.444                        
 3151W        W20367   1.932   4.653  11.650                        
 3152W        W20368   3.856   8.322   0.674                        
 3153W        W20369   7.533   9.880  10.226                        
 3154W        W20370  10.691  12.223   8.163                        
 3155W        W20371   9.580  10.375   2.746                        
 3156W        W20372   2.790   5.616   2.593                        
 3157W        W20373   8.807   5.431   2.266                        
 3158W        W20374   9.415  11.462   1.462                        
 3159W        W20375  13.848  10.235  11.856                        
 3160W        W20376  11.279   0.410   0.178                        
 3161W        W20377  13.544   7.317   3.281                        
 3162W        W20378   0.399   6.680  10.317                        
 3163W        W20379   0.383  12.072   8.662                        
 3164W        W20380   3.247   6.769   0.091                        
 3165W        W20381   8.121  13.822  10.863                        
 3166W        W20382   7.474   1.393  11.028                        
 3167W        W20383   9.622   3.092   0.946                        
 3168W        W20384   2.205   4.852  10.825                        
 3169W        W20385  13.283   8.303  11.305                        
 3170W        W20386   5.162  13.864   8.994                        
 3171W        W20387   2.547  12.482   0.134                        
 3172W        W20388   1.129  12.536  10.469                        
 3173W        W20389  12.767   6.493   0.606                        
 3174W        W20390   7.044   6.706   0.954                        
 3175W        W20391  12.866   0.911   8.657                        
 3176W        W20392  11.467  11.476   1.788                        
 3177W        W20393   4.844   6.995   1.136                        
 3178W        W20394   9.391   2.575  11.594                        
 3179W        W20395   2.984   3.850  10.010                        
 3180W        W20396   0.865  10.396   2.000                        
 3181W        W20397   8.605   2.265   2.559                        
 3182W        W20398   2.807   3.609   1.990                        
 3183W        W20399  10.731   9.703   1.759                        
 3184W        W20400   2.249   9.854   3.101                        
 3185W        W20401   8.040   9.393  10.252                        
 3186W        W20402  10.965   5.097   7.873                        
 3187W        W20403   2.040   6.262   9.711                        
 3188W        W20404   7.231   3.517   0.386                        
 3189W        W20405   9.403   1.997   2.552                        
 3190W        W20406  10.734   8.899   2.563                        
 3191W        W20407  11.247   8.611   8.993                        
 3192W        W20408  10.749   3.615   0.445                        
 3193W        W20409   9.971   5.661   9.182                        
 3194W        W20410   3.568  11.277  11.552                        
 3195W        W20411   7.555  12.075   9.497                        
 3196W        W20412   1.684   5.148   8.110                        
 3197W        W20413   8.821  10.924   1.936                        
 3198W        W20414   5.711  13.018   0.439                        
 3199W        W20415   0.609  11.425   0.972                        
 3200W        W20416   8.880   2.520   3.612                        
 3201W        W20417   0.929   8.380   9.230                        
 3202W        W20418  11.455   5.901   1.745                        
 3203W        W20419   5.741  12.869   3.595                        
 3204W        W20420   8.839   5.396   3.612                        
 3205W        W20421   2.776   5.400   1.789                        
 3206W        W20422  10.465  13.018  11.079                        
 3207W        W20423   7.995  13.336   2.489                        
 3208W        W20424   6.955   1.708   3.535                        
 3209W        W20425  12.865   5.154  10.828                        
 3210W        W20426   8.800  11.191   2.234                        
 3211W        W20427  11.479  12.238  10.557                        
 3212W        W20428   7.783   0.987  10.205                        
 3213W        W20429   1.177   0.440   9.692                        
 3214W        W20430   4.297   4.074  11.599                        
 3215W        W20431   2.999   2.549   2.027                        
 3216W        W20432   5.899   4.897   2.796                        
 3217W        W20433   6.451   9.916   2.472                        
 3218W        W20434   4.566   4.346   9.975                        
 3219W        W20435   2.283   4.947   2.307                        
 3220W        W20436  13.887   7.510   0.712                        
 3221W        W20437   8.825  12.252   0.456                        
 3222W        W20438   7.823   7.499   0.623                        
 3223W        W20439  12.522   5.890   2.048                        
 3224W        W20440   7.770   0.176  10.259                        
 3225W        W20441  13.851   9.850  11.588                        
 3226W        W20442  12.838   6.965  11.379                        
 3227W        W20443  11.999  11.165   2.791                        
 3228W        W20444   0.885   8.634   8.935                        
 3229W        W20445   0.672   4.392   3.071                        
 3230W        W20446   6.225   1.957   2.324                        
 3231W        W20447   9.657   4.107   2.269                        
 3232W        W20448   8.307  13.605  10.287                        
 3233W        W20449   1.751   4.087   9.707                        
 3234W        W20450   7.751   6.980   9.746                        
 3235W        W20451  13.550   8.643   3.612                        
 3236W        W20452   5.111  10.705   0.880                        
 3237W        W20453   0.402   0.153   1.989                        
 3238W        W20454  12.249   5.673   0.691                        
 3239W        W20455   7.258  13.396   9.241                        
 3240W        W20456  13.843   4.634  10.802                        
 3241W        W20457   6.980   7.565  10.576                        
 3242W        W20458   3.856  10.727  10.207                        
 3243W        W20459   3.541   0.705   3.594                        
 3244W        W20460   7.268   1.752  10.565                        
 3245W        W20461   8.032  10.688   1.193                        
 3246W        W20462   0.374   1.398  10.027                        
 3247W        W20463   8.640   2.732   9.772                        
 3248W        W20464   1.686  11.550   1.406                        
 3249W        W20465   6.701   3.850   1.469                        
 3250W        W20466   7.254   5.154   9.155                        
 3251W        W20467   1.442   0.884   9.180                        
 3252W        W20468   0.672  13.013  10.215                        
 3253W        W20469   7.213   0.167   2.203                        
 3254W        W20470   4.100   7.240   0.155                        
 3255W        W20471   5.691  12.028   9.776                        
 3256W        W20472   5.706   3.264   0.361                        
 3257W        W20473   1.982   5.119  11.295                        
 3258W        W20474   5.457  13.343  10.325                        
 3259W        W20475   3.622   3.883  10.741                        
 3260W        W20476   2.543  10.119   8.705                        
 3261W        W20477  10.949   5.901  11.344                        
 3262W        W20478   1.476   9.333   3.019                        
 3263W        W20479  13.016   3.259   1.459                        
 3264W        W20480   5.149  12.345   1.499                        
 3265W        W20481  12.580   2.817   9.686                        
 3266W        W20482   7.734   5.442  11.296                        
 3267W        W20483   5.161   8.802   2.471                        
 3268W        W20484   4.135   3.238   0.730                        
 3269W        W20485   3.504   6.500   3.538                        
 3270W        W20486  10.121   9.881   0.402                        
 3271W        W20487   7.767   4.919   9.170                        
 3272W        W20488  10.136   5.369   7.662                        
 3273W        W20489   6.253   9.623  10.767                        
 3274W        W20490  12.517   0.398   7.872                        
 3275W        W20491   8.369   8.362   2.784                        
 3276W        W20492   2.012  11.992   9.678                        
 3277W        W20493   4.038   0.922   8.659                        
 3278W        W20494   4.361   8.525   9.982                        
 3279W        W20495  11.773   4.829   2.259                        
 3280W        W20496   4.121  11.227   1.138                        
 3281W        W20497  12.569   1.963  11.365                        
 3282W        W20498   8.302   9.594   9.737                        
 3283W        W20499   9.845   9.941  10.273                        
 3284W        W20500   9.117   5.961   2.563                        
 3285W        W20501   7.765   5.942   0.451                        
 3286W        W20502   8.574   2.287   0.088                        
 3287W        W20503   4.418  10.166   1.692                        
 3288W        W20504   3.810   2.266  10.230                        
 3289W        W20505   4.952   8.844   1.522                        
 3290W        W20506   2.217   8.845  11.273                        
 3291W        W20507   7.580   7.508   3.277                        
 3292W        W20508  12.793  10.122   4.402                        
 3293W        W20509   2.038   5.673   1.514                        
 3294W        W20510  13.846   0.122   1.514                        
 3295W        W20511   5.412   9.145  10.526                        
 3296W        W20512   1.771   5.940   9.710                        
 3297W        W20513   7.478  11.288   0.168                        
 3298W        W20514  10.210   6.981  10.284                        
 3299W        W20515  10.919  13.337   3.120                        
 3300W        W20516   6.528   3.036  11.300                        
 3301W        W20517   3.570   9.165  10.302                        
 3302W        W20518   2.763   2.743   0.368                        
 3303W        W20519  13.069   3.080  11.398                        
 3304W        W20520  10.159   9.327   0.439                        
 3305W        W20521   9.696   0.446   0.390                        
 3306W        W20522   7.316  11.709   8.393                        
 3307W        W20523   2.740   4.562   0.673                        
 3308W        W20524   4.599   8.905   0.456                        
 3309W        W20525  12.021  10.688   0.445                        
 3310W        W20526   8.604  11.443   9.439                        
 3311W        W20527   9.088   8.066   1.962                        
 3312W        W20528   6.458   1.131   7.593                        
 3313W        W20529  10.494   5.111   9.165                        
 3314W        W20530  13.847  13.579  11.827                        
 3315W        W20531   2.252   7.290   2.207                        
 3316W        W20532  10.374  12.004   2.527                        
 3317W        W20533   4.829   0.976   8.708                        
 3318W        W20534   0.903   0.964   0.720                        
 3319W        W20535   5.180   9.152  10.041                        
 3320W        W20536  10.413   7.820  11.286                        
 3321W        W20537  11.955   6.142   2.745                        
 3322W        W20538   5.461  10.203  11.287                        
 3323W        W20539   9.873  13.383   9.139                        
 3324W        W20540  10.681   2.272   9.716                        
 3325W        W20541   3.564   6.947   1.698                        
 3326W        W20542   4.046   4.096   0.903                        
 3327W        W20543   3.256  13.887   9.214                        
 3328W        W20544  10.385  12.562   8.695                        
 3329W        W20545   8.883  13.879   7.880                        
 3330W        W20546   2.820   8.630  11.626                        
 3331W        W20547   9.925  12.581   2.318                        
 3332W        W20548   6.155   1.418  10.270                        
 3333W        W20549   8.908   2.014  11.554                        
 3334W        W20550   1.403   6.749   1.709                        
 3335W        W20551   1.715   9.340  11.618                        
 3336W        W20552   0.455   4.943  11.017                        
 3337W        W20553   1.916   1.710   8.614                        
 3338W        W20554   5.176   2.516   1.724                        
 3339W        W20555  11.548   8.844   9.940                        
 3340W        W20556   1.198   0.442   8.981                        
 3341W        W20557   5.672   8.373   0.118                        
 3342W        W20558   9.894  13.616   9.510                        
 3343W        W20559   0.367   0.453   2.858                        
 3344W        W20560  13.618  13.874  10.543                        
 3345W        W20561   4.875  11.481   3.023                        
 3346W        W20562  12.756   8.873   4.170                        
 3347W        W20563  10.759   3.261   0.733                        
 3348W        W20564   1.715   3.260   2.532                        
 3349W        W20565  10.679   1.166   9.235                        
 3350W        W20566  12.225   8.829  11.853                        
 3351W        W20567   3.858   8.897   3.023                        
 3352W        W20568   3.804   7.204   2.308                        
 3353W        W20569   6.780  10.945   0.919                        
 3354W        W20570   2.803   5.447   1.524                        
 3355W        W20571  12.844   3.538  11.070                        
 3356W        W20572   7.821   7.471   2.485                        
 3357W        W20573  13.024   3.889   3.284                        
 3358W        W20574   2.727   7.466   8.610                        
 3359W        W20575   0.886   9.923   2.209                        
 3360W        W20576   3.348   7.214  11.021                        
 3361W        W20577  12.317   1.394   9.978                        
 3362W        W20578   4.644   9.689   4.170                        
 3363W        W20579   3.599   9.425   9.163                        
 3364W        W20580  11.457   1.956  11.271                        
 3365W        W20581   2.004  12.525   1.979                        
 3366W        W20582   5.393   8.572   0.972                        
 3367W        W20583   5.436   1.767   9.763                        
 3368W        W20584   5.425   6.163   0.693                        
 3369W        W20585   9.347   7.027   8.950                        
 3370W        W20586   8.315   6.477   9.215                        
 3371W        W20587   6.949   3.592   2.021                        
 3372W        W20588   2.290  10.500   3.895                        
 3373W        W20589   1.502  10.369  10.484                        
 3374W        W20590   2.503   1.767   3.590                        
 3375W        W20591   0.091  10.135   9.701                        
 3376W        W20592   9.088   0.457   8.672                        
 3377W        W20593  13.634  13.863  11.358                        
 3378W        W20594   9.673  10.187   3.351                        
 3379W        W20595  11.232   8.001  11.917                        
 3380W        W20596   2.304   2.488   1.434                        
 3381W        W20597   0.097   0.662   3.068                        
 3382W        W20598   5.962   5.970   9.222                        
 3383W        W20599   1.938  13.552  10.598                        
 3384W        W20600  12.751  11.178  10.032                        
 3385W        W20601   0.083   5.201   8.448                        
 3386W        W20602   5.992   6.973   3.336                        
 3387W        W20603   5.204   2.022   3.580                        
 3388W        W20604   7.823   4.040  10.305                        
 3389W        W20605   9.052  11.025  11.661                        
 3390W        W20606   4.414  12.795   3.559                        
 3391W        W20607   2.197   4.378  10.776                        
 3392W        W20608   8.819  13.613   1.259                        
 3393W        W20609  10.137   5.139   0.123                        
 3394W        W20610   1.237   4.650   3.660                        
 3395W        W20611   6.414  10.680   1.138                        
 3396W        W20612   4.375   9.651   1.415                        
 3397W        W20613  13.904   7.281   1.261                        
 3398W        W20614  11.957   3.282   8.987                        
 3399W        W20615   6.519   6.218   0.336                        
 3400W        W20616   5.931   5.371   1.694                        
 3401W        W20617   7.737   1.748   2.321                        
 3402W        W20618   2.205   9.149   3.046                        
 3403W        W20619  11.027   7.476   3.552                        
 3404W        W20620  12.843   3.857   1.220                        
 3405W        W20621  12.313   0.642  10.582                        
 3406W        W20622   8.537  11.482   3.108                        
 3407W        W20623   5.155   5.672   2.279                        
 3408W        W20624   7.049   7.053   0.694                        
 3409W        W20625   5.383   9.343   3.640                        
 3410W        W20626   2.449   3.022   9.493                        
 3411W        W20627   7.029  13.318   0.456                        
 3412W        W20628   8.548   7.803   3.642                        
 3413W        W20629   8.076   0.448  11.013                        
 3414W        W20630   6.192   2.285   3.284                        
 3415W        W20631  12.003   7.478   9.405                        
 3416W        W20632   9.598   9.075   2.552                        
 3417W        W20633  13.932   9.906   9.983                        
 3418W        W20634   7.238  10.908  11.348                        
 3419W        W20635  12.069   0.360   7.644                        
 3420W        W20636   5.665  11.435   0.156                        
 3421W        W20637  12.274   1.488   1.431                        
 3422W        W20638   2.212   7.310   8.710                        
 3423W        W20639   9.141  11.721   8.919                        
 3424W        W20640   2.503   9.585  10.516                        
 3425W        W20641   8.300  13.830   9.459                        
 3426W        W20642  12.564   7.525   1.138                        
 3427W        W20643  11.244   7.023   3.068                        
 3428W        W20644   3.341   4.122   4.417                        
 3429W        W20645  12.534   0.891   1.506                        
 3430W        W20646   9.701  11.176   0.634                        
 3431W        W20647   9.872   0.974   0.938                        
 3432W        W20648   1.955   1.752   8.420                        
 3433W        W20649  10.933   6.143   3.048                        
 3434W        W20650   3.509   2.734   1.797                        
 3435W        W20651   6.406   0.981   0.346                        
 3436W        W20652   1.670   2.181  10.579                        
 3437W        W20653   2.811  12.785  11.845                        
 3438W        W20654  12.582   8.347  10.478                        
 3439W        W20655   8.563   6.186   8.972                        
 3440W        W20656   5.956   1.728   0.465                        
 3441W        W20657  13.396   8.386   1.789                        
 3442W        W20658   6.680   9.705   0.723                        
 3443W        W20659   9.112   1.479   9.990                        
 3444W        W20660   3.061  11.819  10.063                        
 3445W        W20661   6.181   1.447   8.134                        
 3446W        W20662   4.109   0.391   9.178                        
 3447W        W20663   2.220  10.636   1.257                        
 3448W        W20664  13.540   2.547   1.689                        
 3449W        W20665  12.837   6.782   1.469                        
 3450W        W20666   0.168   1.231   0.185                        
 3451W        W20667   1.197   8.894  10.519                        
 3452W        W20668   4.402   5.924   0.926                        
 3453W        W20669   4.395   3.777   0.403                        
 3454W        W20670   6.228   9.847  11.297                        
 3455W        W20671   9.967   8.910  10.304                        
 3456W        W20672   8.043   1.754   4.410                        
 3457W        W20673  13.016   0.938   1.980                        
 3458W        W20674   4.871   7.580   3.398                        
 3459W        W20675   3.612   7.236   2.017                        
 3460W        W20676   7.520   7.199   1.968                        
 3461W        W20677   3.612   4.376   3.882                        
 3462W        W20678   1.435   0.140   2.212                        
 3463W        W20679   6.739   3.034  11.538                        
 3464W        W20680   6.227   0.982   4.187                        
 3465W        W20681  10.183   3.083   8.341                        
 3466W        W20682   4.408   7.310  11.836                        
 3467W        W20683   0.608   9.152  10.734                        
 3468W        W20684   8.307   2.791   1.721                        
 3469W        W20685   7.241   8.897   8.434                        
 3470W        W20686   8.009   4.036  11.630                        
 3471W        W20687   2.019   6.466   8.967                        
 3472W        W20688  10.140  13.009   0.361                        
 3473W        W20689   1.460   6.206   0.128                        
 3474W        W20690   2.257   8.357   9.407                        
 3475W        W20691   3.771  13.858   0.971                        
 3476W        W20692   4.155   0.130   0.442                        
 3477W        W20693   4.099  13.010  10.275                        
 3478W        W20694   6.154   0.401   1.730                        
 3479W        W20695  10.455  10.914   1.716                        
 3480W        W20696  10.410   3.257  10.323                        
 3481W        W20697   4.680   2.757  10.002                        
 3482W        W20698   6.477   1.387  10.518                        
 3483W        W20699   0.171  10.200   1.215                        
 3484W        W20700   3.311   5.947   2.852                        
 3485W        W20701  10.992   4.630   3.642                        
 3486W        W20702   4.076   5.416   1.995                        
 3487W        W20703   9.932   3.337   8.675                        
 3488W        W20704   8.873   2.000   2.284                        
 3489W        W20705   4.032   5.156   8.377                        
 3490W        W20706   8.045   7.822  10.275                        
 3491W        W20707  12.500   6.783   9.956                        
 3492W        W20708   0.146   4.316   3.093                        
 3493W        W20709   3.329   3.280   8.448                        
 3494W        W20710  13.404  10.725   2.037                        
 3495W        W20711   2.476   1.246   9.489                        
 3496W        W20712   7.830   4.905   1.735                        
 3497W        W20713  10.934   6.177  10.297                        
 3498W        W20714   8.816   8.643   9.705                        
 3499W        W20715   3.521  13.855   1.515                        
 3500W        W20716   6.977   1.777   8.140                        
 3501W        W20717  13.883   6.222   8.656                        
 3502W        W20718   7.745   5.355  10.302                        
 3503W        W20719   2.009   0.347  11.366                        
 3504W        W20720   3.095   1.665  10.286                        
 3505W        W20721   5.176  12.023   1.414                        
 3506W        W20722  13.810   4.575   9.171                        
 3507W        W20723   9.164   9.678   2.516                        
 3508W        W20724   5.891   4.583  10.843                        
 3509W        W20725  13.665  13.319   2.782                        
 3510W        W20726  12.001   7.993   3.003                        
 3511W        W20727   9.331   4.333  11.036                        
 3512W        W20728   6.948   7.753  11.062                        
 3513W        W20729   3.768   5.474   3.852                        
 3514W        W20730   2.784   8.581   0.693                        
 3515W        W20731  13.883  10.645   0.889                        
 3516W        W20732   5.400   1.394   0.612                        
 3517W        W20733   7.765   4.875   8.881                        
 3518W        W20734   9.361   7.528   8.419                        
 3519W        W20735   9.592   5.956   8.351                        
 3520W        W20736   8.049  13.902   8.460                        
 3521W        W20737   0.988   2.014   1.756                        
 3522W        W20738   0.444   7.747   2.254                        
 3523W        W20739  12.535  11.996  10.252                        
 3524W        W20740   5.462   5.366  10.539                        
 3525W        W20741   6.979   8.325   7.870                        
 3526W        W20742   3.801  13.862  11.618                        
 3527W        W20743   8.327  11.479  11.827                        
 3528W        W20744   8.057   0.185   7.596                        
 3529W        W20745   9.610   9.624  11.817                        
 3530W        W20746   2.793  13.140   8.659                        
 3531W        W20747   2.210   2.761   2.011                        
 3532W        W20748   2.188   5.147   9.454                        
 3533W        W20749  10.200   7.324  11.609                        
 3534W        W20750   9.930   7.574  11.573                        
 3535W        W20751   6.481   2.003   2.863                        
 3536W        W20752   4.049   4.941   9.474                        
 3537W        W20753   9.617  10.395   3.924                        
 3538W        W20754   9.695   9.901  10.286                        
 3539W        W20755   4.096   5.648   8.620                        
 3540W        W20756   6.193   4.061   8.986                        
 3541W        W20757   0.407   5.421   8.709                        
 3542W        W20758  11.227   4.149   3.821                        
 3543W        W20759  13.880   4.158   8.076                        
 3544W        W20760   7.254  13.106   1.230                        
 3545W        W20761  12.511   7.516   0.637                        
 3546W        W20762  10.464   7.482   2.314                        
 3547W        W20763   0.458   4.668   3.128                        
 3548W        W20764   6.751  10.746   8.379                        
 3549W        W20765  13.921   8.088   1.468                        
 3550W        W20766   1.961   0.089   3.360                        
 3551W        W20767   3.500  13.074   9.947                        
 3552W        W20768  10.897  13.293  11.613                        
 3553W        W20769  11.981   8.871  11.080                        
 3554W        W20770   8.606  13.668   9.441                        
 3555W        W20771   3.786   4.372   9.210                        
 3556W        W20772   5.645   1.999   2.230                        
 3557W        W20773   3.248   9.325   8.637                        
 3558W        W20774   6.524  11.698  10.221                        
 3559W        W20775   0.352   9.873   8.428                        
 3560W        W20776   5.655   2.499  10.806                        
 3561W        W20777   7.833   3.352   8.901                        
 3562W        W20778   6.260   5.662   9.712                        
 3563W        W20779   3.883   7.477   9.735                        
 3564W        W20780   5.097   7.248   9.507                        
 3565W        W20781   0.986   8.845  10.224                        
 3566W        W20782   2.735   6.001   0.166                        
 3567W        W20783   2.496   4.629   8.711                        
 3568W        W20784   9.864  12.038   1.672                        
 3569W        W20785   6.420   8.338   0.180                        
 3570W        W20786  13.042   7.569   0.961                        
 3571W        W20787   2.551   4.086   3.803                        
 3572W        W20788  13.335   4.339   3.077                        
 3573W        W20789   6.985   5.461   7.879                        
 3574W        W20790  11.162   2.492   0.395                        
 3575W        W20791  12.306   8.097  11.876                        
 3576W        W20792   0.978   0.195  11.820                        
 3577W        W20793  13.604   9.703  11.121                        
 3578W        W20794  13.617   1.226   3.641                        
 3579W        W20795   8.376  13.919   2.247                        
 3580W        W20796   0.357   9.435   2.489                        
 3581W        W20797   4.558  13.056   3.088                        
 3582W        W20798   2.769   4.377   2.509                        
 3583W        W20799   2.719   0.197   1.434                        
 3584W        W20800   1.126   3.884   9.794                        
 3585W        W20801   5.891   7.321  10.021                        
 3586W        W20802  12.034   3.791  10.740                        
 3587W        W20803   1.156  10.756   1.429                        
 3588W        W20804  10.978   0.600   3.644                        
 3589W        W20805  11.220   3.351   8.725                        
 3590W        W20806   0.897   2.298   3.282                        
 3591W        W20807   6.190   2.307   9.777                        
 3592W        W20808  13.923   8.533   0.405                        
 3593W        W20809   7.803  12.304  11.638                        
 3594W        W20810   3.557   0.373   0.195                        
 3595W        W20811   4.060  13.073   9.983                        
 3596W        W20812  13.282   8.384   8.459                        
 3597W        W20813   2.756   2.469   3.014                        
 3598W        W20814   5.928   1.499   0.983                        
 3599W        W20815   9.377  13.644   3.616                        
 3600W        W20816   9.915   1.998   0.630                        
 3601W        W20817   2.307   1.175  10.785                        
 3602W        W20818   3.056   9.957  10.005                        
 3603W        W20819  10.972   9.160   3.665                        
 3604W        W20820   5.893   7.493   1.263                        
 3605W        W20821   8.606  13.889   3.649                        
 3606W        W20822   5.718   8.823   9.966                        
 3607W        W20823   3.058   6.252   2.808                        
 3608W        W20824   5.394   3.812   8.952                        
 3609W        W20825  12.482   5.639   9.488                        
 3610W        W20826   7.209   4.037   8.709                        
 3611W        W20827   2.722  13.028   1.703                        
 3612W        W20828   5.440   8.076  10.862                        
 3613W        W20829  10.396   0.618   3.013                        
 3614W        W20830   7.741   9.621   3.549                        
 3615W        W20831   0.980  11.440   1.998                        
 3616W        W20832   7.543   4.603   9.220                        
 3617W        W20833   6.191  10.211   8.446                        
 3618W        W20834  13.315  12.795   0.399                        
 3619W        W20835  12.017   3.578   1.672                        
 3620W        W20836  13.842   4.919   1.226                        
 3621W        W20837   7.535  10.916   1.487                        
 3622W        W20838  10.445  13.295   8.671                        
 3623W        W20839   2.036   5.451   9.989                        
 3624W        W20840   6.976   9.607   2.758                        
 3625W        W20841   4.362   0.971   0.118                        
 3626W        W20842   6.142   6.180   2.790                        
 3627W        W20843   1.485   5.965   8.140                        
 3628W        W20844   5.203   0.385   1.263                        
 3629W        W20845  10.652  13.375   3.102                        
 3630W        W20846   6.756   4.335   1.516                        
 3631W        W20847   9.700   2.276   8.975                        
 3632W        W20848   7.489   8.060  10.763                        
 3633W        W20849  11.493   5.361   0.689                        
 3634W        W20850  10.962   7.214   9.499                        
 3635W        W20851   6.946   7.834  10.256                        
 3636W        W20852   5.939   0.405   3.360                        
 3637W        W20853   6.503  10.671  11.105                        
 3638W        W20854   0.635  12.300   8.419                        
 3639W        W20855   6.743   1.471   0.366                        
 3640W        W20856   0.661   7.730  10.258                        
 3641W        W20857  11.970   2.836  11.661                        
 3642W        W20858   6.216   0.093  10.054                        
 3643W        W20859   3.309   3.807   3.643                        
 3644W        W20860   7.259   1.688   0.112                        
 3645W        W20861  10.968  11.488   9.167                        
 3646W        W20862  10.448   5.633   3.341                        
 3647W        W20863   2.286   9.055   0.632                        
 3648W        W20864  10.970   1.996   8.444                        
 3649W        W20865   7.017  13.372   1.731                        
 3650W        W20866   8.560   1.146   9.740                        
 3651W        W20867   3.059  13.092   3.086                        
 3652W        W20868   1.978   7.802  10.746                        
 3653W        W20869   5.978   7.753  11.268                        
 3654W        W20870  12.497  10.756  11.859                        
 3655W        W20871   4.826   5.127   2.333                        
 3656W        W20872   9.904   2.237  11.801                        
 3657W        W20873  12.075   5.094  11.352                        
 3658W        W20874   5.392  13.871   2.037                        
 3659W        W20875   8.884   9.374  11.309                        
 3660W        W20876   0.429   6.438  10.301                        
 3661W        W20877   2.464   0.455   9.176                        
 3662W        W20878   2.039   7.233   9.448                        
 3663W        W20879   5.154   4.835  11.345                        
 3664W        W20880   1.674   6.414   1.701                        
 3665W        W20881  12.864   6.424   1.678                        
 3666W        W20882   2.554  13.357  11.607                        
 3667W        W20883   7.042   9.359   9.423                        
 3668W        W20884  11.248   7.800  11.537                        
 3669W        W20885  12.791  10.929   2.226                        
 3670W        W20886  10.212   5.620   9.210                        
 3671W        W20887   4.933   4.090   3.395                        
 3672W        W20888   5.894   6.962  10.739                        
 3673W        W20889  10.452   3.861   0.640                        
 3674W        W20890   1.732  10.488  11.128                        
 3675W        W20891   0.949   3.094   2.330                        
 3676W        W20892   6.176   3.845   2.862                        
 3677W        W20893   2.714   2.025   3.033                        
 3678W        W20894  12.326   6.784   1.476                        
 3679W        W20895   8.119   5.146  10.491                        
 3680W        W20896   7.833   8.583  11.574                        
 3681W        W20897  11.985  13.904   8.392                        
 3682W        W20898   4.081   9.860   9.725                        
 3683W        W20899  13.570  10.695   0.663                        
 3684W        W20900   2.571   8.883   2.286                        
 3685W        W20901   9.690   2.033   0.687                        
 3686W        W20902   8.530   1.450   8.870                        
 3687W        W20903   8.330  10.449   0.198                        
 3688W        W20904   1.488   9.945  10.580                        
 3689W        W20905   1.143   6.988  11.919                        
 3690W        W20906   0.113   3.603   0.974                        
 3691W        W20907   9.109   2.799  10.534                        
 3692W        W20908   0.987   3.881  11.322                        
 3693W        W20909  11.450   2.303   0.890                        
 3694W        W20910   2.237   8.080   3.052                        
 3695W        W20911  11.724  12.846   9.510                        
 3696W        W20912  13.363   1.216  10.223                        
 3697W        W20913   6.683  13.112   9.254                        
 3698W        W20914   9.087   2.018   0.991                        
 3699W        W20915  13.818  13.098   8.920                        
 3700W        W20916   9.674  13.874   0.641                        
 3701W        W20917   9.906   4.034   2.276                        
 3702W        W20918  11.444   8.604   2.584                        
 3703W        W20919  12.524   5.190   2.273                        
 3704W        W20920  11.189   0.079   9.678                        
 3705W        W20921   9.935   7.534  11.340                        
 3706W        W20922   7.513   8.056   8.659                        
 3707W        W20923   2.771  13.329  11.341                        
 3708W        W20924   0.413   4.574  10.860                        
 3709W        W20925  11.690   9.673   8.343                        
 3710W        W20926   8.386   7.026   3.606                        
 3711W        W20927  13.047   4.861   1.787                        
 3712W        W20928   3.520   3.344   9.145                        
 3713W        W20929   3.272   7.764   2.284                        
 3714W        W20930  12.606   6.965  11.868                        
 3715W        W20931   9.361   7.266  11.117                        
 3716W        W20932   2.513   6.729   1.762                        
 3717W        W20933   7.473   9.904   9.462                        
 3718W        W20934   4.100  10.381  11.334                        
 3719W        W20935   9.605   1.234   3.312                        
 3720W        W20936  13.132   0.920   1.529                        
 3721W        W20937   5.141   6.230  10.281                        
 3722W        W20938   7.277   5.470   2.793                        
 3723W        W20939   7.259  10.680  10.318                        
 3724W        W20940   4.035  11.525  11.892                        
 3725W        W20941   2.303  13.891   2.831                        
 3726W        W20942  12.874   5.440   1.681                        
 3727W        W20943   3.325   0.962  11.041                        
 3728W        W20944   3.789   1.469   1.742                        
 3729W        W20945   1.405  10.155  11.119                        
 3730W        W20946   2.835  12.317   1.682                        
 3731W        W20947  13.603   5.200   0.412                        
 3732W        W20948   3.880   3.316   3.378                        
 3733W        W20949   2.563   3.819   0.665                        
 3734W        W20950   3.315   1.951   8.933                        
 3735W        W20951   6.441   1.137   1.491                        
 3736W        W20952   4.365   0.145   1.172                        
 3737W        W20953   6.717   8.383   8.345                        
 3738W        W20954  10.400  11.502   2.472                        
 3739W        W20955   1.742  13.658   3.086                        
 3740W        W20956   7.329   1.676   8.995                        
 3741W        W20957   7.248   1.161   2.800                        
 3742W        W20958   6.455   4.861   1.481                        
 3743W        W20959   7.515  10.396   2.476                        
 3744W        W20960   4.666  12.321   0.699                        
 3745W        W20961   6.960  11.804   0.078                        
 3746W        W20962   5.929   1.763   1.507                        
 3747W        W20963   3.626   3.068   3.630                        
 3748W        W20964   3.561  10.427   0.983                        
 3749W        W20965   7.292   0.884  11.281                        
 3750W        W20966   5.692   0.393   1.461                        
 3751W        W20967  10.156  10.129   0.423                        
 3752W        W20968   0.162   7.543  11.090                        
 3753W        W20969   1.928  12.001  10.825                        
 3754W        W20970   4.857  11.965   3.088                        
 3755W        W20971   6.502  10.430  11.322                        
 3756W        W20972   3.813   3.242  11.578                        
 3757W        W20973  12.252   1.961   7.880                        
 3758W        W20974   6.508   6.714   3.345                        
 3759W        W20975  12.768   6.996   1.408                        
 3760W        W20976   6.506   0.950   1.956                        
 3761W        W20977   0.405  12.768   9.712                        
 3762W        W20978   9.093   2.558   8.886                        
 3763W        W20979   4.689  11.223   9.481                        
 3764W        W20980   0.409  12.014   2.515                        
 3765W        W20981   3.623   6.472   0.899                        
 3766W        W20982   8.318   6.706   2.218                        
 3767W        W20983   1.753  11.264   3.330                        
 3768W        W20984   2.807   9.403   2.058                        
 3769W        W20985   7.480  12.772   1.958                        
 3770W        W20986   3.260   3.511   8.676                        
 3771W        W20987  13.924  13.334   9.752                        
 3772W        W20988   6.234   4.598   3.387                        
 3773W        W20989   7.041   3.789   8.700                        
 3774W        W20990   1.457   9.313   1.773                        
 3775W        W20991  11.183   8.644  10.046                        
 3776W        W20992  10.920   9.123   2.594                        
 3777W        W20993   3.821  13.014  11.627                        
 3778W        W20994   1.200  11.773  11.302                        
 3779W        W20995  12.774  11.433   8.870                        
 3780W        W20996   1.748  12.013   0.632                        
 3781W        W20997   9.676   6.424   9.454                        
 3782W        W20998  12.861   3.506  11.614                        
 3783W        W20999   0.871   2.508   8.381                        
 3784W        W21000   2.181   1.774   8.351                        
 3785W        W21001  12.067   4.326   0.968                        
 3786W        W21002   3.362   6.732  11.104                        
 3787W        W21003   3.510   6.745   9.741                        
 3788W        W21004  10.926  13.577  10.806                        
 3789W        W21005  13.314   4.599   2.780                        
 3790W        W21006   8.280   8.303   9.669                        
 3791W        W21007   3.786   0.647   7.837                        
 3792W        W21008   7.757   9.130   8.352                        
 3793W        W21009   4.912  10.411   9.414                        
 3794W        W21010   2.828   4.366   3.357                        
 3795W        W21011   8.798  12.796   8.117                        
 3796W        W21012   0.682   4.678   3.641                        
 3797W        W21013  12.263  13.884   8.983                        
 3798W        W21014  13.614  11.450  11.019                        
 3799W        W21015  13.394  13.076  11.555                        
 3800W        W21016  10.969   2.209   3.840                        
 3801W        W21017   1.162  13.274   1.783                        
 3802W        W21018   1.505   6.516  10.251                        
 3803W        W21019  11.778   6.515   3.371                        
 3804W        W21020   0.866  13.822   9.172                        
 3805W        W21021   4.324   3.292   4.076                        
 3806W        W21022  11.480   8.299   0.160                        
 3807W        W21023   1.229   3.544   8.885                        
 3808W        W21024   0.387   1.154   0.615                        
 3809W        W21025   4.567   8.585  11.369                        
 3810W        W21026  13.805  11.556  11.570                        
 3811W        W21027   5.200  12.872   3.364                        
 3812W        W21028   2.286   8.863   3.334                        
 3813W        W21029   5.973   9.635   1.454                        
 3814W        W21030   3.086   1.931  11.267                        
 3815W        W21031   3.553   8.887  11.619                        
 3816W        W21032   3.021  13.662   2.553                        
 3817W        W21033  11.760   8.859  11.592                        
 3818W        W21034   3.027  12.541   8.912                        
 3819W        W21035   2.496  13.884   2.044                        
 3820W        W21036   3.604   9.962  11.888                        
 3821W        W21037  12.073   6.514   9.218                        
 3822W        W21038   4.905   5.741   3.575                        
 3823W        W21039   8.836   0.437   2.228                        
 3824W        W21040   7.314   4.080  11.628                        
 3825W        W21041   1.779   1.226   9.475                        
 3826W        W21042   6.421  11.965   8.621                        
 3827W        W21043   6.997  11.987  11.805                        
 3828W        W21044   4.935   9.126  11.545                        
 3829W        W21045   6.210   1.228   3.537                        
 3830W        W21046   2.456   1.920   1.519                        
 3831W        W21047   6.790   1.136   0.900                        
 3832W        W21048  12.765   1.178  11.296                        
 3833W        W21049   2.747   2.227   1.683                        
 3834W        W21050   1.251   0.365   2.517                        
 3835W        W21051   8.311   6.444  10.022                        
 3836W        W21052   8.582  10.470   9.141                        
 3837W        W21053  11.453   1.224  10.813                        
 3838W        W21054   8.261  13.122   9.726                        
 3839W        W21055  10.714  13.608   0.398                        
 3840W        W21056   5.476   7.242   3.549                        
 3841W        W21057   6.957   0.346   2.816                        
 3842W        W21058   1.170   3.247   0.686                        
 3843W        W21059  11.496   4.841   2.303                        
 3844W        W21060   1.183  13.089   3.052                        
 3845W        W21061   0.973  11.524   2.803                        
 3846W        W21062   4.681   2.009   9.522                        
 3847W        W21063   6.999   0.076  11.270                        
 3848W        W21064   1.230   2.806   1.250                        
 3849W        W21065   0.598   5.187   3.338                        
 3850W        W21066   6.506   1.736   2.789                        
 3851W        W21067   0.947   5.450  11.880                        
 3852W        W21068   1.944   6.150   1.511                        
 3853W        W21069  13.342   5.933   0.983                        
 3854W        W21070   0.969   7.261   1.747                        
 3855W        W21071   8.031   9.871   0.391                        
 3856W        W21072  11.997  12.346   9.156                        
 3857W        W21073  13.574   9.885   9.442                        
 3858W        W21074   0.381   0.674   4.108                        
 3859W        W21075   9.688  11.241   2.051                        
 3860W        W21076   3.238   8.888  11.391                        
 3861W        W21077   0.968   5.351   2.471                        
 3862W        W21078   9.920   9.637   1.235                        
 3863W        W21079   7.745  11.281   2.234                        
 3864W        W21080  13.021  12.527   8.092                        
 3865W        W21081   3.283  10.391   3.637                        
 3866W        W21082   8.907  12.801   4.156                        
 3867W        W21083   0.138  13.904   0.615                        
 3868W        W21084   1.768  12.830   8.616                        
 3869W        W21085   4.150   4.138  11.326                        
 3870W        W21086   3.310   6.163   9.163                        
 3871W        W21087   6.184  13.311   0.881                        
 3872W        W21088   4.648  10.223   0.686                        
 3873W        W21089   4.607   0.123   8.638                        
 3874W        W21090   4.586   5.443   1.767                        
 3875W        W21091   5.646   1.251   2.842                        
 3876W        W21092   6.190  13.591   2.579                        
 3877W        W21093   4.897   3.893   7.821                        
 3878W        W21094   2.509   3.079  11.055                        
 3879W        W21095   5.113   9.964   2.569                        
 3880W        W21096   6.453   7.844   9.449                        
 3881W        W21097  13.807  11.479  10.205                        
 3882W        W21098   3.278   3.503   1.961                        
 3883W        W21099   7.240  12.506   0.711                        
 3884W        W21100  13.284   7.004   9.792                        
 3885W        W21101  12.485  13.556  11.848                        
 3886W        W21102  10.922   4.071   3.376                        
 3887W        W21103  13.567  12.534   3.620                        
 3888W        W21104  12.494   1.216   7.537                        
 3889W        W21105  10.735  12.001  10.783                        
 3890W        W21106   6.150   6.487   0.906                        
 3891W        W21107   0.978   2.460  10.748                        
 3892W        W21108   4.656   3.848   9.936                        
 3893W        W21109  11.453   5.660  11.288                        
 3894W        W21110   0.415   2.230   9.700                        
 3895W        W21111  13.279   6.459  10.303                        
 3896W        W21112  13.074  10.206  10.803                        
 3897W        W21113   8.617  11.256   9.723                        
 3898W        W21114   0.629   4.078  11.805                        
 3899W        W21115   6.519  11.216   1.195                        
 3900W        W21116  10.972   7.477   9.233                        
 3901W        W21117   3.568  13.311   3.625                        
 3902W        W21118   8.280  11.693  11.873                        
 3903W        W21119   8.903  12.809  11.917                        
 3904W        W21120   0.908   9.935   9.998                        
 3905W        W21121   7.010   2.255  10.815                        
 3906W        W21122  12.612   0.079  11.314                        
 3907W        W21123  12.294   5.730   0.089                        
 3908W        W21124  13.333  13.597   3.049                        
 3909W        W21125   2.718  10.934   0.733                        
 3910W        W21126   0.866   4.361   2.025                        
 3911W        W21127   8.618   2.044  11.897                        
 3912W        W21128   1.388   0.612   0.965                        
 3913W        W21129  12.780   9.661   8.648                        
 3914W        W21130   5.679   1.140  10.011                        
 3915W        W21131   3.530  11.024   2.477                        
 3916W        W21132   1.134  12.322   0.166                        
 3917W        W21133   2.277   6.231   1.678                        
 3918W        W21134  10.185  10.688  11.010                        
 3919W        W21135   6.416   6.788   9.983                        
 3920W        W21136  11.268   1.222   2.580                        
 3921W        W21137   2.574   8.338  10.224                        
 3922W        W21138   2.762   2.982   1.201                        
 3923W        W21139   5.447   6.744  10.523                        
 3924W        W21140  11.993  12.292  11.319                        
 3925W        W21141   7.219  10.127   1.451                        
 3926W        W21142   2.515   9.086   2.572                        
 3927W        W21143  12.008   6.959  11.045                        
 3928W        W21144   8.544  10.962  11.023                        
 3929W        W21145   5.110  11.245  11.058                        
 3930W        W21146  10.740   2.183   1.524                        
 3931W        W21147   9.089   0.085   9.229                        
 3932W        W21148   1.247   8.894   9.745                        
 3933W        W21149   0.182   1.782   4.081                        
 3934W        W21150   9.082   3.842  11.119                        
 3935W        W21151   6.967   5.659   8.662                        
 3936W        W21152   6.745   4.944  11.572                        
 3937W        W21153   0.862  11.016   1.977                        
 3938W        W21154   8.024  11.507   9.734                        
 3939W        W21155   1.138  13.400   9.735                        
 3940W        W21156   4.861   2.194   2.527                        
 3941W        W21157   2.249  12.545   7.930                        
 3942W        W21158   1.485   2.747   8.642                        
 3943W        W21159   0.717   0.958  11.396                        
 3944W        W21160  10.763   7.014   8.874                        
 3945W        W21161   5.641   6.236   9.682                        
 3946W        W21162   3.360   6.434   1.494                        
 3947W        W21163  13.566   3.340  10.585                        
 3948W        W21164   7.591   0.452   8.641                        
 3949W        W21165   8.349   1.135  10.049                        
 3950W        W21166  12.760  12.246  10.065                        
 3951W        W21167   1.778   1.207   3.334                        
 3952W        W21168  13.340   5.418   2.316                        
 3953W        W21169   1.159   8.074   0.077                        
 3954W        W21170  11.253  11.763  10.031                        
 3955W        W21171   7.821   5.145   8.106                        
 3956W        W21172   5.677   0.371  10.826                        
 3957W        W21173   0.952   4.685  10.282                        
 3958W        W21174   5.208   6.456   1.992                        
 3959W        W21175   5.627  10.698  10.308                        
 3960W        W21176   5.369  12.784  11.925                        
 3961W        W21177  13.073   0.128   9.235                        
 3962W        W21178   4.056  12.325  11.897                        
 3963W        W21179  10.149   9.173   0.698                        
 3964W        W21180   5.165   3.526   9.788                        
 3965W        W21181  10.905   7.582   0.940                        
 3966W        W21182   0.186   3.043   3.364                        
 3967W        W21183   4.375   9.397  10.319                        
 3968W        W21184   8.372  11.212  11.131                        
 3969W        W21185   1.172   6.417   8.650                        
 3970W        W21186   5.626   8.796   0.177                        
 3971W        W21187  12.272   9.596   4.158                        
 3972W        W21188  13.826   6.500  11.370                        
 3973W        W21189   9.367   4.832   0.174                        
 3974W        W21190   5.468   9.432  11.657                        
 3975W        W21191   8.005  13.662   9.979                        
 3976W        W21192   8.607   0.115  11.131                        
 3977W        W21193  10.462  13.906   0.153                        
 3978W        W21194   7.790   6.771  11.299                        
 3979W        W21195   1.232  10.398  11.841                        
 3980W        W21196   6.497  12.054   1.164                        
 3981W        W21197   9.636  10.396  10.853                        
 3982W        W21198   4.935   5.151  10.542                        
 3983W        W21199   6.412   3.084   9.455                        
 3984W        W21200   0.396   0.610   3.655                        
 3985W        W21201  10.672  10.687   2.858                        
 3986W        W21202   0.075   2.716   0.159                        
 3987W        W21203   8.002   8.054   2.598                        
 3988W        W21204   6.474  12.533  11.078                        
 3989W        W21205   2.206   2.798  11.825                        
 3990W        W21206  13.593   2.028   0.900                        
 3991W        W21207   0.183  10.192   0.965                        
 3992W        W21208   5.181   4.874   7.850                        
 3993W        W21209   8.333   2.019   0.732                        
 3994W        W21210   4.874   1.729  11.031                        
 3995W        W21211   5.964   6.190   8.687                        
 3996W        W21212   0.979  13.891   1.451                        
 3997W        W21213   2.221  10.396  10.584                        
 3998W        W21214   4.066   2.014  11.045                        
 3999W        W21215   3.523  10.380  11.127                        
 4000W        W21216   2.473   7.263   0.909                        
 4001W        W21217   5.656   5.922   9.473                        
 4002W        W21218  10.210   7.584   0.160                        
 4003W        W21219   7.208   4.564  10.822                        
 4004W        W21220   6.479   1.406   3.806                        
 4005W        W21221   6.744   9.658   0.082                        
 4006W        W21222   8.585  13.123  11.091                        
 4007W        W21223   5.189   5.888   2.529                        
 4008W        W21224   0.609  12.834   1.511                        
 4009W        W21225  12.030   9.138   1.432                        
 4010W        W21226   9.926   5.401   3.369                        
 4011W        W21227  11.989   8.646   1.491                        
 4012W        W21228   4.081  12.291   1.458                        
 4013W        W21229   5.674   2.761   2.514                        
 4014W        W21230   7.012  13.819   1.262                        
 4015W        W21231   5.422   0.446  10.008                        
 4016W        W21232  12.550   0.893  10.812                        
 4017W        W21233  13.872   1.487  11.869                        
 4018W        W21234  12.040   4.582   2.020                        
 4019W        W21235   7.530   7.221   1.457                        
 4020W        W21236   5.085   5.453   3.067                        
 4021W        W21237   4.650   3.324   9.939                        
 4022W        W21238  11.458   3.242   8.635                        
 4023W        W21239   7.997   0.149   1.518                        
 4024W        W21240   0.689   7.221   9.714                        
 4025W        W21241  10.428   0.402   9.668                        
 4026W        W21242   6.480   1.974   0.457                        
 4027W        W21243   0.883   4.571   0.701                        
 4028W        W21244  12.040   0.111   3.079                        
 4029W        W21245   4.822   9.662  11.833                        
 4030W        W21246   8.534  13.069   0.707                        
 4031W        W21247  13.044  13.567   3.132                        
 4032W        W21248   3.055   1.445   2.247                        
 4033W        W21249   0.401   0.595   2.216                        
 4034W        W21250   0.173   8.098   1.485                        
 4035W        W21251  13.540   8.120   9.423                        
 4036W        W21252   1.745  11.201   3.114                        
 4037W        W21253   9.847  10.967   1.251                        
 4038W        W21254  11.427   3.538   0.604                        
 4039W        W21255   8.085   7.817   8.658                        
 4040W        W21256   9.660  12.241  11.116                        
 4041W        W21257   4.152  11.977   3.610                        
 4042W        W21258   6.478   7.830  11.027                        
 4043W        W21259  11.268   7.228   2.253                        
 4044W        W21260   9.956   1.719   3.322                        
 4045W        W21261   0.448   4.853   2.859                        
 4046W        W21262   6.490   0.716   4.396                        
 4047W        W21263   8.833  12.327   8.413                        
 4048W        W21264  13.095  12.229   3.659                        
 4049W        W21265  13.024  12.801   3.383                        
 4050W        W21266   6.454   1.664   3.384                        
 4051W        W21267  13.577   6.938   0.168                        
 4052W        W21268   9.943   8.817   8.361                        
 4053W        W21269   5.150   3.068   2.013                        
 4054W        W21270  10.389   3.559   0.968                        
 4055W        W21271   9.175  13.655   4.071                        
 4056W        W21272   3.510  13.337  11.913                        
 4057W        W21273   7.270  13.628  11.037                        
 4058W        W21274  11.735   5.620   3.086                        
 4059W        W21275  13.049   4.411   3.094                        
 4060W        W21276   8.115   1.742  11.613                        
 4061W        W21277  11.239   0.627   9.774                        
 4062W        W21278   4.415  13.345   2.036                        
 4063W        W21279  13.858   1.219   0.926                        
 4064W        W21280   5.396   2.191   0.962                        
 4065W        W21281   2.179   9.645  10.845                        
 4066W        W21282   8.079   3.008  11.594                        
 4067W        W21283   3.834   7.771  10.315                        
 4068W        W21284   1.718   0.600   7.925                        
 4069W        W21285   4.323   1.751   3.284                        
 4070W        W21286   3.087   7.247   9.488                        
 4071W        W21287   0.620   6.263   1.516                        
 4072W        W21288   2.021   3.802   2.764                        
 4073W        W21289   4.841  11.508   8.174                        
 4074W        W21290   9.906   4.679  11.587                        
 4075W        W21291   3.278   8.596   2.823                        
 4076W        W21292  13.916   1.479  10.496                        
 4077W        W21293  11.446  11.243   0.614                        
 4078W        W21294   6.171   5.939   8.382                        
 4079W        W21295   5.188  13.313  10.277                        
 4080W        W21296   4.361   1.723   1.726                        
 4081W        W21297  10.430   2.540   2.060                        
 4082W        W21298   6.410   1.441   0.728                        
 4083W        W21299   6.225   3.249   1.149                        
 4084W        W21300   2.238  10.390   0.653                        
 4085W        W21301  13.339   5.441   8.942                        
 4086W        W21302  12.501   4.131   2.506                        
 4087W        W21303   3.283  13.364   8.152                        
 4088W        W21304  12.838   0.068  10.281                        
 4089W        W21305   1.947   6.213   8.880                        
 4090W        W21306   2.236  12.857   8.711                        
 4091W        W21307   3.569   5.677   2.303                        
 4092W        W21308   0.356   0.437   0.139                        
 4093W        W21309   3.251  13.353   2.571                        
 4094W        W21310   9.431   2.974   3.382                        
 4095W        W21311  13.119   4.666   2.541                        
 4096W        W21312   8.872   2.271   0.606                        
 4097W        W21313   0.684  10.466   2.853                        
 4098W        W21314   3.251   6.446  10.532                        
 4099W        W21315   6.690   7.207   4.089                        
 4100W        W21316  11.997   6.233  10.768                        
 4101W        W21317   3.774  11.811   0.387                        
 4102W        W21318   0.451  10.143   8.414                        
 4103W        W21319   8.357   8.844   1.153                        
 4104W        W21320   9.164   0.167   8.458                        
 4105W        W21321   4.083   6.694  11.303                        
 4106W        W21322  12.231   4.154  11.634                        
 4107W        W21323   6.172  13.829   9.734                        
 4108W        W21324  13.840   4.115   1.231                        
 4109W        W21325  11.222  13.096   8.425                        
 4110W        W21326   2.489  10.400   9.966                        
 4111W        W21327  11.697   1.689   1.507                        
 4112W        W21328   2.224   7.533   8.413                        
 4113W        W21329   8.054   3.287   0.110                        
 4114W        W21330   6.716   8.580  11.340                        
 4115W        W21331   8.355  10.656   9.973                        
 4116W        W21332   7.816   1.967   0.429                        
 4117W        W21333   5.405   7.999   1.529                        
 4118W        W21334   9.952   1.150  11.058                        
 4119W        W21335   2.516   3.275  10.217                        
 4120W        W21336   7.558  12.748   3.630                        
 4121W        W21337  10.694  10.752  10.285                        
 4122W        W21338   4.637   1.924   0.992                        
 4123W        W21339   1.501   1.139  10.215                        
 4124W        W21340   9.118   8.894   9.476                        
 4125W        W21341   7.299  12.006  11.809                        
 4126W        W21342   3.771  11.272   1.950                        
 4127W        W21343   5.398   6.246   1.988                        
 4128W        W21344   3.355   8.540   3.627                        
 4129W        W21345  10.714   6.161  11.377                        
 4130W        W21346   9.368   6.008   2.508                        
 4131W        W21347  13.359   0.082   8.120                        
 4132W        W21348  11.220   9.413   9.400                        
 4133W        W21349   1.409   1.443   0.121                        
 4134W        W21350  12.571   0.090   2.785                        
 4135W        W21351  10.372   7.760   3.037                        
 4136W        W21352   1.450   8.835   7.842                        
 4137W        W21353   8.604   0.156   8.609                        
 4138W        W21354   4.412   5.122   4.439                        
 4139W        W21355   8.872   4.653  11.342                        
 4140W        W21356  10.970   6.800   8.338                        
 4141W        W21357  11.171   4.131  11.362                        
 4142W        W21358   6.149   7.727   8.968                        
 4143W        W21359   0.395   7.833   1.481                        
 4144W        W21360   7.015   2.018   1.767                        
 4145W        W21361   2.834   8.566   9.438                        
 4146W        W21362   0.119  12.344   1.686                        
 4147W        W21363   5.428  11.488   3.290                        
 4148W        W21364   9.420   9.911  11.659                        
 4149W        W21365  11.984   9.178  10.814                        
 4150W        W21366   0.338   7.544   9.143                        
 4151W        W21367   5.947  10.923   2.526                        
 4152W        W21368   5.144   4.655   9.969                        
 4153W        W21369   9.917   9.429  10.789                        
 4154W        W21370   0.196   7.464   2.273                        
 4155W        W21371   5.931  13.570   8.438                        
 4156W        W21372  10.386  10.177   1.187                        
 4157W        W21373   0.450   6.494   0.928                        
 4158W        W21374  13.130   0.447   3.033                        
 4159W        W21375  13.326   1.182  11.359                        
 4160W        W21376   0.972   4.080   8.602                        
 4161W        W21377   1.927   5.201   2.766                        
 4162W        W21378   4.350   4.650   9.231                        
 4163W        W21379   3.065  11.821   0.417                        
 4164W        W21380   6.432   1.987   8.675                        
 4165W        W21381   5.358   4.654   2.586                        
 4166W        W21382   9.106  12.868   2.211                        
 4167W        W21383  12.062   1.993  11.382                        
 4168W        W21384   7.055   1.778   3.130                        
 4169W        W21385  11.198   4.672   8.960                        
 4170W        W21386   1.227   5.677   3.328                        
 4171W        W21387   2.028  13.643   9.683                        
 4172W        W21388   9.688   8.841   9.449                        
 4173W        W21389   5.138  12.585  11.054                        
 4174W        W21390  12.556  12.303   1.770                        
 4175W        W21391   4.119   8.283   8.436                        
 4176W        W21392   8.003  11.256  11.003                        
 4177W        W21393  11.526   4.619   3.363                        
 4178W        W21394   0.622   2.275  11.896                        
 4179W        W21395   4.313   8.270   2.237                        
 4180W        W21396   1.169   8.626   9.437                        
 4181W        W21397   9.176   4.328   9.937                        
 4182W        W21398   4.140   1.924   0.369                        
 4183W        W21399   0.878   5.670  10.310                        
 4184W        W21400   1.396   6.474  10.548                        
 4185W        W21401   4.887   0.351  10.551                        
 4186W        W21402   7.202   0.658  11.573                        
 4187W        W21403   6.474   1.777   0.145                        
 4188W        W21404  11.484   6.993   2.519                        
 4189W        W21405   9.394   0.338   9.239                        
 4190W        W21406  12.497   8.896  11.333                        
 4191W        W21407  13.629   7.303   1.172                        
 4192W        W21408   3.808   6.247   2.749                        
 4193W        W21409   1.444   0.619  10.500                        
 4194W        W21410   2.476  10.972  11.026                        
 4195W        W21411  10.716  11.173   8.903                        
 4196W        W21412   6.006   7.465  10.765                        
 4197W        W21413   9.059   4.634  10.768                        
 4198W        W21414   1.744  11.778  10.801                        
 4199W        W21415  12.545  13.013   2.253                        
 4200W        W21416  10.183   4.899  11.617                        
 4201W        W21417   9.061   6.172   8.602                        
 4202W        W21418   6.972  10.119  11.374                        
 4203W        W21419   7.061  11.175  11.116                        
 4204W        W21420   0.173   1.990   9.203                        
 4205W        W21421   3.295   1.442   3.290                        
 4206W        W21422  10.467  10.438   8.413                        
 4207W        W21423   0.397   0.391   0.878                        
 4208W        W21424   1.434   8.554   8.136                        
 4209W        W21425   5.153  11.233  11.832                        
 4210W        W21426   8.615   9.171  11.923                        
 4211W        W21427  10.148  13.817   8.346                        
 4212W        W21428  13.346   1.173   0.937                        
 4213W        W21429  12.563   7.323   0.725                        
 4214W        W21430   3.032   6.257  11.576                        
 4215W        W21431   1.182   0.115  10.030                        
 4216W        W21432   2.807   6.451   1.184                        
 4217W        W21433   0.604   7.836   9.493                        
 4218W        W21434  12.340  11.958   8.456                        
 4219W        W21435   6.536  11.995   0.693                        
 4220W        W21436   7.022   8.092   1.430                        
 4221W        W21437   5.476   9.938   1.233                        
 4222W        W21438  13.081  13.609   9.453                        
 4223W        W21439   9.096   7.993   1.419                        
 4224W        W21440   5.395   9.083   8.690                        
 4225W        W21441  10.716  11.192   9.476                        
 4226W        W21442   3.629   0.919   8.079                        
 4227W        W21443  12.842   5.718   0.625                        
 4228W        W21444   0.975   1.739   3.385                        
 4229W        W21445   7.523  12.494   9.212                        
 4230W        W21446   0.104   2.526  11.930                        
 4231W        W21447   0.067   7.498   0.162                        
 4232W        W21448   4.686  13.858  10.827                        
 4233W        W21449   7.813   4.901  10.738                        
 4234W        W21450   4.421   4.071   8.938                        
 4235W        W21451   7.464  12.280   0.121                        
 4236W        W21452   8.318   8.593   1.150                        
 4237W        W21453  10.719   6.974  10.501                        
 4238W        W21454   6.741   0.607   3.046                        
 4239W        W21455  10.399  12.337   1.937                        
 4240W        W21456   3.896  13.829  10.022                        
 4241W        W21457   2.248   0.925   8.935                        
 4242W        W21458   4.893  12.240  10.517                        
 4243W        W21459   6.495   1.999  11.343                        
 4244W        W21460  10.649   7.575  10.011                        
 4245W        W21461   5.172  12.241   8.686                        
 4246W        W21462   9.901   1.436  10.218                        
 4247W        W21463   3.000  10.735   9.522                        
 4248W        W21464   8.524   1.728   2.300                        
 4249W        W21465   1.676  11.723   8.924                        
 4250W        W21466   4.342   3.774   3.037                        
 4251W        W21467   1.685   2.731  10.752                        
 4252W        W21468   1.130   4.373  11.052                        
 4253W        W21469  11.426   1.431  10.329                        
 4254W        W21470   7.996   9.868  10.798                        
 4255W        W21471   6.702   6.009   1.165                        
 4256W        W21472   7.801  13.538   3.606                        
 4257W        W21473   9.134   9.881   2.527                        
 4258W        W21474   7.320   5.655   1.479                        
 4259W        W21475   6.420   3.807   0.369                        
 4260W        W21476   2.531  12.027   1.430                        
 4261W        W21477   5.397   7.505   8.602                        
 4262W        W21478  11.243   4.131   9.792                        
 4263W        W21479   5.947  13.130   1.741                        
 4264W        W21480  10.127   8.030   9.760                        
 4265W        W21481  10.193  10.411   0.464                        
 4266W        W21482  13.924   7.290  10.765                        
 4267W        W21483   2.518  13.385   3.614                        
 4268W        W21484   3.293   2.237   1.402                        
 4269W        W21485  13.331  13.034   1.418                        
 4270W        W21486   9.666   5.644   2.230                        
 4271W        W21487   5.200  10.902   8.702                        
 4272W        W21488   8.843   1.683   8.385                        
 4273W        W21489   3.521   8.368   3.396                        
 4274W        W21490  11.813   3.509  10.761                        
 4275W        W21491  11.203   1.692  10.765                        
 4276W        W21492   2.464   9.626   9.953                        
 4277W        W21493   4.313   0.621  10.557                        
 4278W        W21494  13.107   6.522   9.788                        
 4279W        W21495   2.486   5.891   1.452                        
 4280W        W21496  11.478   2.799   2.813                        
 4281W        W21497   5.470   0.366  10.274                        
 4282W        W21498   5.904   7.828   9.207                        
 4283W        W21499   2.493   1.733   2.264                        
 4284W        W21500   1.134   8.597   1.952                        
 4285W        W21501   2.546   3.280   8.699                        
 4286W        W21502  12.335  12.037  11.565                        
 4287W        W21503   1.218   5.945   0.200                        
 4288W        W21504  12.302  10.210   4.176                        
 4289W        W21505  13.810   4.866   1.459                        
 4290W        W21506  11.805   8.331   3.127                        
 4291W        W21507  10.372   8.890   8.877                        
 4292W        W21508   2.494   2.501  10.780                        
 4293W        W21509  12.483   3.876   9.950                        
 4294W        W21510   1.754   8.912   1.757                        
 4295W        W21511   2.457   2.187   2.241                        
 4296W        W21512   5.911   0.075   1.710                        
 4297W        W21513   1.212   8.570  10.771                        
 4298W        W21514   6.530   2.225  11.814                        
 4299W        W21515   0.409   0.179  11.824                        
 4300W        W21516  11.984   3.591   1.168                        
 4301W        W21517  10.410  11.218   3.623                        
 4302W        W21518   5.389  12.267  11.901                        
 4303W        W21519   8.800  11.715   1.997                        
 4304W        W21520   9.610   7.842  10.537                        
 4305W        W21521  11.709   4.947   9.771                        
 4306W        W21522   4.033   6.212   1.497                        
 4307W        W21523  12.553   3.243  10.822                        
 4308W        W21524   0.982   4.043   0.103                        
 4309W        W21525   1.448   3.831  10.259                        
 4310W        W21526   1.167  10.659   0.657                        
 4311W        W21527   2.489   6.245   0.339                        
 4312W        W21528  12.611  10.420  11.931                        
 4313W        W21529   4.643  13.125   8.428                        
 4314W        W21530   7.287   8.867  10.851                        
 4315W        W21531   3.251   7.049  11.064                        
 4316W        W21532   1.656   3.059  10.592                        
 4317W        W21533   0.616   0.928   0.877                        
 4318W        W21534   6.999   2.724   0.903                        
 4319W        W21535   8.296   6.255   0.092                        
 4320W        W21536   6.466   5.390   1.989                        
 4321W        W21537   0.363   9.919   2.773                        
 4322W        W21538   9.356   3.570   9.201                        
 4323W        W21539   0.605   1.915   2.819                        
 4324W        W21540   3.547   6.686   8.661                        
 4325W        W21541   5.651   4.647   0.688                        
 4326W        W21542   1.995   3.360   8.679                        
 4327W        W21543  11.197   4.597   0.916                        
 4328W        W21544  12.509   0.190   8.362                        
 4329W        W21545   8.053  10.737  11.645                        
 4330W        W21546   8.906  13.539   8.674                        
 4331W        W21547   5.096   5.910   1.503                        
 4332W        W21548   9.698   6.474  11.373                        
 4333W        W21549   6.511   6.737   8.369                        
 4334W        W21550   5.109  12.285   2.744                        
 4335W        W21551  11.733   8.812   0.986                        
 4336W        W21552   8.285   0.640  11.347                        
 4337W        W21553   0.680   7.011   2.318                        
 4338W        W21554   4.640  11.516   0.981                        
 4339W        W21555   3.587   4.409   1.763                        
 4340W        W21556  12.255   3.622   0.351                        
 4341W        W21557   4.664  10.452   8.619                        
 4342W        W21558   7.301   8.595   2.215                        
 4343W        W21559   2.524   2.026   2.796                        
 4344W        W21560   9.348   2.008  10.236                        
 4345W        W21561   8.903   6.235   0.156                        
 4346W        W21562  11.800  11.008   1.936                        
 4347W        W21563   9.917   7.495   9.443                        
 4348W        W21564  11.291   5.390  11.910                        
 4349W        W21565  13.355   4.336  11.324                        
 4350W        W21566   9.338   0.624  10.758                        
 4351W        W21567   2.005  12.579   1.422                        
 4352W        W21568  13.556   8.576   8.992                        
 4353W        W21569   7.580   2.245   9.196                        
 4354W        W21570  10.715  12.221   8.642                        
 4355W        W21571   8.623   1.708   8.977                        
 4356W        W21572   8.104  12.032   0.434                        
 4357W        W21573  12.820   1.164  10.853                        
 4358W        W21574   3.330   7.523   9.937                        
 4359W        W21575  11.162   6.260   3.085                        
 4360W        W21576  13.817  12.241  11.892                        
 4361W        W21577   3.604  13.037   8.350                        
 4362W        W21578   4.362   5.435   8.111                        
 4363W        W21579   1.984   8.088   0.636                        
 4364W        W21580  10.197   7.296   0.912                        
 4365W        W21581  10.990   7.307   3.565                        
 4366W        W21582   9.378   1.449   1.985                        
 4367W        W21583   4.335  12.066   8.365                        
 4368W        W21584   0.095   5.675   9.703                        
 4369W        W21585  13.886   4.130   8.654                        
 4370W        W21586  13.892   3.367   0.337                        
 4371W        W21587   6.708   9.906  10.740                        
 4372W        W21588   5.706   2.308   0.911                        
 4373W        W21589   6.271  12.597   9.231                        
 4374W        W21590  12.011   1.677  10.582                        
 4375W        W21591   1.145  13.395   2.272                        
 4376W        W21592   2.754   3.765   4.072                        
 4377W        W21593   8.901   2.976   2.038                        
 4378W        W21594   4.609   5.681   0.888                        
 4379W        W21595   4.936   7.749   8.412                        
 4380W        W21596   3.095   6.979   1.518                        
 4381W        W21597   3.835   9.607   9.259                        
 4382W        W21598   7.316   6.146   8.675                        
 4383W        W21599   5.975   5.200   0.143                        
 4384W        W21600  11.534  13.389  10.851                        
 4385W        W21601  10.171   8.538  11.026                        
 4386W        W21602  13.854   0.652  10.469                        
 4387W        W21603   9.621   2.737   0.950                        
 4388W        W21604  13.667   6.408   8.156                        
 4389W        W21605   6.689   8.827   0.630                        
 4390W        W21606   1.509   2.013  11.639                        
 4391W        W21607   5.932  11.480  10.506                        
 4392W        W21608   7.223   4.897   1.731                        
 4393W        W21609  12.779   4.317   2.212                        
 4394W        W21610   9.675   8.073  11.388                        
 4395W        W21611  10.147   6.436  11.278                        
 4396W        W21612   9.345   9.943   0.446                        
 4397W        W21613   0.375   8.066   3.348                        
 4398W        W21614   9.415   3.602   2.583                        
 4399W        W21615   9.167  10.475   3.591                        
 4400W        W21616  10.993  12.549   8.917                        
 4401W        W21617   0.956   4.640   2.502                        
 4402W        W21618  12.580   3.891   2.029                        
 4403W        W21619   4.899   3.341   1.944                        
 4404W        W21620   3.507   9.854  11.322                        
 4405W        W21621  10.970   0.712  10.811                        
 4406W        W21622   9.851   3.518   2.224                        
 4407W        W21623   0.379   1.982  10.536                        
 4408W        W21624  12.745  13.912   9.198                        
 4409W        W21625   1.455   3.544  11.033                        
 4410W        W21626   9.657   2.710   1.677                        
 4411W        W21627   9.688   2.794  11.621                        
 4412W        W21628  13.107  12.229   1.263                        
 4413W        W21629   7.803   2.187   8.624                        
 4414W        W21630   3.824   7.531   1.416                        
 4415W        W21631   1.165   4.046   3.002                        
 4416W        W21632   6.407   6.174   3.071                        
 4417W        W21633   7.736   6.431   2.568                        
 4418W        W21634   4.098  11.749   1.989                        
 4419W        W21635   7.042   6.456  10.821                        
 4420W        W21636   1.484   5.632   1.682                        
 4421W        W21637   6.206  13.330   8.636                        
 4422W        W21638   5.481  13.862   9.137                        
 4423W        W21639  13.296   4.330   2.761                        
 4424W        W21640   8.844   9.434   8.680                        
 4425W        W21641   6.199   8.074  10.245                        
 4426W        W21642   7.258   4.124   3.383                        
 4427W        W21643  10.665   3.011   2.474                        
 4428W        W21644  13.319   4.359   8.093                        
 4429W        W21645  12.600   3.604   2.289                        
 4430W        W21646   2.730   7.727   1.731                        
 4431W        W21647   8.279   2.285   0.460                        
 4432W        W21648   2.476   1.403   9.983                        
 4433W        W21649   4.362   5.214   3.816                        
 4434W        W21650  13.278   2.789   0.463                        
 4435W        W21651  11.230  13.321   9.741                        
 4436W        W21652   4.107   9.853   1.428                        
 4437W        W21653  11.711  12.838   2.064                        
 4438W        W21654  10.909   1.252   4.109                        
 4439W        W21655  12.528   1.398   0.447                        
 4440W        W21656  10.427   7.825  10.860                        
 4441W        W21657   2.837   5.110   8.871                        
 4442W        W21658   7.314   5.699   2.048                        
 4443W        W21659  10.676  11.468   0.667                        
 4444W        W21660  12.246   9.899   2.823                        
 4445W        W21661   2.448   9.587   1.143                        
 4446W        W21662   6.696   0.967   1.423                        
 4447W        W21663  10.710   1.937   0.354                        
 4448W        W21664   7.833   5.176   9.744                        
 4449W        W21665  12.610  12.608   2.322                        
 4450W        W21666   7.516   4.363   2.516                        
 4451W        W21667   4.931  11.289   0.607                        
 4452W        W21668   1.683  13.903   8.101                        
 4453W        W21669  11.804   3.344  11.660                        
 4454W        W21670  11.165  12.515   3.048                        
 4455W        W21671   9.908   7.050   9.184                        
 4456W        W21672   1.178  12.545   9.509                        
 4457W        W21673   7.842   8.554  11.375                        
 4458W        W21674  11.467  11.465   9.766                        
 4459W        W21675   7.320   8.613   0.371                        
 4460W        W21676   4.919   1.922  11.120                        
 4461W        W21677  13.556   1.419  10.250                        
 4462W        W21678  12.301   3.050   2.024                        
 4463W        W21679  12.592  13.338   0.338                        
 4464W        W21680   0.654   8.627   0.980                        
 4465W        W21681   9.644  13.055   0.986                        
 4466W        W21682   4.567   4.928   8.461                        
 4467W        W21683  13.053  12.019   3.008                        
 4468W        W21684  11.814   6.712   9.159                        
 4469W        W21685   3.591   1.223   9.994                        
 4470W        W21686  12.766   3.629   1.173                        
 4471W        W21687   8.330   2.246   0.989                        
 4472W        W21688  13.913   7.740   3.892                        
 4473W        W21689  10.978   8.815  10.038                        
 4474W        W21690   6.409   3.241   3.606                        
 4475W        W21691   6.190   2.252   0.370                        
 4476W        W21692   5.907  12.311   9.977                        
 4477W        W21693   9.358  11.703   0.136                        
 4478W        W21694   4.413   5.896   2.765                        
 4479W        W21695  10.427   0.695   0.896                        
 4480W        W21696   5.354   3.345   3.610                        
 4481W        W21697   3.895   9.595   2.281                        
 4482W        W21698  13.871  12.513   0.659                        
 4483W        W21699   7.753  12.543   3.027                        
 4484W        W21700   3.251  11.285   8.934                        
 4485W        W21701   7.733   5.723   3.609                        
 4486W        W21702  13.310  12.056   3.311                        
 4487W        W21703   4.130   3.284   8.399                        
 4488W        W21704   3.544   0.973   8.335                        
 4489W        W21705   7.798  12.333   1.145                        
 4490W        W21706   3.291   1.774   9.215                        
 4491W        W21707   4.362  10.148   0.182                        
 4492W        W21708   2.521  10.698   9.755                        
 4493W        W21709  11.816  10.648   8.358                        
 4494W        W21710   3.510   3.103   3.076                        
 4495W        W21711  12.083   2.978   2.791                        
 4496W        W21712   0.129   6.476   9.720                        
 4497W        W21713   2.730   3.597   8.175                        
 4498W        W21714  11.799   0.627   8.613                        
 4499W        W21715   6.428   1.155   3.881                        
 4500W        W21716   4.057  13.333   0.969                        
 4501W        W21717  12.498   1.414  11.344                        
 4502W        W21718   0.928   4.313  11.357                        
 4503W        W21719   1.132   6.473   9.698                        
 4504W        W21720  11.984   4.650   7.544                        
 4505W        W21721  13.931   6.961   9.468                        
 4506W        W21722   1.436   4.107   0.872                        
 4507W        W21723   6.494   7.027   8.962                        
 4508W        W21724   2.778   4.572  10.515                        
 4509W        W21725   6.955   9.616  11.050                        
 4510W        W21726   7.013  13.310  10.526                        
 4511W        W21727   4.375  13.354   9.182                        
 4512W        W21728   9.696   1.918   8.877                        
 4513W        W21729  12.861  13.360   9.939                        
 4514W        W21730   9.902  12.770  11.048                        
 4515W        W21731   0.598   2.287   8.990                        
 4516W        W21732   6.466   5.432   3.854                        
 4517W        W21733   9.332   6.695   8.669                        
 4518W        W21734   1.246   8.605   9.985                        
 4519W        W21735   6.445   6.686   8.985                        
 4520W        W21736   4.342   2.763  11.297                        
 4521W        W21737  13.052   2.480   0.709                        
 4522W        W21738   6.981  11.531  11.372                        
 4523W        W21739   5.140   6.462   2.563                        
 4524W        W21740   3.506   4.878   8.440                        
 4525W        W21741   9.404   8.546   2.591                        
 4526W        W21742  10.661  13.545   0.088                        
 4527W        W21743  13.831   1.761   8.680                        
 4528W        W21744   9.389  11.690   2.765                        
 4529W        W21745  10.635  11.027   0.728                        
 4530W        W21746  12.075  11.198  11.308                        
 4531W        W21747   1.246   2.206   3.864                        
 4532W        W21748   8.841   3.545   9.738                        
 4533W        W21749  13.837   6.143   9.964                        
 4534W        W21750  13.817   8.274  11.040                        
 4535W        W21751   3.549   5.387  10.590                        
 4536W        W21752   4.685   0.067   1.449                        
 4537W        W21753   9.580   3.858   2.271                        
 4538W        W21754   9.335   9.062  10.500                        
 4539W        W21755   8.275  12.842   3.616                        
 4540W        W21756  12.051   3.558   3.538                        
 4541W        W21757   3.828   5.470   0.884                        
 4542W        W21758   8.575   9.124   0.611                        
 4543W        W21759   4.666   3.290   9.463                        
 4544W        W21760  10.988   4.331   0.676                        
 4545W        W21761   3.519  10.423  10.266                        
 4546W        W21762   3.828   7.727   0.404                        
 4547W        W21763   8.309   4.150   3.271                        
 4548W        W21764   0.660   9.443   1.676                        
 4549W        W21765   2.552   0.939  10.300                        
 4550W        W21766   1.677   7.536   9.142                        
 4551W        W21767  10.406   9.365   8.415                        
 4552W        W21768   2.549   4.645  11.333                        
 4553W        W21769   8.634   4.380   1.671                        
 4554W        W21770   0.335   3.630   8.925                        
 4555W        W21771   1.939  11.763   1.783                        
 4556W        W21772   1.465   2.838   9.782                        
 4557W        W21773   3.553   7.480  11.083                        
 4558W        W21774  10.680  12.309  10.306                        
 4559W        W21775   4.119   1.398  11.362                        
 4560W        W21776   4.372   4.080   3.379                        
 4561W        W21777   8.021   0.703   3.622                        
 4562W        W21778   5.645   6.969  10.773                        
 4563W        W21779   5.925   7.481   4.166                        
 4564W        W21780   9.341  10.667   3.383                        
 4565W        W21781   1.680   8.303   1.485                        
 4566W        W21782   5.182  13.807  11.803                        
 4567W        W21783  11.999  10.484  10.584                        
 4568W        W21784   9.122   1.679  10.482                        
 4569W        W21785  11.972  13.288   9.473                        
 4570W        W21786  11.234   0.898   3.664                        
 4571W        W21787   1.725   7.828   0.084                        
 4572W        W21788   5.671  12.842  11.120                        
 4573W        W21789  13.593  12.505   2.788                        
 4574W        W21790   2.787   1.166  11.367                        
 4575W        W21791   0.693   8.120   9.501                        
 4576W        W21792  11.440   4.677  11.621                        
 4577W        W21793   3.298  12.222   2.257                        
 4578W        W21794   7.512   3.091   0.356                        
 4579W        W21795   1.459  10.904   8.342                        
 4580W        W21796   6.205  12.601  11.308                        
 4581W        W21797   2.297  10.735   3.654                        
 4582W        W21798   7.767   1.932  10.035                        
 4583W        W21799   9.577  11.184   8.608                        
 4584W        W21800  13.628   0.103   8.674                        
 4585W        W21801  13.092   3.883  10.306                        
 4586W        W21802   5.354  10.939   9.175                        
 4587W        W21803  10.402  11.454   0.954                        
 4588W        W21804   2.810  13.031  11.581                        
 4589W        W21805  11.802   9.331  11.576                        
 4590W        W21806   2.458   1.235   7.901                        
 4591W        W21807   2.828  11.795  10.228                        
 4592W        W21808   1.217   2.235  11.369                        
 4593W        W21809   3.617   3.062  11.551                        
 4594W        W21810   2.504   7.589   9.999                        
 4595W        W21811   8.320   6.773   0.671                        
 4596W        W21812   6.987  12.517   7.657                        
 4597W        W21813  11.214   5.438   9.530                        
 4598W        W21814  12.581   4.824  11.627                        
 4599W        W21815  11.781   6.441   9.694                        
 4600W        W21816   4.913   7.296   0.135                        
 4601W        W21817  13.386   2.197  10.755                        
 4602W        W21818   6.794   2.548   0.999                        
 4603W        W21819  11.260   0.412   9.462                        
 4604W        W21820  12.777  10.964   3.556                        
 4605W        W21821   5.742  13.549  10.595                        
 4606W        W21822   7.474  11.526   8.368                        
 4607W        W21823   8.624  11.481  11.040                        
 4608W        W21824  13.648  10.138   1.261                        
 4609W        W21825   1.729  11.206   2.471                        
 4610W        W21826   3.871   7.492   8.436                        
 4611W        W21827   1.142  12.285  10.845                        
 4612W        W21828  13.545  13.550   3.322                        
 4613W        W21829   4.588   2.226   2.488                        
 4614W        W21830   8.814  12.746   2.046                        
 4615W        W21831  10.201  11.475  10.496                        
 4616W        W21832  11.451   4.330   2.330                        
 4617W        W21833   7.007   3.572   0.890                        
 4618W        W21834   0.923   1.768   1.717                        
 4619W        W21835   1.668   7.747   3.600                        
 4620W        W21836   1.482   9.103   0.644                        
 4621W        W21837   9.441   4.039   8.966                        
 4622W        W21838   3.249   1.981   2.854                        
 4623W        W21839   8.562  13.059  11.613                        
 4624W        W21840   8.586   8.627   8.640                        
 4625W        W21841   4.036   0.167  11.111                        
 4626W        W21842   3.628   5.905  10.754                        
 4627W        W21843  13.818   1.665   0.382                        
 4628W        W21844  13.328   0.674   9.414                        
 4629W        W21845   2.262   1.493   8.703                        
 4630W        W21846   4.317   8.808   9.715                        
 4631W        W21847   0.708   5.969   9.945                        
 4632W        W21848   6.270   7.247  11.306                        
 4633W        W21849   9.912   7.594  11.059                        
 4634W        W21850  13.357   4.624   0.182                        
 4635W        W21851   1.979   8.362   1.766                        
 4636W        W21852   9.425   6.699   2.571                        
 4637W        W21853   2.196   5.410   2.594                        
 4638W        W21854  12.531   6.426   9.474                        
 4639W        W21855   0.334   9.599  11.040                        
 4640W        W21856   5.123   9.889   0.161                        
 4641W        W21857   3.858   2.811   0.439                        
 4642W        W21858   1.185  13.622   8.731                        
 4643W        W21859   3.543   1.174   2.788                        
 4644W        W21860  13.890   3.571  10.563                        
 4645W        W21861   8.025   4.133   8.728                        
 4646W        W21862   7.753   7.464   3.273                        
 4647W        W21863   7.033   6.682   8.464                        
 4648W        W21864  12.326  13.592  11.629                        
 4649W        W21865   7.319   0.090  10.290                        
 4650W        W21866   2.274  13.912   1.752                        
 4651W        W21867   3.018  12.556  11.810                        
 4652W        W21868   8.363  10.993   0.153                        
 4653W        W21869   0.444  10.184   0.100                        
 4654W        W21870  12.827   8.065  11.279                        
 4655W        W21871   0.870   9.086   9.731                        
 4656W        W21872   8.538   5.733   2.518                        
 4657W        W21873   8.079  11.521  11.020                        
 4658W        W21874   9.093   6.704   0.398                        
 4659W        W21875   7.821   5.480   8.675                        
 4660W        W21876   0.879   4.309   0.682                        
 4661W        W21877   7.750   8.623   8.907                        
 4662W        W21878   1.411  10.116   2.738                        
 4663W        W21879   0.614   8.873   1.186                        
 4664W        W21880   6.715   4.826   1.741                        
 4665W        W21881  13.864   0.187   0.082                        
 4666W        W21882   5.947  10.999  11.380                        
 4667W        W21883   3.895   3.778  11.651                        
 4668W        W21884   8.008   1.206   9.996                        
 4669W        W21885   6.701   3.509   0.913                        
 4670W        W21886   5.121   0.184   4.197                        
 4671W        W21887   8.256   9.927  11.620                        
 4672W        W21888   3.846   4.424   2.860                        
 4673W        W21889   1.950   9.441   8.341                        
 4674W        W21890   0.606   6.785   9.795                        
 4675W        W21891   6.697   1.973   1.476                        
 4676W        W21892   1.667   5.712  10.060                        
 4677W        W21893  11.735   5.647   1.961                        
 4678W        W21894   2.208   9.703   1.143                        
 4679W        W21895  13.322   8.828   4.163                        
 4680W        W21896  12.053   0.457  11.317                        
 4681W        W21897   9.100   6.714   3.082                        
 4682W        W21898   3.565   6.799  10.798                        
 4683W        W21899  11.491   7.477   8.935                        
 4684W        W21900   8.895  11.289   2.031                        
 4685W        W21901   2.570   0.944   0.189                        
 4686W        W21902  12.302   4.416  11.105                        
 4687W        W21903   4.627   4.593  10.482                        
 4688W        W21904   5.941  10.104   3.393                        
 4689W        W21905  12.871   4.631   3.070                        
 4690W        W21906   5.182   2.772   8.375                        
 4691W        W21907   1.168   5.152  10.531                        
 4692W        W21908   6.268   7.739   3.044                        
 4693W        W21909  12.517  11.549   0.424                        
 4694W        W21910   5.922   7.211   1.720                        
 4695W        W21911   7.313   9.103  11.008                        
 4696W        W21912   1.253   8.386   1.168                        
 4697W        W21913  10.760   7.328   3.315                        
 4698W        W21914  13.054   1.139   2.212                        
 4699W        W21915  10.214  13.037   1.463                        
 4700W        W21916   6.698   4.854   0.911                        
 4701W        W21917   6.420   4.160   0.924                        
 4702W        W21918  12.516   1.734  10.323                        
 4703W        W21919  10.132   4.154   1.218                        
 4704W        W21920   3.536   0.625   1.414                        
 4705W        W21921   5.396   6.243  11.841                        
 4706W        W21922   5.113   7.470   9.466                        
 4707W        W21923   9.648   0.707   9.710                        
 4708W        W21924   1.949  10.684   2.202                        
 4709W        W21925  10.382   2.721   9.975                        
 4710W        W21926   3.258   1.397  11.856                        
 4711W        W21927   1.739   2.810   1.693                        
 4712W        W21928   9.593   4.621   2.022                        
 4713W        W21929   6.251   2.568   1.792                        
 4714W        W21930   3.780   7.007   0.092                        
 4715W        W21931   9.867  11.447   2.503                        
 4716W        W21932   1.460   9.707   0.635                        
 4717W        W21933  13.662   9.320   9.682                        
 4718W        W21934   9.328   2.221   0.728                        
 4719W        W21935  12.000   5.105   3.643                        
 4720W        W21936   1.142   5.965   0.421                        
 4721W        W21937   5.398  13.608   2.749                        
 4722W        W21938  10.209   9.139   9.146                        
 4723W        W21939   1.986  11.536  11.660                        
 4724W        W21940  11.018   8.078  10.784                        
 4725W        W21941  11.247   0.333   2.781                        
 4726W        W21942  11.163   1.448  10.003                        
 4727W        W21943   4.580   1.755   9.766                        
 4728W        W21944   3.291   8.263   9.700                        
 4729W        W21945   5.689   9.588  10.786                        
 4730W        W21946   6.240  12.051   3.621                        
 4731W        W21947   7.246   8.283   3.590                        
 4732W        W21948   7.560  13.839   3.311                        
 4733W        W21949   5.468   2.996   8.665                        
 4734W        W21950   9.846   8.791  10.557                        
 4735W        W21951   9.946   3.066   3.317                        
 4736W        W21952  13.317   4.859   7.566                        
 4737W        W21953   9.353   9.927   3.359                        
 4738W        W21954  13.063   2.039   3.091                        
 4739W        W21955   6.743   9.357   4.081                        
 4740W        W21956   7.855  10.385   0.386                        
 4741W        W21957   3.359   9.054   3.589                        
 4742W        W21958   7.817  12.267   0.080                        
 4743W        W21959   3.822  12.279   9.412                        
 4744W        W21960   2.209   1.729   3.317                        
 4745W        W21961   8.278   2.188  11.626                        
 4746W        W21962  12.248   3.308   3.046                        
 4747W        W21963   0.117   6.710   0.337                        
 4748W        W21964   9.644  11.977  11.877                        
 4749W        W21965   1.241  13.614   1.410                        
 4750W        W21966   5.947   4.075  10.284                        
 4751W        W21967  12.337   9.140   3.570                        
 4752W        W21968  13.303   4.142   1.168                        
 4753W        W21969   8.636  12.589   9.192                        
 4754W        W21970   0.419  12.326  10.483                        
 4755W        W21971   0.110   7.322   8.923                        
 4756W        W21972  13.618   6.713   3.639                        
 4757W        W21973   0.975   5.935  11.587                        
 4758W        W21974   8.885  10.712   2.303                        
 4759W        W21975   9.688   8.031   3.619                        
 4760W        W21976  11.542   3.256   3.091                        
 4761W        W21977   5.630  10.186   0.677                        
 4762W        W21978  12.294  11.532   0.106                        
 4763W        W21979   2.034   4.398  11.921                        
 4764W        W21980   3.038  10.157  11.651                        
 4765W        W21981   1.445   1.970   2.206                        
 4766W        W21982   2.784   4.342   0.870                        
 4767W        W21983  12.045   1.485   0.615                        
 4768W        W21984  13.352   9.363   3.040                        
 4769W        W21985   5.405  12.865  11.064                        
 4770W        W21986  11.732   5.733   0.186                        
 4771W        W21987  12.876  13.097  10.046                        
 4772W        W21988  10.763   9.910   9.509                        
 4773W        W21989   3.619   1.931   2.864                        
 4774W        W21990   8.079  11.727  10.019                        
 4775W        W21991   8.317   2.530  10.531                        
 4776W        W21992   0.723   8.296   1.405                        
 4777W        W21993   0.082   5.658   0.668                        
 4778W        W21994  13.891  12.235   8.878                        
 4779W        W21995   8.273   3.042  11.072                        
 4780W        W21996   5.401   0.407   1.502                        
 4781W        W21997  12.337   8.029   3.116                        
 4782W        W21998   9.377  11.472   9.782                        
 4783W        W21999   7.474   4.412   2.065                        
 4784W        W22000  12.258   6.963   0.348                        
 4785W        W22001  12.787  10.979   3.104                        
 4786W        W22002   9.696  10.451   1.940                        
 4787W        W22003   0.125   4.115   3.349                        
 4788W        W22004  13.038   5.368  11.663                        
 4789W        W22005   2.499   9.347   1.483                        
 4790W        W22006  10.960   2.755  11.628                        
 4791W        W22007   4.151   7.012  11.081                        
 4792W        W22008   3.624   8.292   2.044                        
 4793W        W22009  12.238   4.947   1.695                        
 4794W        W22010  13.032  10.227   3.077                        
 4795W        W22011   5.914   3.071   3.537                        
 4796W        W22012   2.785   2.247   1.967                        
 4797W        W22013   7.750   2.999   9.797                        
 4798W        W22014   7.844  10.157  11.361                        
 4799W        W22015  13.275   0.640   9.796                        
 4800W        W22016   3.505  13.912   2.252                        
 4801W        W22017  11.968   5.667   9.531                        
 4802W        W22018   3.362   7.751   8.869                        
 4803W        W22019   9.672  13.340  11.597                        
 4804W        W22020   0.894  13.557   3.289                        
 4805W        W22021   8.872   5.923  11.359                        
 4806W        W22022  12.599  13.814  11.018                        
 4807W        W22023   3.581   0.629   3.296                        
 4808W        W22024   1.698   6.528  11.375                        
 4809W        W22025  11.982   9.393  10.058                        
 4810W        W22026   7.507   9.325   0.383                        
 4811W        W22027   5.961  13.089   3.884                        
 4812W        W22028   4.127   0.672  11.021                        
 4813W        W22029   2.453  13.277   8.426                        
 4814W        W22030   1.230   7.468   0.339                        
 4815W        W22031   4.325   7.511   0.684                        
 4816W        W22032  13.393   5.916   1.464                        
 4817W        W22033   7.516  10.965  10.841                        
 4818W        W22034   5.708   8.376   3.385                        
 4819W        W22035   0.902  12.345   9.751                        
 4820W        W22036   1.165  13.549  10.845                        
 4821W        W22037   6.243  12.572   1.694                        
 4822W        W22038   4.582   9.404   0.996                        
 4823W        W22039   5.680  11.721  11.844                        
 4824W        W22040  12.074   4.845   3.027                        
 4825W        W22041   3.850  13.575   0.097                        
 4826W        W22042  12.262   6.233   0.398                        
 4827W        W22043   9.642   5.669   8.916                        
 4828W        W22044  12.238   9.063   0.105                        
 4829W        W22045  12.807  12.844  11.027                        
 4830W        W22046   7.534   4.088   8.462                        
 4831W        W22047   9.435   6.473   2.495                        
 4832W        W22048   3.793   7.325  10.045                        
 4833W        W22049   4.842  12.251   8.163                        
 4834W        W22050   8.296   3.090   2.812                        
 4835W        W22051   6.801   3.527   8.443                        
 4836W        W22052   5.134  11.282   9.424                        
 4837W        W22053   4.831   9.088   3.589                        
 4838W        W22054  13.860   8.526   2.486                        
 4839W        W22055   9.652   0.176   7.828                        
 4840W        W22056  12.270   7.220   9.518                        
 4841W        W22057   1.425  11.523   0.438                        
 4842W        W22058   1.159   2.711   3.599                        
 4843W        W22059   0.137  12.828   0.406                        
 4844W        W22060   3.541   3.291   0.136                        
 4845W        W22061   4.686  13.314   9.471                        
 4846W        W22062   6.456  12.840  10.052                        
 4847W        W22063  11.432   6.226  10.775                        
 4848W        W22064   2.769  12.516   7.871                        
 4849W        W22065   8.638   6.418  11.015                        
 4850W        W22066  12.569   1.400   8.612                        
 4851W        W22067   2.022   3.041   1.958                        
 4852W        W22068   3.819   7.065   9.149                        
 4853W        W22069   7.330   5.654   4.152                        
 4854W        W22070   5.199   7.494   0.084                        
 4855W        W22071  10.698  12.868   0.190                        
 4856W        W22072  13.125   0.404   9.970                        
 4857W        W22073   1.957   9.130  10.540                        
 4858W        W22074   4.903   0.193   1.723                        
 4859W        W22075  13.595   9.627   2.757                        
 4860W        W22076   3.504  12.779   3.585                        
 4861W        W22077  12.803   9.369   8.615                        
 4862W        W22078   1.674   9.843  11.014                        
 4863W        W22079   0.704  12.241   2.058                        
 4864W        W22080  13.879   8.365  11.301                        
 4865W        W22081  11.508   8.612   2.752                        
 4866W        W22082   3.266  13.055   1.693                        
 4867W        W22083   7.281   6.694   8.727                        
 4868W        W22084   0.073   6.518   3.109                        
 4869W        W22085  10.170   1.732  11.632                        
 4870W        W22086   5.970   3.818   7.546                        
 4871W        W22087   9.596   0.104   8.941                        
 4872W        W22088   7.996  11.743   0.367                        
 4873W        W22089  13.620   2.804  10.543                        
 4874W        W22090   0.618  13.865   0.675                        
 4875W        W22091   1.420   9.403   0.094                        
 4876W        W22092  12.227   0.621   2.227                        
 4877W        W22093   4.902   5.699   1.172                        
 4878W        W22094   1.442   9.863   8.071                        
 4879W        W22095   5.410  12.311   9.947                        
 4880W        W22096   2.775  12.229   8.922                        
 4881W        W22097   2.035   4.336   3.655                        
 4882W        W22098   7.543   9.413   0.141                        
 4883W        W22099   4.412   4.932   0.644                        
 4884W        W22100   8.526  13.355   9.714                        
 4885W        W22101  11.785  11.019   0.167                        
 4886W        W22102   2.837  13.929   2.311                        
 4887W        W22103   4.952   1.507   1.464                        
 4888W        W22104   8.080  12.494   1.259                        
 4889W        W22105   8.313  11.819  11.385                        
 4890W        W22106   8.577   9.935   1.950                        
 4891W        W22107  11.469   5.738   2.479                        
 4892W        W22108   9.642   5.632   1.239                        
 4893W        W22109   3.005   7.566   3.302                        
 4894W        W22110   1.439   6.981   8.931                        
 4895W        W22111  12.341  11.802  11.897                        
 4896W        W22112  10.144  10.701   1.758                        
 4897W        W22113   8.615   5.152   9.782                        
 4898W        W22114   7.840  11.265   3.311                        
 4899W        W22115   7.501   5.434  10.326                        
 4900W        W22116   0.122   9.091   3.645                        
 4901W        W22117   7.063   6.788  10.308                        
 4902W        W22118   9.607   4.311  11.905                        
 4903W        W22119   3.550  11.998   2.736                        
 4904W        W22120   5.122  13.545   9.259                        
 4905W        W22121   5.375   9.055   9.208                        
 4906W        W22122   0.152   5.944   1.187                        
 4907W        W22123  12.230   6.519   1.800                        
 4908W        W22124  13.332   8.606   3.029                        
 4909W        W22125  12.081   8.056   0.369                        
 4910W        W22126   9.123   8.820   1.480                        
 4911W        W22127   7.789  13.093   4.338                        
 4912W        W22128   3.536  12.079   3.345                        
 4913W        W22129   8.307  12.041   1.973                        
 4914W        W22130   0.367   4.393  11.025                        
 4915W        W22131   2.979   9.603  11.656                        
 4916W        W22132   2.974   4.053   0.425                        
 4917W        W22133   9.888  10.929  11.803                        
 4918W        W22134  12.272   9.405   4.385                        
 4919W        W22135   5.951   4.367   0.872                        
 4920W        W22136   6.247   8.054   2.547                        
 4921W        W22137   1.467   9.589   1.992                        
 4922W        W22138  10.752   4.586   3.576                        
 4923W        W22139  11.713   2.559   3.551                        
 4924W        W22140   9.443   2.473   2.046                        
 4925W        W22141   5.372  10.112  11.585                        
 4926W        W22142   6.246   8.891   0.191                        
 4927W        W22143   4.869   3.244   0.448                        
 4928W        W22144   8.864   0.941  11.644                        
 4929W        W22145  12.574   4.356  10.510                        
 4930W        W22146   3.839  10.679   0.109                        
 4931W        W22147   1.661   3.827  11.584                        
 4932W        W22148  13.932  13.279   0.602                        
 4933W        W22149   2.729  10.762   1.253                        
 4934W        W22150   0.081   4.855   0.195                        
 4935W        W22151   2.839   5.095   1.405                        
 4936W        W22152   6.956  11.716   2.595                        
 4937W        W22153   5.474  10.116   1.760                        
 4938W        W22154   0.334  13.570  10.737                        
 4939W        W22155   6.953   0.929   8.925                        
 4940W        W22156   7.794   0.685  11.536                        
 4941W        W22157   1.923  10.195   1.784                        
 4942W        W22158  13.888   8.093  10.573                        
 4943W        W22159   4.923   6.978   0.349                        
 4944W        W22160   3.298   5.187   3.880                        
 4945W        W22161   4.850   0.875   2.276                        
 4946W        W22162   6.983  11.456  10.209                        
 4947W        W22163   1.445   7.811  11.821                        
 4948W        W22164   1.463   1.674   9.475                        
 4949W        W22165  12.063  11.976   1.767                        
 4950W        W22166   9.393   1.237   2.843                        
 4951W        W22167  13.811  11.989   3.017                        
 4952W        W22168   7.519   8.557  11.352                        
 4953W        W22169   8.102   0.631   1.250                        
 4954W        W22170   8.101   4.683   9.415                        
 4955W        W22171   1.125   4.916   0.139                        
 4956W        W22172   3.557  11.471   8.945                        
 4957W        W22173   2.711   5.641   4.162                        
 4958W        W22174  11.485  13.893   3.019                        
 4959W        W22175  10.644   3.878  11.599                        
 4960W        W22176  12.541   8.297  10.748                        
 4961W        W22177   9.062  10.206   0.680                        
 4962W        W22178   1.967   6.678  11.385                        
 4963W        W22179  12.786   8.349   0.165                        
 4964W        W22180   6.256   5.972   3.011                        
 4965W        W22181   4.601  13.292   0.126                        
 4966W        W22182  11.226   8.033  10.302                        
 4967W        W22183   1.755   6.707   1.717                        
 4968W        W22184   4.396   4.852   9.176                        
 4969W        W22185   5.417  11.695   2.229                        
 4970W        W22186   9.086   3.594   3.389                        
 4971W        W22187  10.369   0.381  11.053                        
 4972W        W22188   9.348   1.928   0.918                        
 4973W        W22189   2.292   4.632   0.642                        
 4974W        W22190  12.251   9.072  10.816                        
 4975W        W22191  10.114   0.961   0.183                        
 4976W        W22192   3.895   5.366   0.417                        
 4977W        W22193   1.771   6.708   9.264                        
 4978W        W22194   4.135   9.854  11.914                        
 4979W        W22195   0.980   2.482   0.652                        
 4980W        W22196   4.883   9.957   1.262                        
 4981W        W22197   6.144   9.930   3.284                        
 4982W        W22198   1.173   0.372  10.001                        
 4983W        W22199  12.330  11.281   1.517                        
 4984W        W22200  13.585   0.698   8.955                        
 4985W        W22201   9.393   5.105   3.619                        
 4986W        W22202  12.235   0.979  11.335                        
 4987W        W22203  10.928   0.180   1.953                        
 4988W        W22204   4.146  11.460   3.107                        
 4989W        W22205   8.285   2.232   1.215                        
 4990W        W22206   0.620   3.860   1.204                        
 4991W        W22207   9.930   8.308   1.955                        
 4992W        W22208  12.594   3.615  11.292                        
 4993W        W22209   7.008   2.552   1.229                        
 4994W        W22210  13.292   7.229  11.816                        
 4995W        W22211   8.030   5.208   4.384                        
 4996W        W22212   0.867   1.944   3.610                        
 4997W        W22213   7.027   5.205   9.950                        
 4998W        W22214   7.825  11.214  11.302                        
 4999W        W22215   2.491  11.761  11.369                        
 5000W        W22216   9.177   0.921   3.550                        
 5001W        W22217   8.065   8.809   1.429                        
 5002W        W22218  12.265   2.023  10.534                        
 5003W        W22219  13.829  12.269   4.181                        
 5004W        W22220  10.117   3.532   0.969                        
 5005W        W22221  13.072  11.701  11.824                        
 5006W        W22222   4.944  11.726   2.320                        
 5007W        W22223   1.508  13.332  10.327                        
 5008W        W22224   4.571   7.312   1.494                        
 5009W        W22225   1.200  10.723   8.984                        
 5010W        W22226   4.652   3.871   3.637                        
 5011W        W22227   5.127   9.071  10.482                        
 5012W        W22228  12.252   8.080   8.910                        
 5013W        W22229   1.241   8.312   0.698                        
 5014W        W22230   8.560  13.663   9.210                        
 5015W        W22231   8.016   6.525   0.197                        
 5016W        W22232   7.578  11.458   1.466                        
 5017W        W22233   4.105  10.459   9.512                        
 5018W        W22234   5.921   1.167  10.006                        
 5019W        W22235   6.994   3.564  11.650                        
 5020W        W22236   7.281   5.090   0.725                        
 5021W        W22237  11.782   3.081   9.792                        
 5022W        W22238   0.081   8.068   7.841                        
 5023W        W22239   6.420   4.333   9.671                        
 5024W        W22240   4.874  13.362   9.148                        
 5025W        W22241   5.968   8.543  10.546                        
 5026W        W22242   4.858   0.131   1.238                        
 5027W        W22243  12.596   6.166   3.002                        
 5028W        W22244  10.164  10.455   8.912                        
 5029W        W22245  11.520  12.564   8.909                        
 5030W        W22246  11.712   0.379   0.376                        
 5031W        W22247  11.553   8.054  11.120                        
 5032W        W22248   6.532   3.312  10.269                        
 5033W        W22249   6.259   0.419   3.536                        
 5034W        W22250  10.927   8.034   8.876                        
 5035W        W22251   8.878   6.219  11.923                        
 5036W        W22252   2.296   1.658  11.066                        
 5037W        W22253  13.848  11.554   9.437                        
 5038W        W22254   3.353   1.231   8.881                        
 5039W        W22255   8.120   9.069  10.756                        
 5040W        W22256  11.514   3.598   8.385                        
 5041W        W22257   9.949   9.173   9.733                        
 5042W        W22258  12.336   0.932  11.914                        
 5043W        W22259   8.029   9.436   2.761                        
 5044W        W22260   0.933   6.230   2.487                        
 5045W        W22261   3.622   9.953   0.124                        
 5046W        W22262   7.802   2.795  10.220                        
 5047W        W22263   6.418  12.532   9.942                        
 5048W        W22264   3.887   8.314   1.523                        
 5049W        W22265   8.114   6.723   2.048                        
 5050W        W22266   2.454   5.477   8.111                        
 5051W        W22267   8.008   7.853   3.108                        
 5052W        W22268   8.369  12.321   1.192                        
 5053W        W22269   2.558   2.244   8.987                        
 5054W        W22270   9.152   8.859   3.578                        
 5055W        W22271  12.833   2.737  10.319                        
 5056W        W22272  10.707   0.339   2.568                        
 5057W        W22273   8.797   8.095   0.965                        
 5058W        W22274   6.979  10.222   8.644                        
 5059W        W22275  12.748  11.211   2.809                        
 5060W        W22276   6.705   0.117   7.599                        
 5061W        W22277  10.130  10.896  11.389                        
 5062W        W22278  12.503  12.756   8.982                        
 5063W        W22279   7.574   6.765   3.296                        
 5064W        W22280  10.751  11.770   0.700                        
 5065W        W22281  13.137   9.091  10.487                        
 5066W        W22282  13.891   0.896   7.581                        
 5067W        W22283   8.101   7.802   9.249                        
 5068W        W22284   7.567   5.468   9.156                        
 5069W        W22285   3.825   8.909   3.340                        
 5070W        W22286  13.329  10.429   3.931                        
 5071W        W22287   0.868   8.596   1.736                        
 5072W        W22288   6.268   7.274   2.265                        
 5073W        W22289   9.165  13.368   7.921                        
 5074W        W22290   3.600  11.266   3.569                        
 5075W        W22291  10.981   0.343   0.142                        
 5076W        W22292   7.053  10.667  11.885                        
 5077W        W22293   3.262   5.986   0.183                        
 5078W        W22294  11.455   1.654   2.589                        
 5079W        W22295   1.467   7.528   9.514                        
 5080W        W22296  10.991   3.318  10.510                        
 5081W        W22297   1.936  12.080   9.421                        
 5082W        W22298  13.553  10.113  10.786                        
 5083W        W22299  10.388  10.210  11.052                        
 5084W        W22300   3.031  10.438   9.748                        
 5085W        W22301   4.606  13.829  11.018                        
 5086W        W22302   6.937   6.487   2.322                        
 5087W        W22303   8.618   1.441   9.745                        
 5088W        W22304   4.347   4.116   8.416                        
 5089W        W22305   6.800   8.642  10.207                        
 5090W        W22306   5.151   4.887  11.663                        
 5091W        W22307   9.663   5.956   3.391                        
 5092W        W22308   7.305  10.666   2.859                        
 5093W        W22309   2.274   2.749  10.010                        
 5094W        W22310   9.370   7.007   3.827                        
 5095W        W22311   0.606   7.224   2.252                        
 5096W        W22312   5.672   0.913   0.438                        
 5097W        W22313  13.331   8.107   9.405                        
 5098W        W22314  13.299  12.528  11.128                        
 5099W        W22315   2.204   5.881   4.407                        
 5100W        W22316   3.844   0.683   2.269                        
 5101W        W22317   1.484   4.359   0.899                        
 5102W        W22318  11.267   2.742  11.599                        
 5103W        W22319  13.829   6.982   0.979                        
 5104W        W22320   4.314   6.454   0.940                        
 5105W        W22321   4.392   6.447  11.855                        
 5106W        W22322   2.456   7.262   3.380                        
 5107W        W22323  10.988   9.845   3.561                        
 5108W        W22324   8.037   8.344  11.813                        
 5109W        W22325   8.067   3.521  10.205                        
 5110W        W22326  12.514   2.758   3.098                        
 5111W        W22327   9.367   4.070   1.145                        
 5112W        W22328   1.437   0.874   4.172                        
 5113W        W22329  12.588  11.545   7.623                        
 5114W        W22330  11.011   2.240  10.033                        
 5115W        W22331   7.586   5.350   7.862                        
 5116W        W22332   6.150   5.142   2.225                        
 5117W        W22333  13.402  11.002   0.102                        
 5118W        W22334  13.032   5.671   0.438                        
 5119W        W22335   3.030   1.471   1.746                        
 5120W        W22336   9.075   0.353  11.270                        
 5121W        W22337   5.968   1.959   9.204                        
 5122W        W22338   6.687   8.878   2.223                        
 5123W        W22339   3.628   2.202   2.521                        
 5124W        W22340   7.503   0.417   3.867                        
 5125W        W22341   2.282  10.706   0.633                        
 5126W        W22342  11.020   4.619   3.392                        
 5127W        W22343  11.169  10.656   0.427                        
 5128W        W22344  11.755   6.959   0.678                        
 5129W        W22345  12.078   0.618   8.670                        
 5130W        W22346  11.976   4.302  10.241                        
 5131W        W22347   9.905   2.509  10.813                        
 5132W        W22348   0.186   8.346  10.789                        
 5133W        W22349   5.886  10.147   2.032                        
 5134W        W22350   1.677   6.786  10.054                        
 5135W        W22351  12.324  13.027  10.765                        
 5136W        W22352   5.919  12.773   9.719                        
 5137W        W22353   9.410   8.365   2.544                        
 5138W        W22354   7.275   6.964   8.658                        
 5139W        W22355   1.164   5.089   2.472                        
 5140W        W22356  12.796   6.493   0.083                        
 5141W        W22357  12.809   6.208   0.366                        
 5142W        W22358   2.742   7.508   8.091                        
 5143W        W22359  13.604   0.961   2.035                        
 5144W        W22360   3.836  12.331   0.408                        
 5145W        W22361   9.626   9.356  11.850                        
 5146W        W22362   1.471  11.963   3.657                        
 5147W        W22363   2.818   5.113   0.197                        
 5148W        W22364   2.190  11.690   3.589                        
 5149W        W22365  10.179   6.750   0.375                        
 5150W        W22366   7.211   7.812   3.351                        
 5151W        W22367   6.426   0.714   2.849                        
 5152W        W22368  11.736   0.187   0.386                        
 5153W        W22369  10.693   8.021  10.213                        
 5154W        W22370  13.360   2.536   3.350                        
 5155W        W22371   1.950   0.128   4.163                        
 5156W        W22372   2.209   7.836   9.738                        
 5157W        W22373   4.584   6.740   8.421                        
 5158W        W22374  13.121   2.754  10.250                        
 5159W        W22375   3.557   8.336   1.766                        
 5160W        W22376   5.710   6.670   3.926                        
 5161W        W22377  12.002   7.752   1.729                        
 5162W        W22378   4.386   5.443   8.976                        
 5163W        W22379  13.084   5.712   1.474                        
 5164W        W22380   3.089   6.484   3.003                        
 5165W        W22381   9.111   4.870   8.679                        
 5166W        W22382   1.478   2.748   1.146                        
 5167W        W22383  12.546  13.859  10.468                        
 5168W        W22384   8.048  13.076   3.096                        
 5169W        W22385   7.200   8.063  11.030                        
 5170W        W22386   1.994   1.674   0.444                        
 5171W        W22387   8.599   4.411   0.943                        
 5172W        W22388   2.722  10.715   2.308                        
 5173W        W22389   7.256   0.673   4.436                        
 5174W        W22390   6.183   5.731   1.525                        
 5175W        W22391   5.402  11.964   9.681                        
 5176W        W22392   7.059   2.485   0.958                        
 5177W        W22393  12.274   8.636  11.845                        
 5178W        W22394   3.313   2.190  10.733                        
 5179W        W22395   7.550  13.068   1.524                        
 5180W        W22396   9.385  12.484   8.455                        
 5181W        W22397   1.428   2.494  11.278                        
 5182W        W22398   5.928   4.927   1.477                        
 5183W        W22399   9.368  12.554   1.415                        
 5184W        W22400  13.835  10.165  11.537                        
 5185W        W22401   2.788   5.086   4.466                        
 5186W        W22402   9.420  12.511   1.799                        
 5187W        W22403  12.765   4.564   8.658                        
 5188W        W22404  12.058   6.706   0.927                        
 5189W        W22405   1.746  13.336   9.481                        
 5190W        W22406   5.170  10.997   2.478                        
 5191W        W22407  12.312   3.016   0.437                        
 5192W        W22408  10.208   7.329  11.815                        
 5193W        W22409   4.681   3.810   0.415                        
 5194W        W22410   2.557   9.364   9.522                        
 5195W        W22411   9.101   2.535  11.631                        
 5196W        W22412   9.615   3.009   3.079                        
 5197W        W22413   4.947  12.270  10.007                        
 5198W        W22414   7.729   2.535   9.709                        
 5199W        W22415   0.153  13.855   8.375                        
 5200W        W22416  11.506   1.227  10.557                        
 5201W        W22417   4.586   3.030   8.602                        
 5202W        W22418   5.440   9.702   0.958                        
 5203W        W22419   7.842   3.052  10.742                        
 5204W        W22420   9.949  13.862  11.835                        
 5205W        W22421   7.473   1.226  11.930                        
 5206W        W22422   8.603   0.635   1.945                        
 5207W        W22423   4.156  10.942  11.637                        
 5208W        W22424   4.577   0.072  10.563                        
 5209W        W22425  11.001   2.486  10.330                        
 5210W        W22426   5.950  13.874  10.035                        
 5211W        W22427  13.103  13.049   8.432                        
 5212W        W22428  13.605  11.203   3.597                        
 5213W        W22429   4.096   0.681   0.090                        
 5214W        W22430   1.918   6.802   0.178                        
 5215W        W22431   9.116   7.763   1.486                        
 5216W        W22432   4.308  12.220   8.609                        
 5217W        W22433   8.369   4.562   9.435                        
 5218W        W22434   7.020   0.610   8.152                        
 5219W        W22435  13.921   8.538   4.111                        
 5220W        W22436   8.105   8.903  11.038                        
 5221W        W22437   7.737   4.041   8.730                        
 5222W        W22438  12.576   9.321  10.528                        
 5223W        W22439   8.547   8.828   1.507                        
 5224W        W22440   9.623   8.260  10.572                        
 5225W        W22441  12.232  10.911   3.087                        
 5226W        W22442  13.642   3.626   3.630                        
 5227W        W22443   5.430   1.668  10.481                        
 5228W        W22444   6.789   6.203   2.758                        
 5229W        W22445   1.743   9.086   9.682                        
 5230W        W22446  12.605   8.570   1.703                        
 5231W        W22447   9.118   6.707  10.301                        
 5232W        W22448   1.948   9.910   0.397                        
 5233W        W22449   8.911   9.876  11.564                        
 5234W        W22450   4.376   3.549   0.133                        
 5235W        W22451   6.962  13.803   8.668                        
 5236W        W22452   5.709   7.831  10.015                        
 5237W        W22453   3.097   6.194   8.366                        
 5238W        W22454   2.475   2.209   2.745                        
 5239W        W22455   2.001   8.595   9.219                        
 5240W        W22456   9.877  13.032   1.489                        
 5241W        W22457   0.957  13.623   2.004                        
 5242W        W22458   2.824   6.452   9.757                        
 5243W        W22459   3.786   2.767   9.717                        
 5244W        W22460  13.342   8.348  10.205                        
 5245W        W22461  10.488   3.631   8.926                        
 5246W        W22462  10.471  10.224   0.120                        
 5247W        W22463  13.296   7.066   0.081                        
 5248W        W22464   3.034   6.459   0.402                        
 5249W        W22465   7.816   9.895  11.086                        
 5250W        W22466  12.820   5.899  10.040                        
 5251NA      NA22467   9.057   2.264  10.279                        
 5252NA      NA22468   9.589   3.280   8.997                        
 5253NA      NA22469   6.488   2.974   1.937                        
 5254NA      NA22470  12.076   9.971   8.068                        
 5255NA      NA22471   0.981   2.235   4.126                        
 5256NA      NA22472   7.832   8.024   0.618                        
 5257NA      NA22473  10.150   5.113   0.726                        
 5258NA      NA22474   0.984  13.122   2.840                        
 5259NA      NA22475   0.974   0.367   8.872                        
 5260NA      NA22476   4.892   0.102   3.613                        
 5261NA      NA22477   2.530   0.398   0.144                        
 5262NA      NA22478  13.340   8.560   3.826                        
 5263NA      NA22479   4.382   3.596   2.575                        
 5264NA      NA22480  10.654   7.487   0.096                        
 5265NA      NA22481  10.149   3.577   0.403                        
 5266NA      NA22482   1.136   1.414  10.056                        
 5267NA      NA22483   0.072   3.824   2.738                        
 5268NA      NA22484   2.239   0.391   3.562                        
 5269NA      NA22485   7.759   1.176   7.893                        
 5270NA      NA22486   9.388   5.689   1.680                        
 5271NA      NA22487   7.732   2.809   3.063                        
 5272NA      NA22488  11.015   1.992   9.694                        
 5273NA      NA22489   6.186   0.649   8.649                        
 5274NA      NA22490   3.003   1.174  11.047                        
 5275NA      NA22491   7.513   0.714   1.757                        
 5276NA      NA22492  10.716   7.772   2.755                        
 5277NA      NA22493   8.066  13.853   0.688                        
 5278NA      NA22494   0.648   6.241  11.553                        
 5279NA      NA22495   5.884   3.844  11.562                        
 5280NA      NA22496  12.539  10.474   3.126                        
 5281NA      NA22497  10.182   4.306   9.689                        
 5282NA      NA22498  11.251   6.965  11.856                        
 5283NA      NA22499   3.795   0.915   8.929                        
 5284NA      NA22500   6.003   1.407   3.846                        
 5285NA      NA22501  13.369   6.687   2.021                        
 5286NA      NA22502  12.080   1.484  11.118                        
 5287NA      NA22503  12.329   3.544   1.136                        
 5288NA      NA22504   8.016   8.821   0.454                        
 5289NA      NA22505   9.404   2.225   1.792                        
 5290NA      NA22506   4.336  13.810   0.675                        
 5291NA      NA22507   4.121   1.406  10.485                        
 5292NA      NA22508   0.859   5.398   2.020                        
 5293NA      NA22509   1.705   0.119   2.017                        
 5294NA      NA22510   5.696  13.381   2.865                        
 5295NA      NA22511  11.521   7.208   1.000                        
 5296NA      NA22512  11.498   6.482  11.867                        
 5297NA      NA22513   6.530   3.082   9.181                        
 5298NA      NA22514  13.283   3.791   2.221                        
 5299NA      NA22515   5.107   0.436   1.475                        
 5300NA      NA22516  10.760  10.398   9.994                        
 5301NA      NA22517  12.222   6.743   3.383                        
 5302NA      NA22518   6.203   1.437  10.825                        
 5303NA      NA22519   5.360   3.029   2.212                        
 5304NA      NA22520   3.586  13.668  11.351                        
 5305NA      NA22521  11.992  13.061  10.226                        
 5306NA      NA22522   2.561   9.905   1.237                        
 5307NA      NA22523   6.801   5.717  11.087                        
 5308NA      NA22524   8.083   5.471   3.085                        
 5309NA      NA22525   9.684  12.757  11.815                        
 5310NA      NA22526   9.918   2.211   0.956                        
 5311NA      NA22527   7.007  13.897  11.358                        
 5312NA      NA22528   5.132   1.167  11.598                        
 5313NA      NA22529  10.730  13.564   1.773                        
 5314NA      NA22530   5.964   8.003  11.619                        
 5315NA      NA22531  13.278   5.199   2.048                        
 5316NA      NA22532   4.038  11.732  11.831                        
 5317NA      NA22533   3.019  11.818   2.013                        
 5318NA      NA22534   4.885   6.948  10.219                        
 5319NA      NA22535   4.097   9.653   2.228                        
 5320NA      NA22536  12.497   4.882   2.282                        
 5321NA      NA22537   0.375   2.017  10.054                        
 5322NA      NA22538  10.993   1.143  10.271                        
 5323NA      NA22539   5.461  12.842   8.464                        
 5324NA      NA22540  12.035   2.201   8.451                        
 5325NA      NA22541   3.084   3.822  11.615                        
 5326NA      NA22542   6.500   7.022   1.267                        
 5327NA      NA22543   9.911   7.993   9.444                        
 5328NA      NA22544   6.446   3.893  11.283                        
 5329NA      NA22545   7.592   1.482   4.108                        
 5330NA      NA22546   6.207  13.316   1.687                        
 5331NA      NA22547   8.292   4.590  10.211                        
 5332NA      NA22548  11.733   5.628   8.440                        
 5333NA      NA22549   0.951   8.649   2.735                        
 5334NA      NA22550  11.728   6.201   0.101                        
 5335NA      NA22551   1.207   0.418  11.836                        
 5336NA      NA22552   4.134   0.885   0.142                        
 5337NA      NA22553  11.717  13.353   8.390                        
 5338NA      NA22554   8.804   2.780   2.476                        
 5339NA      NA22555  11.705  12.589  11.391                        
 5340NA      NA22556   8.325   9.079   2.553                        
 5341NA      NA22557   4.113   9.103   2.735                        
 5342NA      NA22558   9.595  11.550   0.405                        
 5343NA      NA22559   3.858   0.129  11.071                        
 5344NA      NA22560   0.130   1.419  10.509                        
 5345NA      NA22561   5.410  13.332  11.865                        
 5346NA      NA22562   5.668  12.853  10.595                        
 5347NA      NA22563   0.359   7.203  10.294                        
 5348NA      NA22564  10.742   1.935   8.382                        
 5349NA      NA22565   3.036   2.557  11.581                        
 5350NA      NA22566   6.766   5.939   8.392                        
 5351NA      NA22567   0.458  13.032   1.705                        
 5352NA      NA22568  11.799  11.007  11.595                        
 5353NA      NA22569   7.265   4.845   9.794                        
 5354NA      NA22570   9.174  10.196   8.693                        
 5355NA      NA22571   4.839   8.820  11.384                        
 5356NA      NA22572   2.498   4.055  10.848                        
 5357NA      NA22573  13.606  10.211   3.132                        
 5358NA      NA22574  12.308  12.253  10.522                        
 5359NA      NA22575  13.571   8.364   2.782                        
 5360NA      NA22576   2.499   6.777   0.733                        
 5361NA      NA22577   2.285   3.624   2.282                        
 5362NA      NA22578   1.768  10.938   0.639                        
 5363NA      NA22579  13.897  10.205   0.114                        
 5364NA      NA22580  11.474   0.705   4.096                        
 5365NA      NA22581   1.980  11.171  10.313                        
 5366NA      NA22582  10.947   7.531   3.280                        
 5367NA      NA22583   2.557  13.827  11.843                        
 5368NA      NA22584   8.336   9.691   3.556                        
 5369NA      NA22585  13.286  12.580   0.130                        
 5370NA      NA22586   5.922   8.797  11.387                        
 5371NA      NA22587   6.461   0.399   3.584                        
 5372NA      NA22588   6.166   5.142   1.151                        
 5373NA      NA22589  12.058   7.487  11.611                        
 5374NA      NA22590   4.889   3.801  10.825                        
 5375NA      NA22591   9.421   4.070   8.408                        
 5376NA      NA22592  13.546   1.975   8.952                        
 5377NA      NA22593   4.140   7.465   1.692                        
 5378NA      NA22594   8.368  11.254   9.226                        
 5379NA      NA22595   8.609   5.633  11.028                        
 5380NA      NA22596   8.847  10.661   0.694                        
 5381NA      NA22597   1.468   1.139   3.624                        
 5382NA      NA22598  13.298   1.501  10.022                        
 5383NA      NA22599  13.541   5.940  10.543                        
 5384NA      NA22600   7.248   5.911   0.138                        
 5385NA      NA22601   5.717   9.918   9.190                        
 5386NA      NA22602  12.249   7.809   3.655                        
 5387NA      NA22603   8.870   7.052   1.253                        
 5388NA      NA22604   2.803   1.493   3.323                        
 5389NA      NA22605  13.307   3.103  10.847                        
 5390NA      NA22606   3.267  12.598   9.730                        
 5391NA      NA22607   6.721   6.412   3.113                        
 5392NA      NA22608  11.807   7.731   1.468                        
 5393NA      NA22609   6.944   1.481  11.075                        
 5394NA      NA22610  10.914   7.046  10.833                        
 5395NA      NA22611  11.478  13.283   9.521                        
 5396NA      NA22612   1.920   2.527   3.642                        
 5397NA      NA22613   1.174   1.747   8.678                        
 5398NA      NA22614   0.097   9.147   7.804                        
 5399NA      NA22615  10.430  13.614  10.266                        
 5400NA      NA22616   7.587   2.245   0.906                        
 5401NA      NA22617  13.112   6.979   1.937                        
 5402NA      NA22618  13.335   4.878   9.436                        
 5403NA      NA22619   2.738  10.904   3.072                        
 5404NA      NA22620  13.544   4.368   9.776                        
 5405NA      NA22621   3.314   0.413   2.790                        
 5406NA      NA22622   2.790   3.553  10.004                        
 5407NA      NA22623   9.080   9.385   1.765                        
 5408NA      NA22624   2.496   0.428   0.641                        
 5409NA      NA22625   4.107  11.250  10.563                        
 5410NA      NA22626   6.485   3.530   9.795                        
 5411NA      NA22627   2.012   7.801   0.088                        
 5412NA      NA22628   3.286  12.750  10.011                        
 5413NA      NA22629  13.062   1.423   1.693                        
 5414NA      NA22630   1.466   7.477  10.026                        
 5415NA      NA22631  11.784   1.124   2.507                        
 5416NA      NA22632   5.958   1.427   4.354                        
 5417NA      NA22633   5.441   3.360   9.982                        
 5418NA      NA22634  13.048  11.469   8.659                        
 5419NA      NA22635   4.577   5.620   8.087                        
 5420NA      NA22636   2.991   5.705  10.224                        
 5421NA      NA22637  11.969  10.174   1.707                        
 5422NA      NA22638   6.254   4.559   2.017                        
 5423NA      NA22639   3.523   5.682  11.099                        
 5424NA      NA22640   3.555   4.907  11.037                        
 5425NA      NA22641  11.745   5.966   9.143                        
 5426NA      NA22642  10.997  10.414   3.086                        
 5427NA      NA22643   4.033   0.948   7.849                        
 5428NA      NA22644   3.335   4.859   3.059                        
 5429NA      NA22645  13.875   1.778   2.022                        
 5430NA      NA22646   7.563  12.788  10.845                        
 5431NA      NA22647   7.210   9.140   2.222                        
 5432NA      NA22648   2.211   9.870  10.828                        
 5433NA      NA22649   7.804   7.824   0.133                        
 5434NA      NA22650   5.209  10.136  10.235                        
 5435NA      NA22651   0.991  11.744   3.602                        
 5436NA      NA22652   0.363   0.188   3.315                        
 5437NA      NA22653   3.358   8.845  10.767                        
 5438NA      NA22654   9.624   7.251  10.261                        
 5439NA      NA22655   5.163   0.375   2.598                        
 5440NA      NA22656   5.615  10.499   1.770                        
 5441NA      NA22657   0.104   4.134   9.439                        
 5442NA      NA22658   1.250   3.777   3.347                        
 5443NA      NA22659   0.161   5.649  11.586                        
 5444NA      NA22660   0.951  11.278   2.832                        
 5445NA      NA22661   9.350   4.592  10.208                        
 5446NA      NA22662  10.105   8.629   0.370                        
 5447NA      NA22663  12.557   2.037   7.603                        
 5448NA      NA22664   3.285   5.376   0.426                        
 5449NA      NA22665  10.725   4.859  10.501                        
 5450NA      NA22666   3.266  12.051   0.649                        
 5451NA      NA22667  12.840   1.776   1.964                        
 5452NA      NA22668   4.416   7.782   9.943                        
 5453NA      NA22669   6.169   2.567   3.001                        
 5454NA      NA22670   0.611   3.567  10.515                        
 5455NA      NA22671   1.394   3.533   1.946                        
 5456NA      NA22672   3.891  10.682   9.443                        
 5457NA      NA22673   1.151   7.226   8.702                        
 5458NA      NA22674   3.080  12.533   0.184                        
 5459NA      NA22675   8.573   6.500  10.013                        
 5460NA      NA22676  11.793   3.302   3.388                        
 5461NA      NA22677  11.285  10.716   2.540                        
 5462NA      NA22678   7.543   9.673  10.007                        
 5463NA      NA22679  13.325   8.095   3.381                        
 5464NA      NA22680   3.547  11.716   0.967                        
 5465NA      NA22681  13.013   7.843  10.751                        
 5466NA      NA22682  10.667   1.392   1.255                        
 5467NA      NA22683   6.253  11.710   0.910                        
 5468NA      NA22684  11.466  13.064  10.271                        
 5469NA      NA22685  12.229   5.376   0.189                        
 5470NA      NA22686   1.405   0.706   0.382                        
 5471NA      NA22687   6.494   9.937   8.461                        
 5472NA      NA22688   1.460  10.125  11.607                        
 5473NA      NA22689  10.139  13.102   8.172                        
 5474NA      NA22690  12.072   1.779  11.622                        
 5475NA      NA22691   2.001  10.176   3.029                        
 5476NA      NA22692  10.473   4.071   0.453                        
 5477NA      NA22693   3.251   9.171   7.929                        
 5478NA      NA22694   8.008   5.702   0.167                        
 5479NA      NA22695   7.230   2.268   9.406                        
 5480NA      NA22696  10.377   4.951   1.437                        
 5481NA      NA22697   7.562   9.130  10.022                        
 5482NA      NA22698   2.759   6.174   8.998                        
 5483NA      NA22699   3.345   2.740   2.750                        
 5484NA      NA22700   2.765   6.973   3.365                        
 5485NA      NA22701   0.607   6.244   3.552                        
 5486NA      NA22702   9.372   7.302   8.937                        
 5487NA      NA22703   7.839  10.966   2.306                        
 5488NA      NA22704   6.174  13.047   8.372                        
 5489NA      NA22705   1.686   5.139  11.813                        
 5490NA      NA22706  12.534   9.140   2.286                        
 5491NA      NA22707  11.528   9.325   1.155                        
 5492NA      NA22708   1.411   8.112   9.400                        
 5493NA      NA22709  10.993   1.148  11.907                        
 5494NA      NA22710   6.763  11.810   3.920                        
 5495NA      NA22711  10.201   2.776  10.565                        
 5496NA      NA22712   7.218   6.506   9.527                        
 5497NA      NA22713  11.489  13.572  11.892                        
 5498NA      NA22714  12.267   1.669  11.581                        
 5499NA      NA22715   4.663   8.008   1.968                        
 5500NA      NA22716  11.998  11.800   0.955                        
 5501NA      NA22717   0.970   3.849   3.082                        
 5502NA      NA22718  10.900   5.394   0.978                        
 5503NA      NA22719   3.070   0.869  11.349                        
 5504NA      NA22720   9.377   4.123   0.656                        
 5505NA      NA22721  12.325  10.153   4.444                        
 5506NA      NA22722   5.103   4.048  10.588                        
 5507NA      NA22723   5.661  12.775   8.379                        
 5508NA      NA22724   9.958   3.304   1.137                        
 5509NA      NA22725   1.688   5.465   8.878                        
 5510NA      NA22726   9.644  12.856   0.077                        
 5511NA      NA22727   2.183   4.401   4.097                        
 5512NA      NA22728  11.201   8.373   1.756                        
 5513NA      NA22729   6.943   6.503  11.877                        
 5514NA      NA22730   7.265  12.855  10.016                        
 5515NA      NA22731  11.744   5.095   9.262                        
 5516NA      NA22732  12.748   2.300  10.486                        
 5517NA      NA22733   0.335  10.984   9.442                        
 5518NA      NA22734   9.314   8.869   9.689                        
 5519NA      NA22735  12.295  13.108  11.277                        
 5520NA      NA22736   9.419   7.044   2.066                        
 5521NA      NA22737   9.384  10.176   9.505                        
 5522NA      NA22738   2.792   9.930   8.336                        
 5523NA      NA22739   0.183   7.791   8.362                        
 5524NA      NA22740   9.417   9.059  11.073                        
 5525NA      NA22741   2.030   2.791   0.179                        
 5526NA      NA22742   6.410  12.273   1.794                        
 5527NA      NA22743  10.490  10.455   2.219                        
 5528NA      NA22744   5.712   2.454   1.218                        
 5529NA      NA22745  11.532   6.986  11.571                        
 5530NA      NA22746   2.712   7.208   8.181                        
 5531NA      NA22747  10.496   8.584   3.316                        
 5532NA      NA22748  13.544   0.962  10.332                        
 5533NA      NA22749   9.373   7.250   2.596                        
 5534NA      NA22750  13.097   2.809   9.969                        
 5535NA      NA22751  10.192   4.356  10.586                        
 5536NA      NA22752   1.478   9.673   0.166                        
 5537NA      NA22753  13.129   2.204   3.273                        
 5538NA      NA22754  12.521  13.032   0.709                        
 5539NA      NA22755   0.691   1.254   3.875                        
 5540NA      NA22756   7.236   5.350   1.743                        
 5541NA      NA22757   4.560   5.446   8.908                        
 5542NA      NA22758   0.338   3.506   0.679                        
 5543NA      NA22759  11.494   3.861   3.359                        
 5544NA      NA22760  12.045   6.219   1.686                        
 5545NA      NA22761   6.671  12.267   2.796                        
 5546NA      NA22762   4.075   4.300  11.595                        
 5547NA      NA22763   7.019  12.055   2.571                        
 5548NA      NA22764   3.787  13.918   2.814                        
 5549NA      NA22765   2.554   4.374   1.985                        
 5550NA      NA22766   4.072   1.413   1.489                        
 5551NA      NA22767   7.308   8.261   1.449                        
 5552NA      NA22768  13.335  11.555   0.949                        
 5553NA      NA22769   1.995   8.104   9.703                        
 5554NA      NA22770   2.523   7.024   8.352                        
 5555NA      NA22771   3.052  11.182  11.916                        
 5556NA      NA22772   3.524   6.724   2.752                        
 5557NA      NA22773   6.473   1.966   1.245                        
 5558NA      NA22774   2.491   5.418   4.084                        
 5559CL      CL22775  13.132   8.901  10.203                        
 5560CL      CL22776   4.136   8.256   8.644                        
 5561CL      CL22777   2.526   9.140   2.830                        
 5562CL      CL22778   1.229  12.873  10.259                        
 5563CL      CL22779   1.401  10.494   1.237                        
 5564CL      CL22780   7.587  11.468   1.724                        
 5565CL      CL22781   1.501   2.045  10.512                        
 5566CL      CL22782   1.158   4.102  10.030                        
 5567CL      CL22783   7.510   8.074   2.264                        
 5568CL      CL22784   8.257   5.453   1.680                        
 5569CL      CL22785   6.508  13.304   8.935                        
 5570CL      CL22786   9.329   7.040  11.808                        
 5571CL      CL22787  10.198  12.529  10.587                        
 5572CL      CL22788   6.524   0.865   3.652                        
 5573CL      CL22789   3.548   8.573   9.989                        
 5574CL      CL22790  10.728   7.228   8.438                        
 5575CL      CL22791  11.237   1.736   8.913                        
 5576CL      CL22792   9.432   1.681  10.229                        
 5577CL      CL22793   9.684   1.134   0.624                        
 5578CL      CL22794   1.721   8.274  11.534                        
 5579CL      CL22795  13.646  12.293   8.400                        
 5580CL      CL22796   6.222   6.174   9.730                        
 5581CL      CL22797   5.721  11.448  11.327                        
 5582CL      CL22798   7.018   2.203  11.608                        
 5583CL      CL22799   6.763   4.082  10.745                        
 5584CL      CL22800  10.202   3.239   8.870                        
 5585CL      CL22801  12.805   0.691   1.942                        
 5586CL      CL22802   5.148   5.992  10.035                        
 5587CL      CL22803   7.207   7.058  10.040                        
 5588CL      CL22804   3.245   9.860  10.011                        
 5589CL      CL22805   1.508   4.335   0.610                        
 5590CL      CL22806   4.581   3.819   8.685                        
 5591CL      CL22807  13.381   7.512  11.535                        
 5592CL      CL22808   0.356   8.875   8.686                        
 5593CL      CL22809   6.424   4.894   2.253                        
 5594CL      CL22810  13.016   4.087   2.027                        
 5595CL      CL22811   8.060  13.652   9.758                        
 5596CL      CL22812   4.642   8.083   9.254                        
 5597CL      CL22813   0.193  13.365   3.653                        
 5598CL      CL22814  10.468   1.692   8.996                        
 5599CL      CL22815   1.146   3.837  10.273                        
 5600CL      CL22816   5.729   7.284   7.916                        
 5601CL      CL22817   6.168   7.482   3.299                        
 5602CL      CL22818   5.119   1.721   1.206                        
 5603CL      CL22819   7.821   2.520  10.220                        
 5604CL      CL22820   4.851   1.925   1.403                        
 5605CL      CL22821   5.441   6.777   4.135                        
 5606CL      CL22822  10.418   5.892  10.009                        
 5607CL      CL22823   3.773   3.535   0.149                        
 5608CL      CL22824   9.655  13.891   9.960                        
 5609CL      CL22825   8.354   9.142   9.721                        
 5610CL      CL22826  11.791   4.348   3.046                        
 5611CL      CL22827   9.690  10.179  10.250                        
 5612CL      CL22828  10.398  10.930   0.345                        
 5613CL      CL22829   0.171   2.280   9.972                        
 5614CL      CL22830   3.069  10.220   9.260                        
 5615CL      CL22831   3.253   8.286   8.370                        
 5616CL      CL22832  11.974  10.679   1.415                        
 5617CL      CL22833   6.006   6.682   4.451                        
 5618CL      CL22834   2.484   0.191  11.046                        
 5619CL      CL22835   0.399   6.475   3.297                        
 5620CL      CL22836   7.205   1.447   3.849                        
 5621CL      CL22837   8.855  10.697  10.558                        
 5622CL      CL22838   7.283   3.325   8.662                        
 5623CL      CL22839   3.612  11.509   9.736                        
 5624CL      CL22840   9.345  10.164   0.631                        
 5625CL      CL22841   6.455  13.277   3.818                        
 5626CL      CL22842   0.883   5.130   8.075                        
 5627CL      CL22843  10.762   7.225   0.727                        
 5628CL      CL22844  11.766   9.371   8.923                        
 5629CL      CL22845   7.017   7.738  11.659                        
 5630CL      CL22846   3.062   0.094   7.564                        
 5631CL      CL22847  12.573   4.347  11.913                        
 5632CL      CL22848   2.026   3.626  10.014                        
 5633CL      CL22849   5.704   3.347   3.396                        
 5634CL      CL22850   8.891   6.191   2.491                        
 5635CL      CL22851   4.821   0.174   9.172                        
 5636CL      CL22852  12.788   3.093   2.828                        
 5637CL      CL22853   1.681   3.241  10.030                        
 5638CL      CL22854   0.927   3.623  11.852                        
 5639CL      CL22855   4.315   0.606   8.983                        
 5640CL      CL22856   3.238   6.476   0.166                        
 5641CL      CL22857   2.264   1.228  10.034                        
 5642CL      CL22858   4.041  10.119   9.797                        
 5643CL      CL22859   3.348  11.777   3.382                        
 5644CL      CL22860   8.101   1.124   1.451                        
 5645CL      CL22861   1.692   0.863   0.096                        
 5646CL      CL22862   5.941   2.767   9.730                        
 5647CL      CL22863   6.754   2.223   7.849                        
 5648CL      CL22864  13.601  11.989   9.204                        
 5649CL      CL22865  12.507   6.533   2.042                        
 5650CL      CL22866   4.646  13.920   2.747                        
 5651CL      CL22867   0.903  11.730  11.290                        
 5652CL      CL22868   4.066  13.071   8.941                        
 5653CL      CL22869   9.909   2.716  10.838                        
 5654CL      CL22870   8.275  12.222   9.459                        
 5655CL      CL22871   5.626  13.028   3.087                        
 5656CL      CL22872  13.286   6.236   1.473                        
 5657CL      CL22873   0.990  12.593   9.506                        
 5658CL      CL22874   4.100   7.311  11.090                        
 5659CL      CL22875   7.037   5.192   1.419                        
 5660CL      CL22876  12.868   0.714   2.752                        
 5661CL      CL22877   4.642   0.704   9.233                        
 5662CL      CL22878   3.103   7.495   0.432                        
 5663CL      CL22879  11.174   7.317   2.063                        
 5664CL      CL22880   4.330   1.486   9.729                        
 5665CL      CL22881   3.350   7.203   0.362                        
 5666CL      CL22882   4.921   3.289   9.710                        
 5667CL      CL22883   1.762  13.610  11.365                        
 5668CL      CL22884   0.150   1.173   3.328                        
 5669CL      CL22885   4.881  10.655   8.672                        
 5670CL      CL22886  12.826  11.446   2.484                        
 5671CL      CL22887   9.584   5.718   3.120                        
 5672CL      CL22888   4.884  11.443   1.950                        
 5673CL      CL22889   0.441   9.420   2.268                        
 5674CL      CL22890   3.249   0.695   8.608                        
 5675CL      CL22891   7.232   8.641   1.783                        
 5676CL      CL22892   9.438  10.231   8.356                        
 5677CL      CL22893   1.702  10.414   8.601                        
 5678CL      CL22894   0.634   4.387   9.677                        
 5679CL      CL22895   0.933  12.752   9.686                        
 5680CL      CL22896  13.295  11.013  10.788                        
 5681CL      CL22897   8.331   4.371   0.958                        
 5682CL      CL22898   7.762   3.767   2.277                        
 5683CL      CL22899   3.836  12.822   0.154                        
 5684CL      CL22900  10.963   8.859   9.509                        
 5685CL      CL22901   7.473   6.258   3.840                        
 5686CL      CL22902   4.651   2.190   0.618                        
 5687CL      CL22903  10.962   3.068  11.043                        
 5688CL      CL22904  13.371   7.525   0.731                        
 5689CL      CL22905   2.230   4.311   9.796                        
 5690CL      CL22906   1.207  10.120  10.059                        
 5691CL      CL22907   6.478   6.514   2.598                        
 5692CL      CL22908   1.929   3.853   8.969                        
 5693CL      CL22909  13.061  11.785   3.901                        
 5694CL      CL22910   4.373   4.422   3.612                        
 5695CL      CL22911   7.490   9.331   9.452                        
 5696CL      CL22912   5.359   9.432  11.373                        
 5697CL      CL22913   4.333   8.345   3.337                        
 5698CL      CL22914   1.726   5.449   3.377                        
 5699CL      CL22915   6.256   3.798   7.613                        
 5700CL      CL22916   4.317   7.501  11.924                        
 5701CL      CL22917   9.891   4.646   8.979                        
 5702CL      CL22918   3.773   7.821  10.585                        
 5703CL      CL22919   9.178   9.437   9.526                        
 5704CL      CL22920   5.475  11.024  11.900                        
 5705CL      CL22921   3.545   0.701   8.676                        
 5706CL      CL22922   4.873  13.106  11.351                        
 5707CL      CL22923  11.258   5.141   8.726                        
 5708CL      CL22924   5.160   1.410  11.909                        
 5709CL      CL22925   0.411   6.754   2.842                        
 5710CL      CL22926   6.152   3.783   1.983                        
 5711CL      CL22927   7.484   0.074  10.554                        
 5712CL      CL22928   1.479  13.848   2.277                        
 5713CL      CL22929  11.973   1.182  11.058                        
 5714CL      CL22930  13.290   6.733   2.484                        
 5715CL      CL22931   8.365   6.437   2.560                        
 5716CL      CL22932   0.184  13.392  11.880                        
  14.00000  14.00000  12.00000   0.00000   0.00000   0.00000   0.00000   0.00000   0.00000
