#include "martini3/martini_v3.0.0.itp"
#include "martini3/martini_v3.0.0_ffbonded_v2.itp"
#include "martini3/martini_v3.0.0_phospholipids_PG_v2.itp"
#include "martini3/martini_v3.0.0_phospholipids_PE_v2.itp"
#include "martini3/martini_v3.0.0_phospholipids_CL_v2.itp"
#include "martini3/martini_v3.0.0_ions_v1.itp"
#include "martini3/martini_v3.0.0_solvents_v1.itp"
#include "martini3/martini_v3.0.0_sterols_v1.itp"

[ system ]
; name
gim_only

[ molecules ]
; name number
DOPE    26
DVPE   147
POPE    80
POPG    61
TOCL     7
DOPE    26
DVPE   147
POPE    80
POPG    61
TOCL     7
W    14608
NA     308
CL     158
