  title                       =    equilibrate
  define                      =    -DPOSRES_CA
  integrator                  =    md
  dt                          =    0.001
  nsteps                      =    1000000
  pbc                         =    xyz
  ns_type                     =    grid
  nstlist                     =    10
  rlist                       =    1.0
  coulombtype                 =    pme
  rcoulomb                    =    1.0
  vdwtype                     =    cut-off
  rvdw                        =    1.0
  cutoff_scheme               =    verlet
  fourierspacing              =    0.12
  tcoupl                      =    v-rescale
  tc_grps                     =    Protein_ERG Water_and_ions
  tau_t                       =    0.1 0.1
  ref_t                       =    310 310
  pcoupl                      =    berendsen
  pcoupltype                  =    isotropic
  tau_p                       =    5.0
  compressibility             =    4.5e-5
  ref_p                       =    1.0
  refcoord_scaling            =    com
  nstcalcenergy               =    100
  comm_mode                   =    none
  nstcomm                     =    100
  dispcorr                    =    enerpres
  disre                       =    simple
  constraints                 =    all-bonds
  constraint_algorithm        =    lincs
  lincs_iter                  =    1
  lincs_order                 =    6
  lincs_warnangle             =    45
  comm_grps                   =    system
  disre_fc                    =    1000
  nstdisreout                 =    0
  nstxout                     =    200000
  nstvout                     =    200000
  nstfout                     =    0
  nstlog                      =    5000
  nstenergy                   =    5000
  nstxout_compressed          =    5000
  energygrps                  =    system
