* GENERATED BY CHARMM-GUI (HTTP://WWW.CHARMM-GUI.ORG) V3.7 ON JUL, 04. 2026. JOB
* GENERATES ION CONFORMATION USING MONTE-CARLO SIMULATION
*  DATE:     7/ 4/26     15:51:52      CREATED BY USER: charmm-gui
*
       114  EXT
         1         1  SOD       SOD            19.0337852037       17.9683435082      -29.9365649064  IONS      1               1.0000000000
         2         2  SOD       SOD             2.0071393485      -34.9134193762      -34.6299208050  IONS      2               1.0000000000
         3         3  SOD       SOD            30.4620319000      -34.6181316000      -51.3463347000  IONS      3               1.0000000000
         4         4  SOD       SOD            33.8444544000      -25.3161976000       25.4043106000  IONS      4               1.0000000000
         5         5  SOD       SOD           -18.5034766000        2.0756214400      -48.8173478000  IONS      5               1.0000000000
         6         6  SOD       SOD             4.8859172400       29.3857811000       26.0803913000  IONS      6               1.0000000000
         7         7  SOD       SOD             9.8512523900       21.8584098000      -38.5182697000  IONS      7               1.0000000000
         8         8  SOD       SOD           -21.4282435000       22.6070345000      -53.7820041000  IONS      8               1.0000000000
         9         9  SOD       SOD           -33.9715994000       -4.2091394300       34.3146841000  IONS      9               1.0000000000
        10        10  SOD       SOD            33.6207197000       18.3378220000       30.6612498000  IONS      10              1.0000000000
        11        11  SOD       SOD            -7.5059951500      -15.2211373000      -41.5503410000  IONS      11              1.0000000000
        12        12  SOD       SOD            31.5792039000      -15.3987234000      -53.5172194000  IONS      12              1.0000000000
        13        13  SOD       SOD           -11.3998697000      -15.5904352000       54.7122753000  IONS      13              1.0000000000
        14        14  SOD       SOD            27.8247356000        8.6476210500       44.0692728000  IONS      14              1.0000000000
        15        15  SOD       SOD           -39.1696704000        0.2202868970      -29.8189207000  IONS      15              1.0000000000
        16        16  SOD       SOD            25.9277885000      -16.0566849000       53.2441332000  IONS      16              1.0000000000
        17        17  SOD       SOD           -37.0106048000      -30.5726016000      -44.6048673000  IONS      17              1.0000000000
        18        18  SOD       SOD           -33.3782993000       27.3090078000      -38.6526442000  IONS      18              1.0000000000
        19        19  SOD       SOD             1.6453669100      -23.7753434000      -31.1644077000  IONS      19              1.0000000000
        20        20  SOD       SOD            -0.7051414115      -14.8301244211       44.8657301857  IONS      20              1.0000000000
        21        21  SOD       SOD            26.9380166000      -29.8265565000      -51.2167403000  IONS      21              1.0000000000
        22        22  SOD       SOD           -33.1903061000       21.2130861000       47.7779425000  IONS      22              1.0000000000
        23        23  SOD       SOD            37.4903113000       30.6727150000      -51.4718595000  IONS      23              1.0000000000
        24        24  SOD       SOD           -29.2262365000      -22.9873159000       41.5484140000  IONS      24              1.0000000000
        25        25  SOD       SOD            -8.4384310800       25.1161193000       26.6425643000  IONS      25              1.0000000000
        26        26  SOD       SOD           -10.3184802000       20.7974236000       53.3517449000  IONS      26              1.0000000000
        27        27  SOD       SOD            34.7309353000      -18.9244750000       37.1252893000  IONS      27              1.0000000000
        28        28  SOD       SOD           -14.1832934000      -27.3436589000       31.4263035000  IONS      28              1.0000000000
        29        29  SOD       SOD           -24.7141915000       13.2071199000       28.0496607000  IONS      29              1.0000000000
        30        30  SOD       SOD           -17.6659105000       36.2515324000      -24.9184598000  IONS      30              1.0000000000
        31        31  SOD       SOD            30.2032667000       39.5862958000      -31.5638207000  IONS      31              1.0000000000
        32        32  SOD       SOD           -28.4880305000       -5.1215064100       27.3228660000  IONS      32              1.0000000000
        33        33  SOD       SOD           -38.5521521000       10.9047260000       35.5250917000  IONS      33              1.0000000000
        34        34  SOD       SOD             9.4581665949      -36.5389218924       45.2619335317  IONS      34              1.0000000000
        35        35  SOD       SOD           -25.8904385000      -32.7444497000       30.6227653000  IONS      35              1.0000000000
        36        36  SOD       SOD            13.9545249000       -2.5732076400      -48.5035503000  IONS      36              1.0000000000
        37        37  SOD       SOD             9.3232280540       35.3079890820       28.6780291986  IONS      37              1.0000000000
        38        38  SOD       SOD           -31.8993839081       -7.6198544160      -24.2100512016  IONS      38              1.0000000000
        39        39  SOD       SOD             5.5903340400      -15.2583041000      -51.2335673000  IONS      39              1.0000000000
        40        40  SOD       SOD           -17.5123241000      -12.5897323000      -24.0667180000  IONS      40              1.0000000000
        41        41  SOD       SOD           -32.8676408000      -19.5454199000       51.6167348000  IONS      41              1.0000000000
        42        42  SOD       SOD            -8.5439987000      -22.1452384000      -39.2211346000  IONS      42              1.0000000000
        43        43  SOD       SOD            37.7640550000        3.4911569500       53.3417054000  IONS      43              1.0000000000
        44        44  SOD       SOD            20.0276819000      -32.0427925000      -49.7039178000  IONS      44              1.0000000000
        45        45  SOD       SOD           -13.9784430000       33.4418513000       43.2865314000  IONS      45              1.0000000000
        46        46  SOD       SOD            15.6585688930       30.5927578026      -26.6100558186  IONS      46              1.0000000000
        47        47  SOD       SOD           -24.3965808000      -17.9362693000      -35.8157386000  IONS      47              1.0000000000
        48        48  SOD       SOD             1.9059709342      -24.6343416055      -36.0946186708  IONS      48              1.0000000000
        49        49  SOD       SOD            19.5997402000      -11.5006103000       31.5065456000  IONS      49              1.0000000000
        50        50  SOD       SOD           -22.2710504000      -24.0812311000       30.1183231000  IONS      50              1.0000000000
        51        51  SOD       SOD            11.8836477000      -26.8902901000      -39.5904281000  IONS      51              1.0000000000
        52        52  SOD       SOD           -29.5503354135        5.6446994086      -32.4228179905  IONS      52              1.0000000000
        53        53  SOD       SOD            16.9199638000      -39.1332803000      -46.8382196000  IONS      53              1.0000000000
        54        54  SOD       SOD            38.0850988282      -35.2560277787       35.8186974187  IONS      54              1.0000000000
        55        55  SOD       SOD            33.3296363000      -30.2101620000      -23.9514149000  IONS      55              1.0000000000
        56        56  SOD       SOD             9.8460003100       -5.2801860300       23.3090557000  IONS      56              1.0000000000
        57        57  SOD       SOD            29.8260063000      -37.4682220000       32.5958689000  IONS      57              1.0000000000
        58        58  SOD       SOD           -40.1893164000       -8.1653191000      -31.0771798000  IONS      58              1.0000000000
        59        59  SOD       SOD            30.6842658000      -17.5201506000       23.7755702000  IONS      59              1.0000000000
        60        60  SOD       SOD           -22.3907590000       11.2371110000      -45.6823614000  IONS      60              1.0000000000
        61        61  SOD       SOD            22.8385207000      -29.6549327000      -41.4057391000  IONS      61              1.0000000000
        62        62  SOD       SOD            11.6788220000        3.3689109600      -42.2199663000  IONS      62              1.0000000000
        63        63  SOD       SOD           -25.3975193000       36.3067012000      -51.3569736000  IONS      63              1.0000000000
        64        64  SOD       SOD            18.5469689000      -24.3698820000       41.0554535000  IONS      64              1.0000000000
        65        65  SOD       SOD           -31.8216513000       -7.5569553300      -30.6002131000  IONS      65              1.0000000000
        66        66  SOD       SOD            -6.8600234500       24.6529441000       34.6391120000  IONS      66              1.0000000000
        67        67  SOD       SOD            18.9145589000      -19.4572696000      -23.5322448000  IONS      67              1.0000000000
        68        68  SOD       SOD           -15.9371289000       27.3313148000       47.0484257000  IONS      68              1.0000000000
        69        69  SOD       SOD            29.9257473000       14.9138087000      -43.4027623000  IONS      69              1.0000000000
        70        70  SOD       SOD           -23.8003474000       24.1004039000       39.3841951000  IONS      70              1.0000000000
        71        71  SOD       SOD            32.8166033000       -4.5999204000      -30.2671210000  IONS      71              1.0000000000
        72        72  SOD       SOD           -15.7095419000      -18.5233653000       30.8059173000  IONS      72              1.0000000000
        73        73  SOD       SOD             0.6288238510       37.4006821000      -38.5730874000  IONS      73              1.0000000000
        74        74  SOD       SOD             3.7516975593      -11.4124036026       49.7651212032  IONS      74              1.0000000000
        75        75  SOD       SOD            -3.3547974958        2.8351096900      -54.5824755515  IONS      75              1.0000000000
        76        76  SOD       SOD           -34.0673130000       30.5835015000      -53.9602536000  IONS      76              1.0000000000
        77        77  SOD       SOD            33.5572340893       11.5056554876       44.4469641114  IONS      77              1.0000000000
        78        78  SOD       SOD            15.3264132000        5.2633712700       28.0701578000  IONS      78              1.0000000000
        79        79  CLA       CLA            25.3396532000      -20.9402059000      -27.0095463000  IONS      79             -1.0000000000
        80        80  CLA       CLA           -28.9715685999      -12.3973033838      -45.8222857932  IONS      80             -1.0000000000
        81        81  CLA       CLA           -17.9614723000      -26.9800833000      -40.2398263000  IONS      81             -1.0000000000
        82        82  CLA       CLA           -23.5394385000       37.6475051000      -44.1054275000  IONS      82             -1.0000000000
        83        83  CLA       CLA           -19.7977871000      -15.3400780000      -31.3658129000  IONS      83             -1.0000000000
        84        84  CLA       CLA            -8.6414561200      -39.3016277000      -29.5395996000  IONS      84             -1.0000000000
        85        85  CLA       CLA           -30.3830959000       29.7418899000       41.3544085000  IONS      85             -1.0000000000
        86        86  CLA       CLA            36.9589387000      -31.9235761000       48.9983063000  IONS      86             -1.0000000000
        87        87  CLA       CLA             5.1328026200       -2.3244258200      -38.8928038000  IONS      87             -1.0000000000
        88        88  CLA       CLA             4.5594873426       14.3944661039      -54.3952790269  IONS      88             -1.0000000000
        89        89  CLA       CLA           -36.1999708000      -25.4375631000       32.9838367000  IONS      89             -1.0000000000
        90        90  CLA       CLA           -25.1985558000       36.9229184000       49.4768728000  IONS      90             -1.0000000000
        91        91  CLA       CLA           -16.3146430000       19.9114837000       29.3499493000  IONS      91             -1.0000000000
        92        92  CLA       CLA           -14.3411627000       25.2007657000      -51.4430220000  IONS      92             -1.0000000000
        93        93  CLA       CLA            -9.3135661400       27.1240870000       40.9737600000  IONS      93             -1.0000000000
        94        94  CLA       CLA           -34.6689147000      -15.1357369000       27.1550193000  IONS      94             -1.0000000000
        95        95  CLA       CLA           -40.1912196000      -33.4968056000      -27.4141204000  IONS      95             -1.0000000000
        96        96  CLA       CLA           -34.3863388000      -29.7202104000      -32.0136762000  IONS      96             -1.0000000000
        97        97  CLA       CLA             9.4072683000      -24.6168698000       43.5199013000  IONS      97             -1.0000000000
        98        98  CLA       CLA           -21.0606397000       35.8820718000       31.2679035000  IONS      98             -1.0000000000
        99        99  CLA       CLA           -39.3213093000      -29.0570531000       25.9881085000  IONS      99             -1.0000000000
       100       100  CLA       CLA            23.3027877000       39.0710391000       31.3182404000  IONS      100            -1.0000000000
       101       101  CLA       CLA            -4.4488941700      -15.8552820000      -38.6543563000  IONS      101            -1.0000000000
       102       102  CLA       CLA           -31.2768999000       -6.4550807200       48.4786728000  IONS      102            -1.0000000000
       103       103  CLA       CLA             1.5401522837      -32.9341348021       46.4868984665  IONS      103            -1.0000000000
       104       104  CLA       CLA            37.7512434000        2.8789288500      -36.6109486000  IONS      104            -1.0000000000
       105       105  CLA       CLA            38.9645362000       -9.4097243500       54.2410668000  IONS      105            -1.0000000000
       106       106  CLA       CLA           -32.7412249000      -14.1561873000      -34.5254485000  IONS      106            -1.0000000000
       107       107  CLA       CLA           -36.4773281000      -37.7781545000       47.2198959000  IONS      107            -1.0000000000
       108       108  CLA       CLA             0.5534743340      -17.5140586000       50.8744120000  IONS      108            -1.0000000000
       109       109  CLA       CLA             1.9772451838       -1.5715901247      -53.6994997836  IONS      109            -1.0000000000
       110       110  CLA       CLA           -36.1056342000      -21.7226319000      -35.4142569000  IONS      110            -1.0000000000
       111       111  CLA       CLA            30.1655408000       -7.2000784500       35.8985063000  IONS      111            -1.0000000000
       112       112  CLA       CLA           -29.0202443000       22.6348745000       41.5199483000  IONS      112            -1.0000000000
       113       113  CLA       CLA            28.9596265000      -37.8898576000      -30.5004465000  IONS      113            -1.0000000000
       114       114  CLA       CLA            15.3481561000       24.9250241000       38.8058730000  IONS      114            -1.0000000000
