#include "martini3/martini_v3.0.0.itp"
#include "martini3/martini_v3.0.0_ffbonded_v2.itp"
#include "martini3/martini_v3.0.0_phospholipids_PG_v2.itp"
#include "martini3/martini_v3.0.0_phospholipids_PE_v2.itp"
#include "martini3/martini_v3.0.0_phospholipids_CL_v2.itp"
#include "martini3/martini_v3.0.0_ions_v1.itp"
#include "martini3/martini_v3.0.0_solvents_v1.itp"
#include "martini3/martini_v3.0.0_sterols_v1.itp"
#include "KU04.itp"

[ system ]
; name
ku04_gim

[ molecules ]
; name number
KU04    1
DOPE   29
DVPE  166
POPE   43
POPG   69
TOCL    7
DOPE   30
DVPE  169
POPE   44
POPG   70
TOCL    8
W    7991
NA    252
CL     87
